
                                        *****************
                                        * O   R   C   A *
                                        *****************

                                            #,                                       
                                            ###                                      
                                            ####                                     
                                            #####                                    
                                            ######                                   
                                           ########,                                 
                                     ,,################,,,,,                         
                               ,,#################################,,                 
                          ,,##########################################,,             
                       ,#########################################, ''#####,          
                    ,#############################################,,   '####,        
                  ,##################################################,,,,####,       
                ,###########''''           ''''###############################       
              ,#####''   ,,,,##########,,,,          '''####'''          '####       
            ,##' ,,,,###########################,,,                        '##       
           ' ,,###''''                  '''############,,,                           
         ,,##''                                '''############,,,,        ,,,,,,###''
      ,#''                                            '''#######################'''  
     '                                                          ''''####''''         
             ,#######,   #######,   ,#######,      ##                                
            ,#'     '#,  ##    ##  ,#'     '#,    #''#        ######   ,####,        
            ##       ##  ##   ,#'  ##            #'  '#       #        #'  '#        
            ##       ##  #######   ##           ,######,      #####,   #    #        
            '#,     ,#'  ##    ##  '#,     ,#' ,#      #,         ##   #,  ,#        
             '#######'   ##     ##  '#######'  #'      '#     #####' # '####'        



                  #######################################################
                  #                        -***-                        #
                  #          Department of theory and spectroscopy      #
                  #    Directorship and core code : Frank Neese         #
                  #        Max Planck Institute fuer Kohlenforschung    #
                  #                Kaiser Wilhelm Platz 1               #
                  #                 D-45470 Muelheim/Ruhr               #
                  #                      Germany                        #
                  #                                                     #
                  #                  All rights reserved                #
                  #                        -***-                        #
                  #######################################################


                         Program Version 5.0.0 -  RELEASE  -
                                (SVN: $Rev: 19529$)
                ($Date: 2021-06-28 11:36:33 +0200 (Mo, 28 Jun 2021) $)


 With contributions from (in alphabetic order):
   Daniel Aravena         : Magnetic Suceptibility
   Michael Atanasov       : Ab Initio Ligand Field Theory (pilot matlab implementation)
   Alexander A. Auer      : GIAO ZORA, VPT2 properties, NMR spectrum
   Ute Becker             : Parallelization
   Giovanni Bistoni       : ED, misc. LED, open-shell LED, HFLD
   Martin Brehm           : Molecular dynamics
   Dmytro Bykov           : SCF Hessian
   Vijay G. Chilkuri      : MRCI spin determinant printing, contributions to CSF-ICE
   Dipayan Datta          : RHF DLPNO-CCSD density
   Achintya Kumar Dutta   : EOM-CC, STEOM-CC
   Dmitry Ganyushin       : Spin-Orbit,Spin-Spin,Magnetic field MRCI
   Miquel Garcia          : C-PCM Hessian, Gaussian charge scheme
   Yang Guo               : DLPNO-NEVPT2, F12-NEVPT2, CIM, IAO-localization
   Andreas Hansen         : Spin unrestricted coupled pair/coupled cluster methods
   Benjamin Helmich-Paris : MC-RPA, TRAH-SCF, COSX integrals
   Lee Huntington         : MR-EOM, pCC
   Robert Izsak           : Overlap fitted RIJCOSX, COSX-SCS-MP3, EOM
   Marcus Kettner         : VPT2
   Christian Kollmar      : KDIIS, OOCD, Brueckner-CCSD(T), CCSD density, CASPT2, CASPT2-K
   Simone Kossmann        : Meta GGA functionals, TD-DFT gradient, OOMP2, MP2 Hessian
   Martin Krupicka        : Initial AUTO-CI
   Lucas Lang             : DCDCAS
   Marvin Lechner         : AUTO-CI (C++ implementation), FIC-MRCC
   Dagmar Lenk            : GEPOL surface, SMD
   Dimitrios Liakos       : Extrapolation schemes; Compound Job, initial MDCI parallelization
   Dimitrios Manganas     : Further ROCIS development; embedding schemes
   Dimitrios Pantazis     : SARC Basis sets
   Anastasios Papadopoulos: AUTO-CI, single reference methods and gradients
   Taras Petrenko         : DFT Hessian,TD-DFT gradient, ASA, ECA, R-Raman, ABS, FL, XAS/XES, NRVS
   Peter Pinski           : DLPNO-MP2, DLPNO-MP2 Gradient
   Christoph Reimann      : Effective Core Potentials
   Marius Retegan         : Local ZFS, SOC
   Christoph Riplinger    : Optimizer, TS searches, QM/MM, DLPNO-CCSD(T), (RO)-DLPNO pert. Triples
   Tobias Risthaus        : Range-separated hybrids, TD-DFT gradient, RPA, STAB
   Michael Roemelt        : Original ROCIS implementation
   Masaaki Saitow         : Open-shell DLPNO-CCSD energy and density
   Barbara Sandhoefer     : DKH picture change effects
   Avijit Sen             : IP-ROCIS
   Kantharuban Sivalingam : CASSCF convergence, NEVPT2, FIC-MRCI
   Bernardo de Souza      : ESD, SOC TD-DFT
   Georgi Stoychev        : AutoAux, RI-MP2 NMR
   Willem Van den Heuvel  : Paramagnetic NMR
   Boris Wezisla          : Elementary symmetry handling
   Frank Wennmohs         : Technical directorship


 We gratefully acknowledge several colleagues who have allowed us to
 interface, adapt or use parts of their codes:
   Stefan Grimme, W. Hujo, H. Kruse, P. Pracht,  : VdW corrections, initial TS optimization,
                  C. Bannwarth, S. Ehlert          DFT functionals, gCP, sTDA/sTD-DF
   Ed Valeev, F. Pavosevic, A. Kumar             : LibInt (2-el integral package), F12 methods
   Garnet Chan, S. Sharma, J. Yang, R. Olivares  : DMRG
   Ulf Ekstrom                                   : XCFun DFT Library
   Mihaly Kallay                                 : mrcc  (arbitrary order and MRCC methods)
   Jiri Pittner, Ondrej Demel                    : Mk-CCSD
   Frank Weinhold                                : gennbo (NPA and NBO analysis)
   Christopher J. Cramer and Donald G. Truhlar   : smd solvation model
   Lars Goerigk                                  : TD-DFT with DH, B97 family of functionals
   V. Asgeirsson, H. Jonsson                     : NEB implementation
   FAccTs GmbH                                   : IRC, NEB, NEB-TS, DLPNO-Multilevel, CI-OPT
                                                   MM, QMMM, 2- and 3-layer-ONIOM, Crystal-QMMM,
                                                   LR-CPCM, SF, NACMEs, symmetry and pop. for TD-DFT,
                                                   nearIR, NL-DFT gradient (VV10), updates on ESD,
                                                   ML-optimized integration grids
   S Lehtola, MJT Oliveira, MAL Marques          : LibXC Library
   Liviu Ungur et al                             : ANISO software


 Your calculation uses the libint2 library for the computation of 2-el integrals
 For citations please refer to: http://libint.valeyev.net

 Your ORCA version has been built with support for libXC version: 5.1.0
 For citations please refer to: https://tddft.org/programs/libxc/

 This ORCA versions uses:
   CBLAS   interface :  Fast vector & matrix operations
   LAPACKE interface :  Fast linear algebra routines
   SCALAPACK package :  Parallel linear algebra routines
   Shared memory     :  Shared parallel matrices
   BLAS/LAPACK       :  OpenBLAS 0.3.15  USE64BITINT DYNAMIC_ARCH NO_AFFINITY SkylakeX SINGLE_THREADED
        Core in use  :  SkylakeX
   Copyright (c) 2011-2014, The OpenBLAS Project


================================================================================

----- Orbital basis set information -----
Your calculation utilizes the basis: cc-pVTZ 
       H, B-Ne : Obtained from the ccRepo (grant-hill.group.shef.ac.uk/ccrepo) Feb. 2017
                 T. H. Dunning, Jr., J. Chem. Phys. 90, 1007 (1989)
            He : Obtained from the ccRepo (grant-hill.group.shef.ac.uk/ccrepo) Feb. 2017
                 D. E. Woon, T. H. Dunning, Jr., J. Chem. Phys. 100, 2975 (1994)
  Li-Be, Na-Mg : Obtained from the ccRepo (grant-hill.group.shef.ac.uk/ccrepo) Feb. 2017
                 B. P. Prascher, D. E. Woon, K. A. Peterson, T. H. Dunning, Jr., A. K. Wilson, Theor. Chem. Acc. 128, 69 (2011)
         Al-Ar : Obtained from the ccRepo (grant-hill.group.shef.ac.uk/ccrepo) Feb. 2017
                 D. E. Woon, T. H. Dunning, Jr., J. Chem. Phys. 98, 1358 (1993)
            Ca : Obtained from the Peterson Research Group Website (tyr0.chem.wsu.edu/~kipeters) Feb. 2017
                 J. Koput, K. A. Peterson, J. Phys. Chem. 106, 9595 (2002)
         Sc-Zn : Obtained from the ccRepo (grant-hill.group.shef.ac.uk/ccrepo) Feb. 2017
                 N. B. Balabanov, K. A. Peterson, J. Chem. Phys. 123, 064107 (2005)
                 N. B. Balabanov, K. A. Peterson, J. Chem. Phys. 125, 074110 (2006)
         Ga-Kr : Obtained from the ccRepo (grant-hill.group.shef.ac.uk/ccrepo) Feb. 2017
                 A. K. Wilson, D. E. Woon, K. A. Peterson, T. H. Dunning, Jr., J. Chem. Phys. 110, 7667 (1999)
             Y : Obtained from the ccRepo (grant-hill.group.shef.ac.uk/ccrepo) Feb. 2017
                 K. A. Peterson, D. Figgen, M. Dolg, H. Stoll, J. Chem. Phys. 126, 124101 (2007)
        Ag, Au : Obtained from the Peterson Research Group Website (tyr0.chem.wsu.edu/~kipeters) Feb. 2017
                 K. A. Peterson, C. Puzzarini, Theor. Chem. Acc. 114, 283 (2005)

----- AuxC basis set information -----
Your calculation utilizes the auxiliary basis: cc-pVTZ/C 
  Obtained from the EMSL Basis Set Exchange (bse.pnl.gov) Feb. 2017
  H-He, B-F, Al-Ar, Ga-Kr : F. Weigend, A. Kohn, C. Hattig, J. Chem. Phys. 116, 3175 (2002)
             Li-Be, Na-Mg : C. Haettig, Phys. Chem. Chem. Phys. 7, 59 (2005)
                       Ne : C. Haettig, Phys. Chem. Chem. Phys. 7, 59 (2005)
                            F. Weigend, A. Kohn, C. Hattig, J. Chem. Phys. 116, 3175 (2002)
                    Sc-Zn : J. G. Hill, J. A. Platts, J. Chem. Phys. 128, 044104 (2008)

================================================================================
                                        WARNINGS
                       Please study these warnings very carefully!
================================================================================


WARNING: No MP2 level density has been requested!
         To caclulate MP2 level properties use
         %mp2 Density relaxed end
         or
         %mp2 Density unrelaxed end

WARNING: Post HF methods need fully converged wavefunctions
  ===> : Setting SCFConvForced true
         You can overwrite this default with %scf ConvForced false 


INFO   : the flag for use of the SHARK integral package has been found!

================================================================================
                                       INPUT FILE
================================================================================
NAME = qm_input.vacu
|  1> ! RI-MP2 cc-pVTZ cc-pVTZ/c TightSCF KeepDens NoKeepInts
|  2> 
|  3> *xyz  0  1
|  4>     C    -6.8818067    1.8166553    2.9756631
|  5>     C    -7.0735817    3.2354372    2.4707209
|  6>     O    -6.7899152    3.2709077    1.0774351
|  7>     C    -6.4123215    4.4862342    0.5608086
|  8>     O    -6.6969578    5.5850895    1.1131205
|  9>     C    -5.8733003    4.4532466   -0.8727088
| 10>     C    -5.2745172    5.5050585   -1.4073619
| 11>     C    -4.8862461    6.8116606   -0.8988065
| 12>     N    -4.7936132    5.3705742   -2.7528544
| 13>     C    -4.8106328    4.2248323   -3.4554428
| 14>     S    -4.2753549    4.1851910   -5.0291058
| 15>     N    -5.2421856    3.1198673   -2.8204690
| 16>     C    -5.9739543    3.0684755   -1.5539342
| 17>     C    -5.2787938    1.9609974   -0.7379917
| 18>     C    -5.7848755    0.6400349   -0.7181281
| 19>     C    -5.1074529   -0.3618166   -0.0828425
| 20>     C    -4.0027877   -0.0426036    0.7221745
| 21>     C    -3.5117521    1.2884412    0.7214507
| 22>     O    -2.5757419    1.6838333    1.6317316
| 23>     C    -4.1496039    2.3047136    0.0671121
| 24>     H    -5.8952926    1.3796060    2.7782550
| 25>     H    -7.7168892    1.2061944    2.6107462
| 26>     H    -7.0119902    1.8345879    4.0646668
| 27>     H    -8.0698179    3.6312574    2.7031553
| 28>     H    -6.2953505    3.8726697    2.9083058
| 29>     H    -4.0859475    7.2489691   -1.5082960
| 30>     H    -4.5820568    6.9199211    0.1494961
| 31>     H    -5.8007722    7.4144969   -0.9572879
| 32>     H    -4.3680913    6.1341926   -3.2645032
| 33>     H    -5.3315439    2.2684661   -3.3618540
| 34>     H    -7.0380379    2.8704904   -1.7320283
| 35>     H    -6.6633550    0.4043346   -1.3115233
| 36>     H    -5.4678073   -1.3861614   -0.0989718
| 37>     H    -3.5632526   -0.7645005    1.4041353
| 38>     H    -2.6388693    1.1260594    2.4264851
| 39>     H    -3.7695268    3.3175377   -0.0284134
| 40> *
| 41> 
| 42>                          ****END OF INPUT****
================================================================================

                       ****************************
                       * Single Point Calculation *
                       ****************************

---------------------------------
CARTESIAN COORDINATES (ANGSTROEM)
---------------------------------
  C     -6.881807    1.816655    2.975663
  C     -7.073582    3.235437    2.470721
  O     -6.789915    3.270908    1.077435
  C     -6.412322    4.486234    0.560809
  O     -6.696958    5.585089    1.113120
  C     -5.873300    4.453247   -0.872709
  C     -5.274517    5.505058   -1.407362
  C     -4.886246    6.811661   -0.898806
  N     -4.793613    5.370574   -2.752854
  C     -4.810633    4.224832   -3.455443
  S     -4.275355    4.185191   -5.029106
  N     -5.242186    3.119867   -2.820469
  C     -5.973954    3.068475   -1.553934
  C     -5.278794    1.960997   -0.737992
  C     -5.784876    0.640035   -0.718128
  C     -5.107453   -0.361817   -0.082842
  C     -4.002788   -0.042604    0.722175
  C     -3.511752    1.288441    0.721451
  O     -2.575742    1.683833    1.631732
  C     -4.149604    2.304714    0.067112
  H     -5.895293    1.379606    2.778255
  H     -7.716889    1.206194    2.610746
  H     -7.011990    1.834588    4.064667
  H     -8.069818    3.631257    2.703155
  H     -6.295350    3.872670    2.908306
  H     -4.085947    7.248969   -1.508296
  H     -4.582057    6.919921    0.149496
  H     -5.800772    7.414497   -0.957288
  H     -4.368091    6.134193   -3.264503
  H     -5.331544    2.268466   -3.361854
  H     -7.038038    2.870490   -1.732028
  H     -6.663355    0.404335   -1.311523
  H     -5.467807   -1.386161   -0.098972
  H     -3.563253   -0.764501    1.404135
  H     -2.638869    1.126059    2.426485
  H     -3.769527    3.317538   -0.028413

----------------------------
CARTESIAN COORDINATES (A.U.)
----------------------------
  NO LB      ZA    FRAG     MASS         X           Y           Z
   0 C     6.0000    0    12.011  -13.004730    3.432981    5.623188
   1 C     6.0000    0    12.011  -13.367132    6.114090    4.668986
   2 O     8.0000    0    15.999  -12.831080    6.181120    2.036057
   3 C     6.0000    0    12.011  -12.117532    8.477754    1.059775
   4 O     8.0000    0    15.999  -12.655416   10.554290    2.103493
   5 C     6.0000    0    12.011  -11.098929    8.415416   -1.649181
   6 C     6.0000    0    12.011   -9.967393   10.403053   -2.659529
   7 C     6.0000    0    12.011   -9.233667   12.872173   -1.698498
   8 N     7.0000    0    14.007   -9.058616   10.148914   -5.202141
   9 C     6.0000    0    12.011   -9.090779    7.983776   -6.529841
  10 S    16.0000    0    32.060   -8.079250    7.908865   -9.503633
  11 N     7.0000    0    14.007   -9.906295    5.895695   -5.329914
  12 C     6.0000    0    12.011  -11.289138    5.798578   -2.936510
  13 C     6.0000    0    12.011   -9.975475    3.705748   -1.394602
  14 C     6.0000    0    12.011  -10.931830    1.209491   -1.357065
  15 C     6.0000    0    12.011   -9.651687   -0.683734   -0.156550
  16 C     6.0000    0    12.011   -7.564173   -0.080509    1.364712
  17 C     6.0000    0    12.011   -6.636250    2.434801    1.363344
  18 O     8.0000    0    15.999   -4.867447    3.181984    3.083526
  19 C     6.0000    0    12.011   -7.841615    4.355278    0.126823
  20 H     1.0000    0     1.008  -11.140488    2.607078    5.250141
  21 H     1.0000    0     1.008  -14.582807    2.279377    4.933595
  22 H     1.0000    0     1.008  -13.250741    3.466869    7.681107
  23 H     1.0000    0     1.008  -15.249746    6.862082    5.108223
  24 H     1.0000    0     1.008  -11.896488    7.318285    5.495901
  25 H     1.0000    0     1.008   -7.721322   13.698566   -2.850266
  26 H     1.0000    0     1.008   -8.658832   13.076756    0.282507
  27 H     1.0000    0     1.008  -10.961871   14.011369   -1.809012
  28 H     1.0000    0     1.008   -8.254496   11.591944   -6.169017
  29 H     1.0000    0     1.008  -10.075158    4.286780   -6.352983
  30 H     1.0000    0     1.008  -13.299964    5.424441   -3.273059
  31 H     1.0000    0     1.008  -12.591916    0.764082   -2.478420
  32 H     1.0000    0     1.008  -10.332658   -2.619465   -0.187030
  33 H     1.0000    0     1.008   -6.733572   -1.444697    2.653431
  34 H     1.0000    0     1.008   -4.986740    2.127944    4.585392
  35 H     1.0000    0     1.008   -7.123373    6.269238   -0.053694

--------------------------------
INTERNAL COORDINATES (ANGSTROEM)
--------------------------------
 C      0   0   0     0.000000000000     0.00000000     0.00000000
 C      1   0   0     1.518119348317     0.00000000     0.00000000
 O      2   1   0     1.422311555207   108.90108082     0.00000000
 C      3   2   1     1.373498614628   116.44628858   204.13066579
 O      4   3   2     1.262358597427   122.93426003   337.44517893
 C      4   3   2     1.531862974259   115.44670035   169.51316207
 C      6   4   3     1.323141493253   121.34950834   191.28370025
 C      7   6   4     1.454851225964   133.90448545     4.60444946
 N      7   6   4     1.435167151143   117.12810850   179.45936455
 C      9   7   6     1.344114812066   124.45001351   354.14104676
 S     10   9   7     1.662681298524   120.72883349   177.93869852
 N     10   9   7     1.345502581603   117.21988425   356.22031682
 C     12  10   9     1.463638256885   126.69560292    14.79349596
 C     13  12  10     1.541271561421   104.94157085   225.68741925
 C     14  13  12     1.414727951263   121.13210503   263.71904521
 C     15  14  13     1.366087698726   120.92434428   174.66568657
 C     16  15  14     1.403650424340   119.35282492     9.37505287
 C     17  16  15     1.418730680560   119.04222295   352.00504516
 O     18  17  16     1.364207214521   120.60067449   170.16470798
 C     18  17  16     1.366683399041   122.43589274     6.47898833
 H      1   2   3     1.096901143255   115.22158522    55.58237614
 H      1   2   3     1.096900011916   108.25770788   286.93200322
 H      1   2   3     1.096903997818   107.45421923   174.68418902
 H      2   1   3     1.096898330394   112.42615742   125.13490537
 H      2   1   3     1.096899997455   108.70002776   247.79574713
 H      8   7   6     1.096902012007   111.01029913   157.85825621
 H      8   7   6     1.096900089918   119.78333035    32.62253321
 H      8   7   6     1.096900025675   104.62163742   277.74329954
 H      9   7   6     1.012900016161   122.93558221   176.56493990
 H     12  10   9     1.012900107299   117.79745736   175.04204075
 H     13  12  10     1.096899957182   110.53924525   103.32820056
 H     15  14  13     1.086001255397   118.96960205     1.63326542
 H     16  15  14     1.086000790610   121.35146215   182.62774355
 H     17  16  15     1.086000355018   121.83615649   167.04697669
 H     19  18  17     0.973000471693   109.53366070   334.29173971
 H     20  18  17     1.086000175247   124.90889170   185.26083204

---------------------------
INTERNAL COORDINATES (A.U.)
---------------------------
 C      0   0   0     0.000000000000     0.00000000     0.00000000
 C      1   0   0     2.868829806926     0.00000000     0.00000000
 O      2   1   0     2.687779316452   108.90108082     0.00000000
 C      3   2   1     2.595536226967   116.44628858   204.13066579
 O      4   3   2     2.385512031938   122.93426003   337.44517893
 C      4   3   2     2.894801496044   115.44670035   169.51316207
 C      6   4   3     2.500375058675   121.34950834   191.28370025
 C      7   6   4     2.749270382671   133.90448545     4.60444946
 N      7   6   4     2.712072872059   117.12810850   179.45936455
 C      9   7   6     2.540008887351   124.45001351   354.14104676
 S     10   9   7     3.142012302204   120.72883349   177.93869852
 N     10   9   7     2.542631391713   117.21988425   356.22031682
 C     12  10   9     2.765875464643   126.69560292    14.79349596
 C     13  12  10     2.912581149087   104.94157085   225.68741925
 C     14  13  12     2.673448381891   121.13210503   263.71904521
 C     15  14  13     2.581531625511   120.92434428   174.66568657
 C     16  15  14     2.652514889764   119.35282492     9.37505287
 C     17  16  15     2.681012444049   119.04222295   352.00504516
 O     18  17  16     2.577978025364   120.60067449   170.16470798
 C     18  17  16     2.582657335965   122.43589274     6.47898833
 H      1   2   3     2.072842756738   115.22158522    55.58237614
 H      1   2   3     2.072840618816   108.25770788   286.93200322
 H      1   2   3     2.072848151079   107.45421923   174.68418902
 H      2   1   3     2.072837441201   112.42615742   125.13490537
 H      2   1   3     2.072840591490   108.70002776   247.79574713
 H      8   7   6     2.072844398440   111.01029913   157.85825621
 H      8   7   6     2.072840766218   119.78333035    32.62253321
 H      8   7   6     2.072840644816   104.62163742   277.74329954
 H      9   7   6     1.914103631589   122.93558221   176.56493990
 H     12  10   9     1.914103803814   117.79745736   175.04204075
 H     13  12  10     2.072840515384   110.53924525   103.32820056
 H     15  14  13     2.052244953795   118.96960205     1.63326542
 H     16  15  14     2.052244075474   121.35146215   182.62774355
 H     17  16  15     2.052243252324   121.83615649   167.04697669
 H     19  18  17     1.838704419675   109.53366070   334.29173971
 H     20  18  17     2.052242912606   124.90889170   185.26083204

---------------------
BASIS SET INFORMATION
---------------------
There are 5 groups of distinct atoms

 Group   1 Type C   : 18s5p2d1f contracted to 4s3p2d1f pattern {8811/311/11/1}
 Group   2 Type O   : 18s5p2d1f contracted to 4s3p2d1f pattern {8811/311/11/1}
 Group   3 Type N   : 18s5p2d1f contracted to 4s3p2d1f pattern {8811/311/11/1}
 Group   4 Type S   : 41s16p2d1f contracted to 5s4p2d1f pattern {13131311/7711/11/1}
 Group   5 Type H   : 5s2p1d contracted to 3s2p1d pattern {311/11/1}

Atom   0C    basis set group =>   1
Atom   1C    basis set group =>   1
Atom   2O    basis set group =>   2
Atom   3C    basis set group =>   1
Atom   4O    basis set group =>   2
Atom   5C    basis set group =>   1
Atom   6C    basis set group =>   1
Atom   7C    basis set group =>   1
Atom   8N    basis set group =>   3
Atom   9C    basis set group =>   1
Atom  10S    basis set group =>   4
Atom  11N    basis set group =>   3
Atom  12C    basis set group =>   1
Atom  13C    basis set group =>   1
Atom  14C    basis set group =>   1
Atom  15C    basis set group =>   1
Atom  16C    basis set group =>   1
Atom  17C    basis set group =>   1
Atom  18O    basis set group =>   2
Atom  19C    basis set group =>   1
Atom  20H    basis set group =>   5
Atom  21H    basis set group =>   5
Atom  22H    basis set group =>   5
Atom  23H    basis set group =>   5
Atom  24H    basis set group =>   5
Atom  25H    basis set group =>   5
Atom  26H    basis set group =>   5
Atom  27H    basis set group =>   5
Atom  28H    basis set group =>   5
Atom  29H    basis set group =>   5
Atom  30H    basis set group =>   5
Atom  31H    basis set group =>   5
Atom  32H    basis set group =>   5
Atom  33H    basis set group =>   5
Atom  34H    basis set group =>   5
Atom  35H    basis set group =>   5
---------------------------------
AUXILIARY/C BASIS SET INFORMATION
---------------------------------
There are 5 groups of distinct atoms

 Group   1 Type C   : 8s6p5d3f1g contracted to 8s6p5d3f1g pattern {11111111/111111/11111/111/1}
 Group   2 Type O   : 8s6p5d3f1g contracted to 8s6p5d3f1g pattern {11111111/111111/11111/111/1}
 Group   3 Type N   : 8s6p5d3f1g contracted to 8s6p5d3f1g pattern {11111111/111111/11111/111/1}
 Group   4 Type S   : 10s8p7d5f2g contracted to 10s8p7d5f2g pattern {1111111111/11111111/1111111/11111/11}
 Group   5 Type H   : 4s3p2d1f contracted to 4s3p2d1f pattern {1111/111/11/1}

Atom   0C    basis set group =>   1
Atom   1C    basis set group =>   1
Atom   2O    basis set group =>   2
Atom   3C    basis set group =>   1
Atom   4O    basis set group =>   2
Atom   5C    basis set group =>   1
Atom   6C    basis set group =>   1
Atom   7C    basis set group =>   1
Atom   8N    basis set group =>   3
Atom   9C    basis set group =>   1
Atom  10S    basis set group =>   4
Atom  11N    basis set group =>   3
Atom  12C    basis set group =>   1
Atom  13C    basis set group =>   1
Atom  14C    basis set group =>   1
Atom  15C    basis set group =>   1
Atom  16C    basis set group =>   1
Atom  17C    basis set group =>   1
Atom  18O    basis set group =>   2
Atom  19C    basis set group =>   1
Atom  20H    basis set group =>   5
Atom  21H    basis set group =>   5
Atom  22H    basis set group =>   5
Atom  23H    basis set group =>   5
Atom  24H    basis set group =>   5
Atom  25H    basis set group =>   5
Atom  26H    basis set group =>   5
Atom  27H    basis set group =>   5
Atom  28H    basis set group =>   5
Atom  29H    basis set group =>   5
Atom  30H    basis set group =>   5
Atom  31H    basis set group =>   5
Atom  32H    basis set group =>   5
Atom  33H    basis set group =>   5
Atom  34H    basis set group =>   5
Atom  35H    basis set group =>   5
------------------------------------------------------------------------------
                           ORCA GTO INTEGRAL CALCULATION
------------------------------------------------------------------------------
------------------------------------------------------------------------------
                   ___                                                        
                  /   \      - P O W E R E D   B Y -                         
                 /     \                                                     
                 |  |  |   _    _      __       _____    __    __             
                 |  |  |  | |  | |    /  \     |  _  \  |  |  /  |          
                  \  \/   | |  | |   /    \    | | | |  |  | /  /          
                 / \  \   | |__| |  /  /\  \   | |_| |  |  |/  /          
                |  |  |   |  __  | /  /__\  \  |    /   |      \           
                |  |  |   | |  | | |   __   |  |    \   |  |\   \          
                \     /   | |  | | |  |  |  |  | |\  \  |  | \   \       
                 \___/    |_|  |_| |__|  |__|  |_| \__\ |__|  \__/        
                                                                              
                      - O R C A' S   B I G   F R I E N D -                    
                                      &                                       
                       - I N T E G R A L  F E E D E R -                       
                                                                              
 v1 FN, 2020, v2 2021                                                         
------------------------------------------------------------------------------


Reading SHARK input file qm_input.vacu.SHARKINP.tmp ... ok
----------------------
SHARK INTEGRAL PACKAGE
----------------------

Number of atoms                             ...     36
Number of basis functions                   ...    828
Number of shells                            ...    298
Maximum angular momentum                    ...      3
Integral batch strategy                     ... SHARK/LIBINT Hybrid
RI-J (if used) integral strategy            ... SPLIT-RIJ (Revised 2003 algorithm where possible)
Printlevel                                  ...      1
Contraction scheme used                     ... SEGMENTED contraction
Coulomb Range Separation                    ... NOT USED
Exchange Range Separation                   ... NOT USED
Finite Nucleus Model                        ... NOT USED
Auxiliary Coulomb fitting basis             ... NOT available
Auxiliary J/K fitting basis                 ... NOT available
Auxiliary Correlation fitting basis         ... AVAILABLE
   # of basis functions in Aux-C            ...   2141
   # of shells in Aux-C                     ...    629
   Maximum angular momentum in Aux-C        ...      4
Auxiliary 'external' fitting basis          ... NOT available
Integral threshold                          ...     2.500000e-11
Primitive cut-off                           ...     2.500000e-12
Primitive pair pre-selection threshold      ...     2.500000e-12

Calculating pre-screening integrals         ... done (  0.6 sec) Dimension = 298
Organizing shell pair data                  ... done (  0.4 sec)
Shell pair information
Total number of shell pairs                 ...     44551
Shell pairs after pre-screening             ...     33869
Total number of primitive shell pairs       ...    234348
Primitive shell pairs kept                  ...     97289
          la=0 lb=0:   6764 shell pairs
          la=1 lb=0:   9396 shell pairs
          la=1 lb=1:   3327 shell pairs
          la=2 lb=0:   5410 shell pairs
          la=2 lb=1:   3709 shell pairs
          la=2 lb=2:   1049 shell pairs
          la=3 lb=0:   1955 shell pairs
          la=3 lb=1:   1345 shell pairs
          la=3 lb=2:    760 shell pairs
          la=3 lb=3:    154 shell pairs

Calculating one electron integrals          ... done (  0.4 sec)
Calculating RI/C V-Matrix + Cholesky decomp.... done (  0.4 sec)
Calculating Nuclear repulsion               ... done (  0.0 sec) ENN=   1722.495548901411 Eh

SHARK setup successfully completed in   2.0 seconds

Maximum memory used throughout the entire GTOINT-calculation: 503.5 MB
-------------------------------------------------------------------------------
                                 ORCA SCF
-------------------------------------------------------------------------------

------------
SCF SETTINGS
------------
Hamiltonian:
 Ab initio Hamiltonian  Method          .... Hartree-Fock(GTOs)


General Settings:
 Integral files         IntName         .... qm_input.vacu
 Hartree-Fock type      HFTyp           .... RHF
 Total Charge           Charge          ....    0
 Multiplicity           Mult            ....    1
 Number of Electrons    NEL             ....  154
 Basis Dimension        Dim             ....  828
 Nuclear Repulsion      ENuc            ....   1722.4955489014 Eh

Convergence Acceleration:
 DIIS                   CNVDIIS         .... on
   Start iteration      DIISMaxIt       ....    12
   Startup error        DIISStart       ....  0.200000
   # of expansion vecs  DIISMaxEq       ....     5
   Bias factor          DIISBfac        ....   1.050
   Max. coefficient     DIISMaxC        ....  10.000
 Trust-Rad. Augm. Hess. CNVTRAH         .... auto
   Auto Start mean grad. ratio tolernc. ....  1.125000
   Auto Start start iteration           ....    20
   Auto Start num. interpolation iter.  ....    10
   Max. Number of Micro iterations      ....    16
   Max. Number of Macro iterations      .... Maxiter - #DIIS iter
   Number of Davidson start vectors     ....     2
   Converg. threshold I  (grad. norm)   ....   1.000e-05
   Converg. threshold II (energy diff.) ....   1.000e-08
   Grad. Scal. Fac. for Micro threshold ....   0.100
   Minimum threshold for Micro iter.    ....   0.010
   NR start threshold (gradient norm)   ....   0.001
   Initial trust radius                 ....   0.400
   Minimum AH scaling param. (alpha)    ....   1.000
   Maximum AH scaling param. (alpha)    .... 1000.000
   Orbital update algorithm             .... Taylor
   White noise on init. David. guess    .... on
   Maximum white noise                  ....   0.010
   Quad. conv. algorithm                .... NR
 SOSCF                  CNVSOSCF        .... on
   Start iteration      SOSCFMaxIt      ....   150
   Startup grad/error   SOSCFStart      ....  0.003300
 Level Shifting         CNVShift        .... on
   Level shift para.    LevelShift      ....    0.2500
   Turn off err/grad.   ShiftErr        ....    0.0010
 Zerner damping         CNVZerner       .... off
 Static damping         CNVDamp         .... on
   Fraction old density DampFac         ....    0.7000
   Max. Damping (<1)    DampMax         ....    0.9800
   Min. Damping (>=0)   DampMin         ....    0.0000
   Turn off err/grad.   DampErr         ....    0.1000
 Fernandez-Rico         CNVRico         .... off

SCF Procedure:
 Maximum # iterations   MaxIter         ....   125
 SCF integral mode      SCFMode         .... Direct
   Integral package                     .... SHARK and LIBINT hybrid scheme
 Reset frequency        DirectResetFreq ....    20
 Integral Threshold     Thresh          ....  2.500e-11 Eh
 Primitive CutOff       TCut            ....  2.500e-12 Eh

Convergence Tolerance:
 Convergence Check Mode ConvCheckMode   .... Total+1el-Energy
 Convergence forced     ConvForced      .... 1
 Energy Change          TolE            ....  1.000e-08 Eh
 1-El. energy change                    ....  1.000e-05 Eh
 Orbital Gradient       TolG            ....  1.000e-05
 Orbital Rotation angle TolX            ....  1.000e-05
 DIIS Error             TolErr          ....  5.000e-07


Diagonalization of the overlap matrix:
Smallest eigenvalue                        ... 4.334e-05
Time for diagonalization                   ...    0.157 sec
Threshold for overlap eigenvalues          ... 1.000e-08
Number of eigenvalues below threshold      ... 0
Time for construction of square roots      ...    0.065 sec
Total time needed                          ...    0.225 sec

Time for model grid setup =    1.760 sec

------------------------------
INITIAL GUESS: MODEL POTENTIAL
------------------------------
Loading Hartree-Fock densities                     ... done
Calculating cut-offs                               ... done
Initializing the effective Hamiltonian             ... done
Setting up the integral package (SHARK)            ... done
Starting the Coulomb interaction                   ... done (   4.7 sec)
Reading the grid                                   ... done
Mapping shells                                     ... done
Starting the XC term evaluation                    ... done (   2.0 sec)
Transforming the Hamiltonian                       ... done (   0.1 sec)
Diagonalizing the Hamiltonian                      ... done (   0.2 sec)
Back transforming the eigenvectors                 ... done (   0.0 sec)
Now organizing SCF variables                       ... done
                      ------------------
                      INITIAL GUESS DONE (   8.7 sec)
                      ------------------
--------------
SCF ITERATIONS
--------------
ITER       Energy         Delta-E        Max-DP      RMS-DP      [F,P]     Damp
               ***  Starting incremental Fock matrix formation  ***
  0  -1269.9578548434   0.000000000000 0.07612420  0.00048651  0.3263484 0.7000
  1  -1270.2329847200  -0.275129876588 0.07127041  0.00040489  0.1922793 0.7000
                               ***Turning on DIIS***
  2  -1270.4032728131  -0.170288093074 0.03848121  0.00026126  0.1103309 0.7000
  3  -1272.5396454103  -2.136372597241 0.06326563  0.00051728  0.0833680 0.0000
  4  -1270.7200318709   1.819613539423 0.03126782  0.00012929  0.0077533 0.0000
  5  -1270.7805878262  -0.060555955245 0.01265490  0.00006114  0.0046405 0.0000
  6  -1270.7562200198   0.024367806383 0.00463858  0.00002921  0.0038059 0.0000
                      *** Initiating the SOSCF procedure ***
                           *** Shutting down DIIS ***
                      *** Re-Reading the Fockian *** 
                      *** Removing any level shift *** 
ITER      Energy       Delta-E        Grad      Rot      Max-DP    RMS-DP
  7  -1270.77267279  -0.0164527711  0.001007  0.001007  0.002151  0.000016
               *** Restarting incremental Fock matrix formation ***
  8  -1270.77241202   0.0002607706  0.000533  0.001356  0.000846  0.000009
  9  -1270.77242571  -0.0000136849  0.000233  0.001466  0.000837  0.000010
 10  -1270.77243127  -0.0000055672  0.000085  0.000137  0.000172  0.000002
 11  -1270.77243174  -0.0000004683  0.000046  0.000073  0.000072  0.000001
 12  -1270.77243186  -0.0000001184  0.000010  0.000031  0.000046  0.000000
 13  -1270.77243188  -0.0000000189  0.000007  0.000028  0.000013  0.000000
                  ***Gradient check signals convergence***
              ***Rediagonalizing the Fockian in SOSCF/NRSCF***

               *****************************************************
               *                     SUCCESS                       *
               *           SCF CONVERGED AFTER  14 CYCLES          *
               *****************************************************


----------------
TOTAL SCF ENERGY
----------------

Total Energy       :        -1270.77243189 Eh          -34579.47586 eV

Components:
Nuclear Repulsion  :         1722.49554890 Eh           46871.48679 eV
Electronic Energy  :        -2993.26798079 Eh          -81450.96264 eV
One Electron Energy:        -5165.97583192 Eh         -140573.34900 eV
Two Electron Energy:         2172.70785114 Eh           59122.38635 eV

Virial components:
Potential Energy   :        -2539.98688616 Eh          -69116.55699 eV
Kinetic Energy     :         1269.21445428 Eh           34537.08113 eV
Virial Ratio       :            2.00122751


---------------
SCF CONVERGENCE
---------------

  Last Energy change         ...   -8.4274e-09  Tolerance :   1.0000e-08
  Last MAX-Density change    ...    4.6618e-06  Tolerance :   1.0000e-07
  Last RMS-Density change    ...    4.6917e-08  Tolerance :   5.0000e-09
  Last Orbital Gradient      ...    1.7138e-06  Tolerance :   1.0000e-05
  Last Orbital Rotation      ...    6.0281e-06  Tolerance :   1.0000e-05

             **** THE GBW FILE WAS UPDATED (qm_input.vacu.gbw) ****
             **** DENSITY qm_input.vacu.scfp WAS UPDATED ****
             **** ENERGY FILE WAS UPDATED (qm_input.vacu.en.tmp) ****
             **** THE GBW FILE WAS UPDATED (qm_input.vacu.gbw) ****
             **** DENSITY qm_input.vacu.scfp WAS UPDATED ****
----------------
ORBITAL ENERGIES
----------------

  NO   OCC          E(Eh)            E(eV) 
   0   2.0000     -91.881550     -2500.2241 
   1   2.0000     -20.610099      -560.8293 
   2   2.0000     -20.590038      -560.2834 
   3   2.0000     -20.547688      -559.1310 
   4   2.0000     -15.621506      -425.0828 
   5   2.0000     -15.607016      -424.6885 
   6   2.0000     -11.405937      -310.3713 
   7   2.0000     -11.375506      -309.5433 
   8   2.0000     -11.332609      -308.3760 
   9   2.0000     -11.315669      -307.9150 
  10   2.0000     -11.311040      -307.7890 
  11   2.0000     -11.295782      -307.3738 
  12   2.0000     -11.268737      -306.6379 
  13   2.0000     -11.265741      -306.5564 
  14   2.0000     -11.253751      -306.2301 
  15   2.0000     -11.251367      -306.1653 
  16   2.0000     -11.245798      -306.0137 
  17   2.0000     -11.238800      -305.8233 
  18   2.0000     -11.237544      -305.7891 
  19   2.0000     -11.231327      -305.6200 
  20   2.0000      -8.886618      -241.8172 
  21   2.0000      -6.568223      -178.7304 
  22   2.0000      -6.566166      -178.6745 
  23   2.0000      -6.565639      -178.6601 
  24   2.0000      -1.451765       -39.5045 
  25   2.0000      -1.408693       -38.3325 
  26   2.0000      -1.346989       -36.6534 
  27   2.0000      -1.341573       -36.5061 
  28   2.0000      -1.242794       -33.8181 
  29   2.0000      -1.163099       -31.6495 
  30   2.0000      -1.130568       -30.7643 
  31   2.0000      -1.052632       -28.6436 
  32   2.0000      -1.042099       -28.3570 
  33   2.0000      -1.024895       -27.8888 
  34   2.0000      -1.005874       -27.3712 
  35   2.0000      -0.978686       -26.6314 
  36   2.0000      -0.928040       -25.2533 
  37   2.0000      -0.890755       -24.2387 
  38   2.0000      -0.845509       -23.0075 
  39   2.0000      -0.839904       -22.8549 
  40   2.0000      -0.832770       -22.6608 
  41   2.0000      -0.815297       -22.1854 
  42   2.0000      -0.768065       -20.9001 
  43   2.0000      -0.732641       -19.9362 
  44   2.0000      -0.731025       -19.8922 
  45   2.0000      -0.700236       -19.0544 
  46   2.0000      -0.689743       -18.7689 
  47   2.0000      -0.686004       -18.6671 
  48   2.0000      -0.674928       -18.3657 
  49   2.0000      -0.665054       -18.0971 
  50   2.0000      -0.652745       -17.7621 
  51   2.0000      -0.646541       -17.5933 
  52   2.0000      -0.636493       -17.3199 
  53   2.0000      -0.625645       -17.0247 
  54   2.0000      -0.605829       -16.4855 
  55   2.0000      -0.601183       -16.3590 
  56   2.0000      -0.589903       -16.0521 
  57   2.0000      -0.582606       -15.8535 
  58   2.0000      -0.572301       -15.5731 
  59   2.0000      -0.569640       -15.5007 
  60   2.0000      -0.562268       -15.3001 
  61   2.0000      -0.547552       -14.8996 
  62   2.0000      -0.537060       -14.6141 
  63   2.0000      -0.529403       -14.4058 
  64   2.0000      -0.524719       -14.2783 
  65   2.0000      -0.506068       -13.7708 
  66   2.0000      -0.501785       -13.6543 
  67   2.0000      -0.496794       -13.5185 
  68   2.0000      -0.482844       -13.1388 
  69   2.0000      -0.464033       -12.6270 
  70   2.0000      -0.457414       -12.4469 
  71   2.0000      -0.448525       -12.2050 
  72   2.0000      -0.362407        -9.8616 
  73   2.0000      -0.346915        -9.4400 
  74   2.0000      -0.330801        -9.0016 
  75   2.0000      -0.321129        -8.7384 
  76   2.0000      -0.313648        -8.5348 
  77   0.0000       0.079454         2.1621 
  78   0.0000       0.098946         2.6925 
  79   0.0000       0.114390         3.1127 
  80   0.0000       0.125437         3.4133 
  81   0.0000       0.133359         3.6289 
  82   0.0000       0.137925         3.7531 
  83   0.0000       0.149845         4.0775 
  84   0.0000       0.156728         4.2648 
  85   0.0000       0.162604         4.4247 
  86   0.0000       0.165737         4.5099 
  87   0.0000       0.185309         5.0425 
  88   0.0000       0.190057         5.1717 
  89   0.0000       0.194220         5.2850 
  90   0.0000       0.198093         5.3904 
  91   0.0000       0.203800         5.5457 
  92   0.0000       0.204386         5.5616 
  93   0.0000       0.214564         5.8386 
  94   0.0000       0.223191         6.0733 
  95   0.0000       0.229585         6.2473 
  96   0.0000       0.246543         6.7088 
  97   0.0000       0.251275         6.8375 
  98   0.0000       0.255704         6.9581 
  99   0.0000       0.269754         7.3404 
 100   0.0000       0.295550         8.0423 
 101   0.0000       0.299676         8.1546 
 102   0.0000       0.305330         8.3084 
 103   0.0000       0.307976         8.3805 
 104   0.0000       0.321647         8.7525 
 105   0.0000       0.324683         8.8351 
 106   0.0000       0.331991         9.0339 
 107   0.0000       0.343470         9.3463 
 108   0.0000       0.350459         9.5365 
 109   0.0000       0.355347         9.6695 
 110   0.0000       0.373879        10.1738 
 111   0.0000       0.377660        10.2767 
 112   0.0000       0.384657        10.4670 
 113   0.0000       0.395926        10.7737 
 114   0.0000       0.405890        11.0448 
 115   0.0000       0.408444        11.1143 
 116   0.0000       0.421887        11.4801 
 117   0.0000       0.422935        11.5087 
 118   0.0000       0.429877        11.6975 
 119   0.0000       0.437708        11.9106 
 120   0.0000       0.442283        12.0351 
 121   0.0000       0.444261        12.0890 
 122   0.0000       0.449370        12.2280 
 123   0.0000       0.460581        12.5330 
 124   0.0000       0.461856        12.5678 
 125   0.0000       0.466731        12.7004 
 126   0.0000       0.481660        13.1066 
 127   0.0000       0.483320        13.1518 
 128   0.0000       0.485791        13.2191 
 129   0.0000       0.492648        13.4056 
 130   0.0000       0.501985        13.6597 
 131   0.0000       0.504800        13.7363 
 132   0.0000       0.518943        14.1211 
 133   0.0000       0.522306        14.2127 
 134   0.0000       0.526091        14.3157 
 135   0.0000       0.535315        14.5666 
 136   0.0000       0.537074        14.6145 
 137   0.0000       0.544289        14.8109 
 138   0.0000       0.552200        15.0261 
 139   0.0000       0.554217        15.0810 
 140   0.0000       0.558391        15.1946 
 141   0.0000       0.560607        15.2549 
 142   0.0000       0.566169        15.4063 
 143   0.0000       0.568950        15.4819 
 144   0.0000       0.575816        15.6688 
 145   0.0000       0.580255        15.7895 
 146   0.0000       0.584397        15.9023 
 147   0.0000       0.589359        16.0373 
 148   0.0000       0.592129        16.1126 
 149   0.0000       0.596637        16.2353 
 150   0.0000       0.603937        16.4340 
 151   0.0000       0.608255        16.5515 
 152   0.0000       0.610222        16.6050 
 153   0.0000       0.611725        16.6459 
 154   0.0000       0.616743        16.7824 
 155   0.0000       0.620937        16.8966 
 156   0.0000       0.628920        17.1138 
 157   0.0000       0.632576        17.2133 
 158   0.0000       0.633533        17.2393 
 159   0.0000       0.642751        17.4901 
 160   0.0000       0.646540        17.5933 
 161   0.0000       0.653518        17.7831 
 162   0.0000       0.658794        17.9267 
 163   0.0000       0.660297        17.9676 
 164   0.0000       0.667351        18.1595 
 165   0.0000       0.674398        18.3513 
 166   0.0000       0.676829        18.4174 
 167   0.0000       0.679950        18.5024 
 168   0.0000       0.684176        18.6174 
 169   0.0000       0.692734        18.8503 
 170   0.0000       0.701734        19.0951 
 171   0.0000       0.706889        19.2354 
 172   0.0000       0.709207        19.2985 
 173   0.0000       0.717629        19.5277 
 174   0.0000       0.721659        19.6373 
 175   0.0000       0.737455        20.0672 
 176   0.0000       0.740886        20.1605 
 177   0.0000       0.742171        20.1955 
 178   0.0000       0.746760        20.3204 
 179   0.0000       0.762502        20.7487 
 180   0.0000       0.764427        20.8011 
 181   0.0000       0.775634        21.1061 
 182   0.0000       0.782818        21.3016 
 183   0.0000       0.788167        21.4471 
 184   0.0000       0.799537        21.7565 
 185   0.0000       0.803316        21.8593 
 186   0.0000       0.811735        22.0884 
 187   0.0000       0.817670        22.2499 
 188   0.0000       0.823084        22.3972 
 189   0.0000       0.827913        22.5287 
 190   0.0000       0.838699        22.8222 
 191   0.0000       0.842572        22.9276 
 192   0.0000       0.848392        23.0859 
 193   0.0000       0.855625        23.2827 
 194   0.0000       0.858894        23.3717 
 195   0.0000       0.879394        23.9295 
 196   0.0000       0.884887        24.0790 
 197   0.0000       0.897613        24.4253 
 198   0.0000       0.904953        24.6250 
 199   0.0000       0.912635        24.8341 
 200   0.0000       0.921675        25.0800 
 201   0.0000       0.927631        25.2421 
 202   0.0000       0.929823        25.3018 
 203   0.0000       0.935306        25.4510 
 204   0.0000       0.936064        25.4716 
 205   0.0000       0.940280        25.5863 
 206   0.0000       0.955022        25.9875 
 207   0.0000       0.971129        26.4258 
 208   0.0000       0.974252        26.5107 
 209   0.0000       0.977834        26.6082 
 210   0.0000       0.984266        26.7832 
 211   0.0000       0.986065        26.8322 
 212   0.0000       0.995197        27.0807 
 213   0.0000       1.002649        27.2835 
 214   0.0000       1.016195        27.6521 
 215   0.0000       1.021994        27.8099 
 216   0.0000       1.027623        27.9630 
 217   0.0000       1.031929        28.0802 
 218   0.0000       1.038817        28.2676 
 219   0.0000       1.045843        28.4588 
 220   0.0000       1.053839        28.6764 
 221   0.0000       1.055395        28.7188 
 222   0.0000       1.062212        28.9043 
 223   0.0000       1.076933        29.3048 
 224   0.0000       1.081764        29.4363 
 225   0.0000       1.086634        29.5688 
 226   0.0000       1.090717        29.6799 
 227   0.0000       1.108111        30.1532 
 228   0.0000       1.116846        30.3909 
 229   0.0000       1.123271        30.5658 
 230   0.0000       1.126303        30.6483 
 231   0.0000       1.138101        30.9693 
 232   0.0000       1.139286        31.0015 
 233   0.0000       1.151513        31.3343 
 234   0.0000       1.160305        31.5735 
 235   0.0000       1.163888        31.6710 
 236   0.0000       1.168789        31.8044 
 237   0.0000       1.177938        32.0533 
 238   0.0000       1.182547        32.1787 
 239   0.0000       1.188509        32.3410 
 240   0.0000       1.200246        32.6604 
 241   0.0000       1.208201        32.8768 
 242   0.0000       1.215536        33.0764 
 243   0.0000       1.223018        33.2800 
 244   0.0000       1.227150        33.3924 
 245   0.0000       1.234121        33.5821 
 246   0.0000       1.238578        33.7034 
 247   0.0000       1.240093        33.7446 
 248   0.0000       1.250548        34.0291 
 249   0.0000       1.259264        34.2663 
 250   0.0000       1.270648        34.5761 
 251   0.0000       1.276935        34.7472 
 252   0.0000       1.285071        34.9686 
 253   0.0000       1.290780        35.1239 
 254   0.0000       1.291816        35.1521 
 255   0.0000       1.299906        35.3722 
 256   0.0000       1.310222        35.6530 
 257   0.0000       1.318098        35.8673 
 258   0.0000       1.331755        36.2389 
 259   0.0000       1.335904        36.3518 
 260   0.0000       1.354924        36.8694 
 261   0.0000       1.362605        37.0784 
 262   0.0000       1.367967        37.2243 
 263   0.0000       1.377278        37.4776 
 264   0.0000       1.379081        37.5267 
 265   0.0000       1.381359        37.5887 
 266   0.0000       1.394252        37.9395 
 267   0.0000       1.402162        38.1548 
 268   0.0000       1.412886        38.4466 
 269   0.0000       1.414441        38.4889 
 270   0.0000       1.420361        38.6500 
 271   0.0000       1.426306        38.8118 
 272   0.0000       1.436419        39.0870 
 273   0.0000       1.447794        39.3965 
 274   0.0000       1.455393        39.6033 
 275   0.0000       1.460379        39.7389 
 276   0.0000       1.462152        39.7872 
 277   0.0000       1.473664        40.1004 
 278   0.0000       1.482795        40.3489 
 279   0.0000       1.493269        40.6339 
 280   0.0000       1.496122        40.7115 
 281   0.0000       1.504911        40.9507 
 282   0.0000       1.510429        41.1009 
 283   0.0000       1.518804        41.3288 
 284   0.0000       1.526027        41.5253 
 285   0.0000       1.529190        41.6114 
 286   0.0000       1.536586        41.8126 
 287   0.0000       1.537111        41.8269 
 288   0.0000       1.547189        42.1012 
 289   0.0000       1.552472        42.2449 
 290   0.0000       1.555840        42.3366 
 291   0.0000       1.562243        42.5108 
 292   0.0000       1.575891        42.8822 
 293   0.0000       1.578839        42.9624 
 294   0.0000       1.580496        43.0075 
 295   0.0000       1.592849        43.3436 
 296   0.0000       1.598214        43.4896 
 297   0.0000       1.604526        43.6614 
 298   0.0000       1.615150        43.9505 
 299   0.0000       1.621611        44.1263 
 300   0.0000       1.635370        44.5007 
 301   0.0000       1.644641        44.7530 
 302   0.0000       1.653301        44.9886 
 303   0.0000       1.662808        45.2473 
 304   0.0000       1.673876        45.5485 
 305   0.0000       1.682357        45.7793 
 306   0.0000       1.691340        46.0237 
 307   0.0000       1.701700        46.3056 
 308   0.0000       1.707234        46.4562 
 309   0.0000       1.713920        46.6381 
 310   0.0000       1.717783        46.7433 
 311   0.0000       1.725334        46.9487 
 312   0.0000       1.735896        47.2361 
 313   0.0000       1.748078        47.5676 
 314   0.0000       1.763748        47.9940 
 315   0.0000       1.768382        48.1201 
 316   0.0000       1.775103        48.3030 
 317   0.0000       1.794466        48.8299 
 318   0.0000       1.798673        48.9444 
 319   0.0000       1.805375        49.1267 
 320   0.0000       1.809480        49.2385 
 321   0.0000       1.839430        50.0534 
 322   0.0000       1.846444        50.2443 
 323   0.0000       1.861209        50.6461 
 324   0.0000       1.865849        50.7723 
 325   0.0000       1.867822        50.8260 
 326   0.0000       1.887021        51.3484 
 327   0.0000       1.890102        51.4323 
 328   0.0000       1.894864        51.5619 
 329   0.0000       1.909723        51.9662 
 330   0.0000       1.921394        52.2838 
 331   0.0000       1.926669        52.4273 
 332   0.0000       1.940742        52.8103 
 333   0.0000       1.952138        53.1204 
 334   0.0000       1.962149        53.3928 
 335   0.0000       1.981699        53.9248 
 336   0.0000       1.991608        54.1944 
 337   0.0000       1.998427        54.3800 
 338   0.0000       2.006131        54.5896 
 339   0.0000       2.012883        54.7733 
 340   0.0000       2.022696        55.0404 
 341   0.0000       2.028557        55.1998 
 342   0.0000       2.050190        55.7885 
 343   0.0000       2.060544        56.0702 
 344   0.0000       2.071787        56.3762 
 345   0.0000       2.095067        57.0097 
 346   0.0000       2.100833        57.1666 
 347   0.0000       2.122592        57.7587 
 348   0.0000       2.140561        58.2476 
 349   0.0000       2.151203        58.5372 
 350   0.0000       2.171749        59.0963 
 351   0.0000       2.190645        59.6105 
 352   0.0000       2.216325        60.3093 
 353   0.0000       2.236450        60.8569 
 354   0.0000       2.238639        60.9165 
 355   0.0000       2.257869        61.4397 
 356   0.0000       2.281717        62.0887 
 357   0.0000       2.290202        62.3196 
 358   0.0000       2.299672        62.5772 
 359   0.0000       2.308084        62.8062 
 360   0.0000       2.317831        63.0714 
 361   0.0000       2.329267        63.3826 
 362   0.0000       2.341805        63.7238 
 363   0.0000       2.347342        63.8744 
 364   0.0000       2.362402        64.2842 
 365   0.0000       2.374253        64.6067 
 366   0.0000       2.379569        64.7514 
 367   0.0000       2.393503        65.1305 
 368   0.0000       2.398150        65.2570 
 369   0.0000       2.423517        65.9472 
 370   0.0000       2.437200        66.3196 
 371   0.0000       2.441322        66.4317 
 372   0.0000       2.465955        67.1021 
 373   0.0000       2.475841        67.3711 
 374   0.0000       2.491617        67.8003 
 375   0.0000       2.504907        68.1620 
 376   0.0000       2.515006        68.4368 
 377   0.0000       2.521745        68.6202 
 378   0.0000       2.542547        69.1862 
 379   0.0000       2.549136        69.3655 
 380   0.0000       2.558496        69.6202 
 381   0.0000       2.570616        69.9500 
 382   0.0000       2.583155        70.2912 
 383   0.0000       2.602685        70.8227 
 384   0.0000       2.609701        71.0136 
 385   0.0000       2.641423        71.8768 
 386   0.0000       2.655686        72.2649 
 387   0.0000       2.656711        72.2928 
 388   0.0000       2.660324        72.3911 
 389   0.0000       2.681756        72.9743 
 390   0.0000       2.688446        73.1563 
 391   0.0000       2.694144        73.3114 
 392   0.0000       2.699770        73.4645 
 393   0.0000       2.715886        73.9030 
 394   0.0000       2.717431        73.9451 
 395   0.0000       2.740304        74.5675 
 396   0.0000       2.749176        74.8089 
 397   0.0000       2.754410        74.9513 
 398   0.0000       2.760482        75.1165 
 399   0.0000       2.766897        75.2911 
 400   0.0000       2.783719        75.7488 
 401   0.0000       2.785381        75.7941 
 402   0.0000       2.795994        76.0829 
 403   0.0000       2.811398        76.5020 
 404   0.0000       2.813709        76.5649 
 405   0.0000       2.822024        76.7912 
 406   0.0000       2.837746        77.2190 
 407   0.0000       2.842122        77.3381 
 408   0.0000       2.851880        77.6036 
 409   0.0000       2.857836        77.7657 
 410   0.0000       2.870440        78.1086 
 411   0.0000       2.880763        78.3895 
 412   0.0000       2.892980        78.7220 
 413   0.0000       2.902917        78.9924 
 414   0.0000       2.916681        79.3669 
 415   0.0000       2.922996        79.5388 
 416   0.0000       2.927227        79.6539 
 417   0.0000       2.939304        79.9825 
 418   0.0000       2.942714        80.0753 
 419   0.0000       2.949740        80.2665 
 420   0.0000       2.967704        80.7553 
 421   0.0000       2.974150        80.9307 
 422   0.0000       2.978016        81.0359 
 423   0.0000       2.999449        81.6192 
 424   0.0000       3.011090        81.9359 
 425   0.0000       3.016622        82.0865 
 426   0.0000       3.016991        82.0965 
 427   0.0000       3.018956        82.1500 
 428   0.0000       3.034840        82.5822 
 429   0.0000       3.037722        82.6606 
 430   0.0000       3.053940        83.1019 
 431   0.0000       3.068399        83.4954 
 432   0.0000       3.072117        83.5966 
 433   0.0000       3.082362        83.8753 
 434   0.0000       3.085856        83.9704 
 435   0.0000       3.087994        84.0286 
 436   0.0000       3.094428        84.2037 
 437   0.0000       3.102486        84.4229 
 438   0.0000       3.107526        84.5601 
 439   0.0000       3.111663        84.6726 
 440   0.0000       3.121180        84.9316 
 441   0.0000       3.136802        85.3567 
 442   0.0000       3.139696        85.4355 
 443   0.0000       3.142694        85.5170 
 444   0.0000       3.151834        85.7658 
 445   0.0000       3.159833        85.9834 
 446   0.0000       3.176600        86.4397 
 447   0.0000       3.180622        86.5491 
 448   0.0000       3.186590        86.7115 
 449   0.0000       3.198287        87.0298 
 450   0.0000       3.202433        87.1426 
 451   0.0000       3.205874        87.2363 
 452   0.0000       3.214526        87.4717 
 453   0.0000       3.222192        87.6803 
 454   0.0000       3.229685        87.8842 
 455   0.0000       3.237807        88.1052 
 456   0.0000       3.247118        88.3586 
 457   0.0000       3.256285        88.6080 
 458   0.0000       3.267490        88.9129 
 459   0.0000       3.272670        89.0539 
 460   0.0000       3.282351        89.3173 
 461   0.0000       3.293092        89.6096 
 462   0.0000       3.297293        89.7239 
 463   0.0000       3.304119        89.9097 
 464   0.0000       3.306141        89.9647 
 465   0.0000       3.316391        90.2436 
 466   0.0000       3.320488        90.3551 
 467   0.0000       3.324897        90.4750 
 468   0.0000       3.328688        90.5782 
 469   0.0000       3.338429        90.8433 
 470   0.0000       3.340676        90.9044 
 471   0.0000       3.344711        91.0142 
 472   0.0000       3.354552        91.2820 
 473   0.0000       3.361202        91.4630 
 474   0.0000       3.364835        91.5618 
 475   0.0000       3.371299        91.7377 
 476   0.0000       3.373020        91.7845 
 477   0.0000       3.377770        91.9138 
 478   0.0000       3.384872        92.1070 
 479   0.0000       3.388536        92.2067 
 480   0.0000       3.392367        92.3110 
 481   0.0000       3.400468        92.5314 
 482   0.0000       3.403771        92.6213 
 483   0.0000       3.408301        92.7446 
 484   0.0000       3.414709        92.9190 
 485   0.0000       3.420975        93.0895 
 486   0.0000       3.423803        93.1664 
 487   0.0000       3.427607        93.2699 
 488   0.0000       3.430706        93.3543 
 489   0.0000       3.437922        93.5506 
 490   0.0000       3.446153        93.7746 
 491   0.0000       3.451530        93.9209 
 492   0.0000       3.461323        94.1874 
 493   0.0000       3.467944        94.3676 
 494   0.0000       3.473342        94.5144 
 495   0.0000       3.480367        94.7056 
 496   0.0000       3.484542        94.8192 
 497   0.0000       3.493070        95.0513 
 498   0.0000       3.496978        95.1576 
 499   0.0000       3.506001        95.4031 
 500   0.0000       3.509958        95.5108 
 501   0.0000       3.522264        95.8457 
 502   0.0000       3.530016        96.0566 
 503   0.0000       3.538365        96.2838 
 504   0.0000       3.544394        96.4479 
 505   0.0000       3.549051        96.5746 
 506   0.0000       3.551560        96.6429 
 507   0.0000       3.565231        97.0149 
 508   0.0000       3.571741        97.1920 
 509   0.0000       3.580531        97.4312 
 510   0.0000       3.591324        97.7249 
 511   0.0000       3.595870        97.8486 
 512   0.0000       3.600671        97.9792 
 513   0.0000       3.610958        98.2592 
 514   0.0000       3.614164        98.3464 
 515   0.0000       3.620541        98.5199 
 516   0.0000       3.628059        98.7245 
 517   0.0000       3.632204        98.8373 
 518   0.0000       3.635588        98.9294 
 519   0.0000       3.649836        99.3171 
 520   0.0000       3.659643        99.5840 
 521   0.0000       3.662779        99.6693 
 522   0.0000       3.668560        99.8266 
 523   0.0000       3.673088        99.9498 
 524   0.0000       3.679086       100.1130 
 525   0.0000       3.683188       100.2246 
 526   0.0000       3.693398       100.5025 
 527   0.0000       3.705696       100.8371 
 528   0.0000       3.711150       100.9855 
 529   0.0000       3.713007       101.0361 
 530   0.0000       3.715625       101.1073 
 531   0.0000       3.727589       101.4328 
 532   0.0000       3.730927       101.5237 
 533   0.0000       3.736575       101.6774 
 534   0.0000       3.747407       101.9721 
 535   0.0000       3.753591       102.1404 
 536   0.0000       3.767645       102.5228 
 537   0.0000       3.772403       102.6523 
 538   0.0000       3.777089       102.7798 
 539   0.0000       3.783430       102.9524 
 540   0.0000       3.791534       103.1729 
 541   0.0000       3.797001       103.3217 
 542   0.0000       3.799348       103.3855 
 543   0.0000       3.805672       103.5576 
 544   0.0000       3.817355       103.8755 
 545   0.0000       3.821013       103.9751 
 546   0.0000       3.821931       104.0000 
 547   0.0000       3.832175       104.2788 
 548   0.0000       3.837732       104.4300 
 549   0.0000       3.848577       104.7251 
 550   0.0000       3.857131       104.9579 
 551   0.0000       3.859896       105.0331 
 552   0.0000       3.876760       105.4920 
 553   0.0000       3.887830       105.7932 
 554   0.0000       3.895050       105.9897 
 555   0.0000       3.898280       106.0776 
 556   0.0000       3.914518       106.5195 
 557   0.0000       3.917683       106.6056 
 558   0.0000       3.924662       106.7955 
 559   0.0000       3.940048       107.2142 
 560   0.0000       3.946592       107.3922 
 561   0.0000       3.952830       107.5620 
 562   0.0000       3.970108       108.0321 
 563   0.0000       3.972835       108.1063 
 564   0.0000       3.981560       108.3438 
 565   0.0000       3.991622       108.6175 
 566   0.0000       4.001491       108.8861 
 567   0.0000       4.011257       109.1519 
 568   0.0000       4.016162       109.2853 
 569   0.0000       4.029843       109.6576 
 570   0.0000       4.033085       109.7458 
 571   0.0000       4.035670       109.8162 
 572   0.0000       4.052161       110.2649 
 573   0.0000       4.059594       110.4672 
 574   0.0000       4.072199       110.8102 
 575   0.0000       4.084286       111.1391 
 576   0.0000       4.090164       111.2990 
 577   0.0000       4.094148       111.4074 
 578   0.0000       4.098852       111.5354 
 579   0.0000       4.107656       111.7750 
 580   0.0000       4.113420       111.9319 
 581   0.0000       4.116360       112.0118 
 582   0.0000       4.135843       112.5420 
 583   0.0000       4.140125       112.6585 
 584   0.0000       4.144696       112.7829 
 585   0.0000       4.157541       113.1324 
 586   0.0000       4.160704       113.2185 
 587   0.0000       4.167100       113.3925 
 588   0.0000       4.170548       113.4864 
 589   0.0000       4.175070       113.6094 
 590   0.0000       4.184303       113.8607 
 591   0.0000       4.189420       113.9999 
 592   0.0000       4.198836       114.2561 
 593   0.0000       4.200364       114.2977 
 594   0.0000       4.207490       114.4916 
 595   0.0000       4.214876       114.6926 
 596   0.0000       4.224007       114.9411 
 597   0.0000       4.231454       115.1437 
 598   0.0000       4.237587       115.3106 
 599   0.0000       4.254877       115.7811 
 600   0.0000       4.255776       115.8056 
 601   0.0000       4.264511       116.0432 
 602   0.0000       4.273203       116.2798 
 603   0.0000       4.277775       116.4042 
 604   0.0000       4.286691       116.6468 
 605   0.0000       4.292192       116.7965 
 606   0.0000       4.299483       116.9949 
 607   0.0000       4.307271       117.2068 
 608   0.0000       4.312667       117.3536 
 609   0.0000       4.325140       117.6931 
 610   0.0000       4.344037       118.2073 
 611   0.0000       4.345259       118.2405 
 612   0.0000       4.360225       118.6477 
 613   0.0000       4.362086       118.6984 
 614   0.0000       4.371227       118.9471 
 615   0.0000       4.375660       119.0678 
 616   0.0000       4.383540       119.2822 
 617   0.0000       4.388455       119.4159 
 618   0.0000       4.400311       119.7386 
 619   0.0000       4.409028       119.9757 
 620   0.0000       4.418431       120.2316 
 621   0.0000       4.424382       120.3935 
 622   0.0000       4.429275       120.5267 
 623   0.0000       4.436233       120.7160 
 624   0.0000       4.446912       121.0066 
 625   0.0000       4.456312       121.2624 
 626   0.0000       4.458825       121.3308 
 627   0.0000       4.466548       121.5409 
 628   0.0000       4.476724       121.8178 
 629   0.0000       4.490219       122.1851 
 630   0.0000       4.498664       122.4149 
 631   0.0000       4.502021       122.5062 
 632   0.0000       4.525835       123.1542 
 633   0.0000       4.534709       123.3957 
 634   0.0000       4.536350       123.4403 
 635   0.0000       4.550882       123.8358 
 636   0.0000       4.558786       124.0509 
 637   0.0000       4.563316       124.1741 
 638   0.0000       4.579123       124.6043 
 639   0.0000       4.582673       124.7009 
 640   0.0000       4.595289       125.0442 
 641   0.0000       4.600084       125.1747 
 642   0.0000       4.604510       125.2951 
 643   0.0000       4.615829       125.6031 
 644   0.0000       4.617624       125.6519 
 645   0.0000       4.626446       125.8920 
 646   0.0000       4.632705       126.0623 
 647   0.0000       4.644864       126.3932 
 648   0.0000       4.646811       126.4462 
 649   0.0000       4.653194       126.6198 
 650   0.0000       4.661331       126.8413 
 651   0.0000       4.667116       126.9987 
 652   0.0000       4.693054       127.7045 
 653   0.0000       4.701862       127.9442 
 654   0.0000       4.706612       128.0734 
 655   0.0000       4.718197       128.3887 
 656   0.0000       4.731306       128.7454 
 657   0.0000       4.742172       129.0411 
 658   0.0000       4.757364       129.4545 
 659   0.0000       4.770058       129.7999 
 660   0.0000       4.790118       130.3457 
 661   0.0000       4.793779       130.4453 
 662   0.0000       4.811833       130.9366 
 663   0.0000       4.817978       131.1038 
 664   0.0000       4.830697       131.4500 
 665   0.0000       4.835360       131.5768 
 666   0.0000       4.847010       131.8938 
 667   0.0000       4.852497       132.0432 
 668   0.0000       4.874850       132.6514 
 669   0.0000       4.901506       133.3767 
 670   0.0000       4.907498       133.5398 
 671   0.0000       4.939659       134.4150 
 672   0.0000       4.956910       134.8844 
 673   0.0000       4.959750       134.9617 
 674   0.0000       4.975955       135.4026 
 675   0.0000       4.998043       136.0037 
 676   0.0000       5.015455       136.4775 
 677   0.0000       5.039684       137.1368 
 678   0.0000       5.049544       137.4051 
 679   0.0000       5.058961       137.6613 
 680   0.0000       5.072107       138.0191 
 681   0.0000       5.077110       138.1552 
 682   0.0000       5.080596       138.2500 
 683   0.0000       5.090292       138.5139 
 684   0.0000       5.097863       138.7199 
 685   0.0000       5.109055       139.0245 
 686   0.0000       5.121393       139.3602 
 687   0.0000       5.125866       139.4819 
 688   0.0000       5.157891       140.3534 
 689   0.0000       5.158758       140.3769 
 690   0.0000       5.173674       140.7828 
 691   0.0000       5.184922       141.0889 
 692   0.0000       5.193323       141.3175 
 693   0.0000       5.212034       141.8267 
 694   0.0000       5.214776       141.9013 
 695   0.0000       5.222527       142.1122 
 696   0.0000       5.228732       142.2810 
 697   0.0000       5.232117       142.3731 
 698   0.0000       5.250722       142.8794 
 699   0.0000       5.257067       143.0521 
 700   0.0000       5.278493       143.6351 
 701   0.0000       5.287021       143.8672 
 702   0.0000       5.297683       144.1573 
 703   0.0000       5.322494       144.8324 
 704   0.0000       5.326607       144.9443 
 705   0.0000       5.332526       145.1054 
 706   0.0000       5.359842       145.8487 
 707   0.0000       5.378719       146.3624 
 708   0.0000       5.387169       146.5923 
 709   0.0000       5.400330       146.9504 
 710   0.0000       5.414307       147.3308 
 711   0.0000       5.418610       147.4479 
 712   0.0000       5.434600       147.8830 
 713   0.0000       5.438069       147.9774 
 714   0.0000       5.458039       148.5208 
 715   0.0000       5.475506       148.9961 
 716   0.0000       5.521172       150.2387 
 717   0.0000       5.525150       150.3470 
 718   0.0000       5.539959       150.7499 
 719   0.0000       5.549431       151.0077 
 720   0.0000       5.566423       151.4701 
 721   0.0000       5.570956       151.5934 
 722   0.0000       5.580643       151.8570 
 723   0.0000       5.593787       152.2147 
 724   0.0000       5.600647       152.4014 
 725   0.0000       5.612129       152.7138 
 726   0.0000       5.613995       152.7646 
 727   0.0000       5.629280       153.1805 
 728   0.0000       5.634706       153.3281 
 729   0.0000       5.656391       153.9182 
 730   0.0000       5.665147       154.1565 
 731   0.0000       5.666976       154.2062 
 732   0.0000       5.677876       154.5029 
 733   0.0000       5.708210       155.3283 
 734   0.0000       5.727143       155.8435 
 735   0.0000       5.747615       156.4006 
 736   0.0000       5.752910       156.5446 
 737   0.0000       5.757276       156.6635 
 738   0.0000       5.759954       156.7363 
 739   0.0000       5.778228       157.2336 
 740   0.0000       5.783301       157.3716 
 741   0.0000       5.791183       157.5861 
 742   0.0000       5.813608       158.1963 
 743   0.0000       5.822054       158.4261 
 744   0.0000       5.833731       158.7439 
 745   0.0000       5.856067       159.3517 
 746   0.0000       5.880681       160.0215 
 747   0.0000       5.904786       160.6774 
 748   0.0000       5.912367       160.8837 
 749   0.0000       5.930635       161.3808 
 750   0.0000       5.940875       161.6594 
 751   0.0000       5.957584       162.1141 
 752   0.0000       5.973557       162.5487 
 753   0.0000       5.990245       163.0029 
 754   0.0000       6.019530       163.7997 
 755   0.0000       6.038564       164.3177 
 756   0.0000       6.044743       164.4858 
 757   0.0000       6.063690       165.0014 
 758   0.0000       6.080052       165.4466 
 759   0.0000       6.103385       166.0816 
 760   0.0000       6.146742       167.2614 
 761   0.0000       6.162086       167.6789 
 762   0.0000       6.198071       168.6581 
 763   0.0000       6.208286       168.9361 
 764   0.0000       6.237461       169.7300 
 765   0.0000       6.248946       170.0425 
 766   0.0000       6.262989       170.4246 
 767   0.0000       6.300918       171.4567 
 768   0.0000       6.308420       171.6608 
 769   0.0000       6.355313       172.9369 
 770   0.0000       6.372193       173.3962 
 771   0.0000       6.383560       173.7055 
 772   0.0000       6.416452       174.6005 
 773   0.0000       6.444724       175.3699 
 774   0.0000       6.462664       175.8580 
 775   0.0000       6.486262       176.5002 
 776   0.0000       6.497603       176.8088 
 777   0.0000       6.519135       177.3947 
 778   0.0000       6.575414       178.9261 
 779   0.0000       6.606563       179.7737 
 780   0.0000       6.623867       180.2446 
 781   0.0000       6.662361       181.2921 
 782   0.0000       6.712202       182.6483 
 783   0.0000       6.745977       183.5674 
 784   0.0000       6.818792       185.5488 
 785   0.0000       6.860299       186.6782 
 786   0.0000       6.870139       186.9460 
 787   0.0000       6.914712       188.1589 
 788   0.0000       6.932370       188.6394 
 789   0.0000       7.006717       190.6625 
 790   0.0000       7.027731       191.2343 
 791   0.0000       7.101336       193.2372 
 792   0.0000       7.112994       193.5544 
 793   0.0000       7.147737       194.4998 
 794   0.0000       7.209674       196.1852 
 795   0.0000       7.211633       196.2385 
 796   0.0000       7.268292       197.7803 
 797   0.0000       7.278772       198.0655 
 798   0.0000       7.340327       199.7405 
 799   0.0000       7.353892       200.1096 
 800   0.0000       7.363708       200.3767 
 801   0.0000       7.499135       204.0618 
 802   0.0000       7.558605       205.6801 
 803   0.0000       7.562771       205.7935 
 804   0.0000       7.639369       207.8778 
 805   0.0000       7.709013       209.7729 
 806   0.0000       7.851876       213.6604 
 807   0.0000       7.946416       216.2330 
 808   0.0000       7.954108       216.4423 
 809   0.0000       9.356293       254.5977 
 810   0.0000       9.674829       263.2655 
 811   0.0000      10.829226       294.6782 
 812   0.0000      11.138354       303.0900 
 813   0.0000      11.881019       323.2990 
 814   0.0000      12.733137       346.4863 
 815   0.0000      12.833173       349.2084 
 816   0.0000      12.929191       351.8212 
 817   0.0000      13.053958       355.2163 
 818   0.0000      13.278637       361.3301 
 819   0.0000      13.349503       363.2584 
 820   0.0000      13.530958       368.1961 
 821   0.0000      13.813817       375.8931 
 822   0.0000      14.100899       383.7050 
 823   0.0000      14.171526       385.6268 
 824   0.0000      14.305655       389.2767 
 825   0.0000      14.730284       400.8314 
 826   0.0000      15.284437       415.9107 
 827   0.0000      15.898052       432.6080 

                    ********************************
                    * MULLIKEN POPULATION ANALYSIS *
                    ********************************

-----------------------
MULLIKEN ATOMIC CHARGES
-----------------------
   0 C :   -0.274140
   1 C :    0.042641
   2 O :   -0.333201
   3 C :    0.475715
   4 O :   -0.451885
   5 C :   -0.212128
   6 C :    0.183433
   7 C :   -0.310077
   8 N :   -0.138386
   9 C :    0.204076
  10 S :   -0.469774
  11 N :   -0.184012
  12 C :    0.074909
  13 C :    0.076778
  14 C :   -0.211019
  15 C :   -0.094580
  16 C :   -0.297062
  17 C :    0.280024
  18 O :   -0.376632
  19 C :   -0.248649
  20 H :    0.105232
  21 H :    0.094791
  22 H :    0.098651
  23 H :    0.109429
  24 H :    0.080229
  25 H :    0.100371
  26 H :    0.134292
  27 H :    0.133375
  28 H :    0.197171
  29 H :    0.186983
  30 H :    0.150270
  31 H :    0.146991
  32 H :    0.160382
  33 H :    0.147137
  34 H :    0.242541
  35 H :    0.176121
Sum of atomic charges:   -0.0000000

--------------------------------
MULLIKEN REDUCED ORBITAL CHARGES
--------------------------------
  0 C s       :     3.255234  s :     3.255234
      pz      :     1.001249  p :     2.939356
      px      :     1.020417
      py      :     0.917690
      dz2     :     0.020426  d :     0.074947
      dxz     :     0.004650
      dyz     :     0.006987
      dx2y2   :     0.015217
      dxy     :     0.027667
      f0      :     0.001257  f :     0.004603
      f+1     :     0.000159
      f-1     :     0.000396
      f+2     :     0.000556
      f-2     :     0.000232
      f+3     :     0.000650
      f-3     :     0.001353
  1 C s       :     3.174831  s :     3.174831
      pz      :     0.637481  p :     2.616642
      px      :     1.003184
      py      :     0.975977
      dz2     :     0.044562  d :     0.153851
      dxz     :     0.028267
      dyz     :     0.032491
      dx2y2   :     0.019516
      dxy     :     0.029016
      f0      :     0.003399  f :     0.012036
      f+1     :     0.002702
      f-1     :     0.002666
      f+2     :     0.000855
      f-2     :     0.000376
      f+3     :     0.000730
      f-3     :     0.001308
  2 O s       :     3.719044  s :     3.719044
      pz      :     1.378543  p :     4.575514
      px      :     1.729601
      py      :     1.467370
      dz2     :     0.011467  d :     0.036375
      dxz     :     0.004324
      dyz     :     0.008375
      dx2y2   :     0.006630
      dxy     :     0.005579
      f0      :     0.000529  f :     0.002268
      f+1     :     0.000316
      f-1     :     0.000340
      f+2     :     0.000286
      f-2     :     0.000212
      f+3     :     0.000325
      f-3     :     0.000261
  3 C s       :     3.063240  s :     3.063240
      pz      :     0.789555  p :     2.149116
[...]
 15 C s       :     2.697250  s :     2.697250
      pz      :     0.881271  p :     2.791961
      px      :     0.934304
      py      :     0.976386
      dz2     :     0.088909  d :     0.434995
      dxz     :     0.068131
      dyz     :     0.056740
      dx2y2   :     0.118795
      dxy     :     0.102420
      f0      :     0.003026  f :     0.044505
      f+1     :     0.004967
      f-1     :     0.006585
      f+2     :     0.006532
      f-2     :     0.007523
      f+3     :     0.007659
      f-3     :     0.008213
 16 C s       :     2.704511  s :     2.704511
      pz      :     0.940842  p :     2.862900
      px      :     0.958896
      py      :     0.963161
      dz2     :     0.047956  d :     0.381550
      dxz     :     0.055259
      dyz     :     0.087823
      dx2y2   :     0.088066
      dxy     :     0.102446
      f0      :     0.004362  f :     0.039281
      f+1     :     0.004850
      f-1     :     0.003347
      f+2     :     0.005589
      f-2     :     0.005868
      f+3     :     0.007611
      f-3     :     0.007654
 17 C s       :     2.702908  s :     2.702908
      pz      :     0.840351  p :     2.686932
      px      :     0.810027
      py      :     1.036555
      dz2     :     0.127812  d :     0.707755
      dxz     :     0.107515
      dyz     :     0.153915
      dx2y2   :     0.157589
      dxy     :     0.160924
      f0      :     0.012852  f :     0.101415
      f+1     :     0.012661
      f-1     :     0.012432
      f+2     :     0.015720
      f-2     :     0.017870
      f+3     :     0.013960
      f-3     :     0.015920
 18 O s       :     3.179171  s :     3.179171
      pz      :     1.270045  p :     4.360647
      px      :     1.531312
      py      :     1.559289
      dz2     :     0.016073  d :     0.074488
      dxz     :     0.017877
      dyz     :     0.021943
      dx2y2   :     0.010595
      dxy     :     0.008001
      f0      :     0.000651  f :     0.004890
      f+1     :     0.000738
      f-1     :     0.000738
      f+2     :     0.000781
      f-2     :     0.001224
      f+3     :     0.000347
      f-3     :     0.000410
 19 C s       :     2.698004  s :     2.698004
      pz      :     0.923046  p :     2.839601
      px      :     0.943204
      py      :     0.973350
      dz2     :     0.066077  d :     0.392311
      dxz     :     0.068910
      dyz     :     0.057307
      dx2y2   :     0.099695
      dxy     :     0.100322
      f0      :     0.003276  f :     0.042368
      f+1     :     0.004959
      f-1     :     0.005512
      f+2     :     0.006952
      f-2     :     0.007220
      f+3     :     0.006947
      f-3     :     0.007502
 20 H s       :     0.848473  s :     0.848473
      pz      :     0.040496  p :     0.149815
      px      :     0.066612
      py      :     0.042707
      dz2     :     0.003296  d :     0.027129
      dxz     :     0.007108
      dyz     :     0.001547
      dx2y2   :     0.007446
      dxy     :     0.007733
 21 H s       :     0.846373  s :     0.846373
      pz      :     0.044681  p :     0.152598
      px      :     0.056902
      py      :     0.051015
      dz2     :     0.004669  d :     0.027758
      dxz     :     0.005181
      dyz     :     0.003394
      dx2y2   :     0.007953
      dxy     :     0.006560
 22 H s       :     0.840492  s :     0.840492
      pz      :     0.071903  p :     0.152809
      px      :     0.040966
      py      :     0.039939
      dz2     :     0.008999  d :     0.027950
      dxz     :     0.009284
      dyz     :     0.009281
      dx2y2   :     0.000229
      dxy     :     0.000156
 23 H s       :     0.854985  s :     0.854985
      pz      :     0.025758  p :     0.142398
      px      :     0.071898
      py      :     0.044742
      dz2     :     0.003115  d :     0.026647
      dxz     :     0.005760
      dyz     :     0.001068
      dx2y2   :     0.008261
      dxy     :     0.008444
 24 H s       :     0.853641  s :     0.853641
      pz      :     0.033801  p :     0.147683
      px      :     0.057424
      py      :     0.056458
      dz2     :     0.004377  d :     0.028046
      dxz     :     0.004810
      dyz     :     0.003955
      dx2y2   :     0.008562
      dxy     :     0.006342
 25 H s       :     0.836413  s :     0.836413
      pz      :     0.050725  p :     0.148642
      px      :     0.056480
      py      :     0.041437
      dz2     :     0.006591  d :     0.027832
      dxz     :     0.005608
      dyz     :     0.003739
      dx2y2   :     0.006036
      dxy     :     0.005859
 26 H s       :     0.824218  s :     0.824218
      pz      :     0.073020  p :     0.149704
      px      :     0.041781
      py      :     0.034904
      dz2     :     0.009153  d :     0.027572
      dxz     :     0.009093
      dyz     :     0.007650
      dx2y2   :     0.000885
      dxy     :     0.000791
 27 H s       :     0.812537  s :     0.812537
      pz      :     0.041556  p :     0.155528
      px      :     0.062462
      py      :     0.051510
      dz2     :     0.002490  d :     0.028550
      dxz     :     0.007244
      dyz     :     0.002674
      dx2y2   :     0.008879
      dxy     :     0.007263
 28 H s       :     0.740746  s :     0.740746
      pz      :     0.070982  p :     0.254549
      px      :     0.095613
      py      :     0.087954
      dz2     :     0.010132  d :     0.061424
      dxz     :     0.007504
      dyz     :     0.015404
      dx2y2   :     0.014165
      dxy     :     0.014219
 29 H s       :     0.747454  s :     0.747454
      pz      :     0.074269  p :     0.249889
      px      :     0.079625
      py      :     0.095995
      dz2     :     0.010512  d :     0.060991
      dxz     :     0.006995
      dyz     :     0.016213
      dx2y2   :     0.011767
      dxy     :     0.015504
 30 H s       :     0.839009  s :     0.839009
      pz      :     0.031706  p :     0.149302
      px      :     0.078727
      py      :     0.038869
      dz2     :     0.002606  d :     0.027965
      dxz     :     0.007764
      dyz     :     0.000757
      dx2y2   :     0.008390
      dxy     :     0.008448
 31 H s       :     0.843805  s :     0.843805
      pz      :     0.057023  p :     0.157097
      px      :     0.065629
      py      :     0.034445
      dz2     :     0.005290  d :     0.027574
      dxz     :     0.007310
      dyz     :     0.003043
      dx2y2   :     0.005664
      dxy     :     0.006267
 32 H s       :     0.840472  s :     0.840472
      pz      :     0.037156  p :     0.150518
      px      :     0.040675
      py      :     0.072688
      dz2     :     0.002564  d :     0.026648
      dxz     :     0.000921
      dyz     :     0.007079
      dx2y2   :     0.007934
      dxy     :     0.008150
 33 H s       :     0.847604  s :     0.847604
      pz      :     0.057467  p :     0.158972
      px      :     0.047034
      py      :     0.054470
      dz2     :     0.006384  d :     0.027661
      dxz     :     0.004414
      dyz     :     0.006541
      dx2y2   :     0.005313
      dxy     :     0.005010
 34 H s       :     0.708416  s :     0.708416
      pz      :     0.127235  p :     0.348948
      px      :     0.092168
      py      :     0.129545
      dz2     :     0.027689  d :     0.098017
      dxz     :     0.022935
      dyz     :     0.026385
      dx2y2   :     0.010792
      dxy     :     0.010215
 35 H s       :     0.834813  s :     0.834813
      pz      :     0.042295  p :     0.162033
      px      :     0.042756
      py      :     0.076981
      dz2     :     0.002582  d :     0.028146
      dxz     :     0.001335
      dyz     :     0.007682
      dx2y2   :     0.007850
      dxy     :     0.008696


                      *****************************
                      * MAYER POPULATION ANALYSIS *
                      *****************************

  NA   - Mulliken gross atomic population
  ZA   - Total nuclear charge
  QA   - Mulliken gross atomic charge
  VA   - Mayer's total valence
  BVA  - Mayer's bonded valence
  FA   - Mayer's free valence

  ATOM       NA         ZA         QA         VA         BVA        FA
  0 C      6.2741     6.0000    -0.2741     3.8853     3.8853     0.0000
  1 C      5.9574     6.0000     0.0426     3.8626     3.8626     0.0000
  2 O      8.3332     8.0000    -0.3332     2.0718     2.0718    -0.0000
  3 C      5.5243     6.0000     0.4757     4.1688     4.1688    -0.0000
  4 O      8.4519     8.0000    -0.4519     2.0499     2.0499    -0.0000
  5 C      6.2121     6.0000    -0.2121     3.7000     3.7000    -0.0000
  6 C      5.8166     6.0000     0.1834     3.8335     3.8335     0.0000
  7 C      6.3101     6.0000    -0.3101     3.9063     3.9063    -0.0000
  8 N      7.1384     7.0000    -0.1384     3.2739     3.2739     0.0000
  9 C      5.7959     6.0000     0.2041     4.1650     4.1650    -0.0000
 10 S     16.4698    16.0000    -0.4698     1.7063     1.7063    -0.0000
 11 N      7.1840     7.0000    -0.1840     3.2381     3.2381     0.0000
 12 C      5.9251     6.0000     0.0749     3.9585     3.9585     0.0000
 13 C      5.9232     6.0000     0.0768     3.6354     3.6354    -0.0000
 14 C      6.2110     6.0000    -0.2110     3.8703     3.8703     0.0000
 15 C      6.0946     6.0000    -0.0946     3.7876     3.7876    -0.0000
 16 C      6.2971     6.0000    -0.2971     3.8143     3.8143    -0.0000
 17 C      5.7200     6.0000     0.2800     3.8752     3.8752    -0.0000
 18 O      8.3766     8.0000    -0.3766     2.0709     2.0709     0.0000
 19 C      6.2486     6.0000    -0.2486     3.7807     3.7807    -0.0000
 20 H      0.8948     1.0000     0.1052     0.9794     0.9794    -0.0000
 21 H      0.9052     1.0000     0.0948     0.9852     0.9852     0.0000
 22 H      0.9013     1.0000     0.0987     0.9801     0.9801    -0.0000
 23 H      0.8906     1.0000     0.1094     0.9821     0.9821     0.0000
 24 H      0.9198     1.0000     0.0802     0.9851     0.9851    -0.0000
 25 H      0.8996     1.0000     0.1004     0.9863     0.9863    -0.0000
 26 H      0.8657     1.0000     0.1343     0.9869     0.9869    -0.0000
 27 H      0.8666     1.0000     0.1334     0.9756     0.9756    -0.0000
 28 H      0.8028     1.0000     0.1972     1.0245     1.0245    -0.0000
 29 H      0.8130     1.0000     0.1870     1.0188     1.0188     0.0000
 30 H      0.8497     1.0000     0.1503     0.9825     0.9825     0.0000
 31 H      0.8530     1.0000     0.1470     0.9835     0.9835     0.0000
 32 H      0.8396     1.0000     0.1604     0.9738     0.9738    -0.0000
 33 H      0.8529     1.0000     0.1471     0.9887     0.9887    -0.0000
 34 H      0.7575     1.0000     0.2425     1.0080     1.0080    -0.0000
 35 H      0.8239     1.0000     0.1761     0.9855     0.9855    -0.0000

  Mayer bond orders larger than 0.100000
B(  0-C ,  1-C ) :   0.9706 B(  0-C , 20-H ) :   0.9722 B(  0-C , 21-H ) :   0.9799 
B(  0-C , 22-H ) :   0.9794 B(  1-C ,  2-O ) :   0.8999 B(  1-C , 23-H ) :   0.9813 
B(  1-C , 24-H ) :   0.9790 B(  2-O ,  3-C ) :   1.1775 B(  3-C ,  4-O ) :   1.9204 
B(  3-C ,  5-C ) :   1.0430 B(  5-C ,  6-C ) :   1.6930 B(  5-C , 12-C ) :   0.9859 
B(  6-C ,  7-C ) :   0.9685 B(  6-C ,  8-N ) :   1.1018 B(  7-C , 25-H ) :   0.9953 
B(  7-C , 26-H ) :   0.9609 B(  7-C , 27-H ) :   0.9519 B(  8-N ,  9-C ) :   1.2325 
B(  8-N , 28-H ) :   0.9437 B(  9-C , 10-S ) :   1.5554 B(  9-C , 11-N ) :   1.3209 
B( 11-N , 12-C ) :   0.9600 B( 11-N , 29-H ) :   0.9539 B( 12-C , 13-C ) :   0.9723 
B( 12-C , 30-H ) :   0.9986 B( 13-C , 14-C ) :   1.3617 B( 13-C , 19-C ) :   1.2876 
B( 14-C , 15-C ) :   1.3873 B( 14-C , 31-H ) :   0.9731 B( 15-C , 16-C ) :   1.3667 
B( 15-C , 32-H ) :   0.9722 B( 16-C , 17-C ) :   1.3455 B( 16-C , 33-H ) :   0.9787 
B( 17-C , 18-O ) :   1.0681 B( 17-C , 19-C ) :   1.3867 B( 18-O , 34-H ) :   0.9772 
B( 19-C , 35-H ) :   0.9579 

-------
TIMINGS
-------

Total SCF time: 0 days 2 hours 10 min 46 sec 

Total time                  ....    7846.928 sec
Sum of individual times     ....    7843.384 sec  (100.0%)

Fock matrix formation       ....    7829.169 sec  ( 99.8%)
Diagonalization             ....       1.721 sec  (  0.0%)
Density matrix formation    ....       0.196 sec  (  0.0%)
Population analysis         ....       0.231 sec  (  0.0%)
Initial guess               ....       6.968 sec  (  0.1%)
Orbital Transformation      ....       0.000 sec  (  0.0%)
Orbital Orthonormalization  ....       0.000 sec  (  0.0%)
DIIS solution               ....       1.776 sec  (  0.0%)
SOSCF solution              ....       1.563 sec  (  0.0%)

Maximum memory used throughout the entire SCF-calculation: 745.9 MB

------------------------------------------------------------------------------
                                ORCA  MP2 
------------------------------------------------------------------------------

Freezing NCore=48 chemical core electrons

-------------
RI-MP2 ENERGY
-------------
Dimension of the basis                    ...  828
Memory devoted to MP2                     ...  256 MB   
Data format for buffers                   ... DOUBLE
Compression type for matrix containers    ... UNCOMPRESSED
Overall scaling of the MP2 energy         ...   1.000e+00
Calculating two index integrals           ... done (    0.046 sec)
Cholesky decomposition of V**-1           ... done (    0.561 sec)

-----------------
RI-TRANSFORMATION (AUX index driven)
-----------------

Dimension of the orbital-basis         ... 828
Dimension of the aux-basis             ... 2141
Transformation of internal/external MOs...   24-  76 to   77- 827
Number Format for Storage              ... Double (8 Byte)
Integral mode                          ... Direct

First Phase: integral generation and transformation of MO indices
  Aux angular momentum 0               ... done (    5.280 sec)
  Aux angular momentum 1               ... done (    8.647 sec)
  Aux angular momentum 2               ... done (   11.256 sec)
  Aux angular momentum 3               ... done (    9.088 sec)
  Aux angular momentum 4               ... done (    3.101 sec)
Closing buffer VIA ( 0.63 GB; CompressionRatio= 1.00)
  Phase 1 completed in    37.541 sec
Second Phase: sorting and transformation of aux index

IA-Transformation
Memory available                       ... 157 MB 
Max. # MO pairs treated in a batch     ... 11    
# of internal orbitals                 ... 53
# batches for internal orbitals        ... 5
Closing buffer IAV ( 0.63 GB; CompressionRatio= 1.00)
(ia|v) transformation done in    17.799 sec

  Phase 2 completed in    17.806 sec
RI-Integral transformation completed in    55.354 sec
Opening buffers                              ... done

Starting loop over batches of integrals:

Operator 0  - window                       ... ( 24- 76)x( 77-827)
Operator 0  - Memory available             ...   256 MB
Operator 0  - Memory needed per MO         ...  12.3 MB
Operator 0  - Number of orbitals per batch ... 13
Operator 0  - Number of batches            ... 5

OPERATOR  0   PASS   0:  MOs    24 ...   36
  Reading integrals       ... ok
  Internal MO  26
  Internal MO  29
  Internal MO  32
  Internal MO  35
OPERATOR  0   PASS   1:  MOs    37 ...   49
  Reading integrals       ... ok
  Internal MO  38
  Internal MO  41
  Internal MO  44
  Internal MO  47
OPERATOR  0   PASS   2:  MOs    50 ...   62
  Reading integrals       ... ok
  Internal MO  50
  Internal MO  53
  Internal MO  56
  Internal MO  59
  Internal MO  62
OPERATOR  0   PASS   3:  MOs    63 ...   75
  Reading integrals       ... ok
  Internal MO  65
  Internal MO  68
  Internal MO  71
  Internal MO  74
OPERATOR  0   PASS   4:  MOs    76 ...   76
  Reading integrals       ... ok
Time spent in pair loops =    91.762 sec
Deleting buffer (Ka|jb)[aa] ...done

-----------------------------------------------
 RI-MP2 CORRELATION ENERGY:     -3.539868559 Eh
-----------------------------------------------


-------
TIMINGS
-------

Total time                :  147.819 sec
Integral trafo            :   55.373 sec ( 37.5%)
I/O of integrals          :    0.799 sec (  0.5%)
K(i,j) Operators          :   64.802 sec ( 43.8%)
T(i,j) pair energies      :    9.074 sec (  6.1%)
V-calculation             :    0.046 sec (  0.0%)
V**(-1/2)                 :    0.561 sec (  0.4%)
Gamma(ia|P)               :    0.000 sec (  0.0%)
Gamma-Trafo               :    0.000 sec (  0.0%)
D(virtual)                :    0.000 sec (  0.0%)
D(internal)               :    0.000 sec (  0.0%)
W(virtual)                :    0.000 sec (  0.0%)
W(internal)               :    0.000 sec (  0.0%)
L(virtual)                :    0.000 sec (  0.0%)
L(internal)               :    0.000 sec (  0.0%)
G(D)                      :    0.000 sec (  0.0%)
G(Z)                      :    0.000 sec (  0.0%)
Z-Vector Solution         :    0.000 sec (  0.0%)
3-Index Derivative        :    0.000 sec (  0.0%)
2-Index Derivative        :    0.000 sec (  0.0%)
Separable Gradient        :    0.000 sec (  0.0%)


---------------------------------------
MP2 TOTAL ENERGY:    -1274.312300445 Eh
---------------------------------------

Maximum memory used throughout the entire MP2-calculation: 305.1 MB

-------------------------   --------------------
FINAL SINGLE POINT ENERGY     -1274.312300445232
-------------------------   --------------------


                            ***************************************
                            *     ORCA property calculations      *
                            ***************************************


  WARNING: The energy has been calculated at the MP2 level but the densities
           used in the property calculations are still SCF densities
           MP2 response densities have not been calculated 
           use %mp2 Density relaxed end
           or  %mp2 Density unrelaxed end

                                    ---------------------
                                    Active property flags
                                    ---------------------
   (+) Dipole Moment


------------------------------------------------------------------------------
                       ORCA ELECTRIC PROPERTIES CALCULATION
------------------------------------------------------------------------------

Dipole Moment Calculation                       ... on
Quadrupole Moment Calculation                   ... off
Polarizability Calculation                      ... off
GBWName                                         ... qm_input.vacu.gbw
Electron density file                           ... qm_input.vacu.scfp
The origin for moment calculation is the CENTER OF MASS  = (-9.855529,  6.093583 -1.278841)

-------------
DIPOLE MOMENT
-------------
                                X             Y             Z
Electronic contribution:      3.95874       2.99742     -14.55855
Nuclear contribution   :     -4.58460      -3.86459      16.71070
                        -----------------------------------------
Total Dipole Moment    :     -0.62586      -0.86717       2.15215
                        -----------------------------------------
Magnitude (a.u.)       :      2.40321
Magnitude (Debye)      :      6.10848



--------------------
Rotational spectrum 
--------------------
 
Rotational constants in cm-1:     0.014025     0.008135     0.006252 
Rotational constants in MHz :   420.447779   243.896117   187.433249 

 Dipole components along the rotational axes: 
x,y,z [a.u.] :     2.347907     0.484833     0.166419 
x,y,z [Debye]:     5.967904     1.232347     0.423004 

 

Timings for individual modules:

Sum of individual times         ...     7997.487 sec (= 133.291 min)
GTO integral calculation        ...        2.017 sec (=   0.034 min)   0.0 %
SCF iterations                  ...     7846.987 sec (= 130.783 min)  98.1 %
MP2 module                      ...      148.483 sec (=   2.475 min)   1.9 %
                             ****ORCA TERMINATED NORMALLY****
TOTAL RUN TIME: 0 days 2 hours 13 minutes 18 seconds 442 msec
