
                                        *****************
                                        * O   R   C   A *
                                        *****************

                                            #,                                       
                                            ###                                      
                                            ####                                     
                                            #####                                    
                                            ######                                   
                                           ########,                                 
                                     ,,################,,,,,                         
                               ,,#################################,,                 
                          ,,##########################################,,             
                       ,#########################################, ''#####,          
                    ,#############################################,,   '####,        
                  ,##################################################,,,,####,       
                ,###########''''           ''''###############################       
              ,#####''   ,,,,##########,,,,          '''####'''          '####       
            ,##' ,,,,###########################,,,                        '##       
           ' ,,###''''                  '''############,,,                           
         ,,##''                                '''############,,,,        ,,,,,,###''
      ,#''                                            '''#######################'''  
     '                                                          ''''####''''         
             ,#######,   #######,   ,#######,      ##                                
            ,#'     '#,  ##    ##  ,#'     '#,    #''#        ######   ,####,        
            ##       ##  ##   ,#'  ##            #'  '#       #        #'  '#        
            ##       ##  #######   ##           ,######,      #####,   #    #        
            '#,     ,#'  ##    ##  '#,     ,#' ,#      #,         ##   #,  ,#        
             '#######'   ##     ##  '#######'  #'      '#     #####' # '####'        



                  #######################################################
                  #                        -***-                        #
                  #          Department of theory and spectroscopy      #
                  #    Directorship and core code : Frank Neese         #
                  #        Max Planck Institute fuer Kohlenforschung    #
                  #                Kaiser Wilhelm Platz 1               #
                  #                 D-45470 Muelheim/Ruhr               #
                  #                      Germany                        #
                  #                                                     #
                  #                  All rights reserved                #
                  #                        -***-                        #
                  #######################################################


                         Program Version 5.0.0 -  RELEASE  -
                                (SVN: $Rev: 19529$)
                ($Date: 2021-06-28 11:36:33 +0200 (Mo, 28 Jun 2021) $)


 With contributions from (in alphabetic order):
   Daniel Aravena         : Magnetic Suceptibility
   Michael Atanasov       : Ab Initio Ligand Field Theory (pilot matlab implementation)
   Alexander A. Auer      : GIAO ZORA, VPT2 properties, NMR spectrum
   Ute Becker             : Parallelization
   Giovanni Bistoni       : ED, misc. LED, open-shell LED, HFLD
   Martin Brehm           : Molecular dynamics
   Dmytro Bykov           : SCF Hessian
   Vijay G. Chilkuri      : MRCI spin determinant printing, contributions to CSF-ICE
   Dipayan Datta          : RHF DLPNO-CCSD density
   Achintya Kumar Dutta   : EOM-CC, STEOM-CC
   Dmitry Ganyushin       : Spin-Orbit,Spin-Spin,Magnetic field MRCI
   Miquel Garcia          : C-PCM Hessian, Gaussian charge scheme
   Yang Guo               : DLPNO-NEVPT2, F12-NEVPT2, CIM, IAO-localization
   Andreas Hansen         : Spin unrestricted coupled pair/coupled cluster methods
   Benjamin Helmich-Paris : MC-RPA, TRAH-SCF, COSX integrals
   Lee Huntington         : MR-EOM, pCC
   Robert Izsak           : Overlap fitted RIJCOSX, COSX-SCS-MP3, EOM
   Marcus Kettner         : VPT2
   Christian Kollmar      : KDIIS, OOCD, Brueckner-CCSD(T), CCSD density, CASPT2, CASPT2-K
   Simone Kossmann        : Meta GGA functionals, TD-DFT gradient, OOMP2, MP2 Hessian
   Martin Krupicka        : Initial AUTO-CI
   Lucas Lang             : DCDCAS
   Marvin Lechner         : AUTO-CI (C++ implementation), FIC-MRCC
   Dagmar Lenk            : GEPOL surface, SMD
   Dimitrios Liakos       : Extrapolation schemes; Compound Job, initial MDCI parallelization
   Dimitrios Manganas     : Further ROCIS development; embedding schemes
   Dimitrios Pantazis     : SARC Basis sets
   Anastasios Papadopoulos: AUTO-CI, single reference methods and gradients
   Taras Petrenko         : DFT Hessian,TD-DFT gradient, ASA, ECA, R-Raman, ABS, FL, XAS/XES, NRVS
   Peter Pinski           : DLPNO-MP2, DLPNO-MP2 Gradient
   Christoph Reimann      : Effective Core Potentials
   Marius Retegan         : Local ZFS, SOC
   Christoph Riplinger    : Optimizer, TS searches, QM/MM, DLPNO-CCSD(T), (RO)-DLPNO pert. Triples
   Tobias Risthaus        : Range-separated hybrids, TD-DFT gradient, RPA, STAB
   Michael Roemelt        : Original ROCIS implementation
   Masaaki Saitow         : Open-shell DLPNO-CCSD energy and density
   Barbara Sandhoefer     : DKH picture change effects
   Avijit Sen             : IP-ROCIS
   Kantharuban Sivalingam : CASSCF convergence, NEVPT2, FIC-MRCI
   Bernardo de Souza      : ESD, SOC TD-DFT
   Georgi Stoychev        : AutoAux, RI-MP2 NMR
   Willem Van den Heuvel  : Paramagnetic NMR
   Boris Wezisla          : Elementary symmetry handling
   Frank Wennmohs         : Technical directorship


 We gratefully acknowledge several colleagues who have allowed us to
 interface, adapt or use parts of their codes:
   Stefan Grimme, W. Hujo, H. Kruse, P. Pracht,  : VdW corrections, initial TS optimization,
                  C. Bannwarth, S. Ehlert          DFT functionals, gCP, sTDA/sTD-DF
   Ed Valeev, F. Pavosevic, A. Kumar             : LibInt (2-el integral package), F12 methods
   Garnet Chan, S. Sharma, J. Yang, R. Olivares  : DMRG
   Ulf Ekstrom                                   : XCFun DFT Library
   Mihaly Kallay                                 : mrcc  (arbitrary order and MRCC methods)
   Jiri Pittner, Ondrej Demel                    : Mk-CCSD
   Frank Weinhold                                : gennbo (NPA and NBO analysis)
   Christopher J. Cramer and Donald G. Truhlar   : smd solvation model
   Lars Goerigk                                  : TD-DFT with DH, B97 family of functionals
   V. Asgeirsson, H. Jonsson                     : NEB implementation
   FAccTs GmbH                                   : IRC, NEB, NEB-TS, DLPNO-Multilevel, CI-OPT
                                                   MM, QMMM, 2- and 3-layer-ONIOM, Crystal-QMMM,
                                                   LR-CPCM, SF, NACMEs, symmetry and pop. for TD-DFT,
                                                   nearIR, NL-DFT gradient (VV10), updates on ESD,
                                                   ML-optimized integration grids
   S Lehtola, MJT Oliveira, MAL Marques          : LibXC Library
   Liviu Ungur et al                             : ANISO software


 Your calculation uses the libint2 library for the computation of 2-el integrals
 For citations please refer to: http://libint.valeyev.net

 Your ORCA version has been built with support for libXC version: 5.1.0
 For citations please refer to: https://tddft.org/programs/libxc/

 This ORCA versions uses:
   CBLAS   interface :  Fast vector & matrix operations
   LAPACKE interface :  Fast linear algebra routines
   SCALAPACK package :  Parallel linear algebra routines
   Shared memory     :  Shared parallel matrices
   BLAS/LAPACK       :  OpenBLAS 0.3.15  USE64BITINT DYNAMIC_ARCH NO_AFFINITY SkylakeX SINGLE_THREADED
        Core in use  :  SkylakeX
   Copyright (c) 2011-2014, The OpenBLAS Project


================================================================================

----- Orbital basis set information -----
Your calculation utilizes the basis: cc-pVTZ 
       H, B-Ne : Obtained from the ccRepo (grant-hill.group.shef.ac.uk/ccrepo) Feb. 2017
                 T. H. Dunning, Jr., J. Chem. Phys. 90, 1007 (1989)
            He : Obtained from the ccRepo (grant-hill.group.shef.ac.uk/ccrepo) Feb. 2017
                 D. E. Woon, T. H. Dunning, Jr., J. Chem. Phys. 100, 2975 (1994)
  Li-Be, Na-Mg : Obtained from the ccRepo (grant-hill.group.shef.ac.uk/ccrepo) Feb. 2017
                 B. P. Prascher, D. E. Woon, K. A. Peterson, T. H. Dunning, Jr., A. K. Wilson, Theor. Chem. Acc. 128, 69 (2011)
         Al-Ar : Obtained from the ccRepo (grant-hill.group.shef.ac.uk/ccrepo) Feb. 2017
                 D. E. Woon, T. H. Dunning, Jr., J. Chem. Phys. 98, 1358 (1993)
            Ca : Obtained from the Peterson Research Group Website (tyr0.chem.wsu.edu/~kipeters) Feb. 2017
                 J. Koput, K. A. Peterson, J. Phys. Chem. 106, 9595 (2002)
         Sc-Zn : Obtained from the ccRepo (grant-hill.group.shef.ac.uk/ccrepo) Feb. 2017
                 N. B. Balabanov, K. A. Peterson, J. Chem. Phys. 123, 064107 (2005)
                 N. B. Balabanov, K. A. Peterson, J. Chem. Phys. 125, 074110 (2006)
         Ga-Kr : Obtained from the ccRepo (grant-hill.group.shef.ac.uk/ccrepo) Feb. 2017
                 A. K. Wilson, D. E. Woon, K. A. Peterson, T. H. Dunning, Jr., J. Chem. Phys. 110, 7667 (1999)
             Y : Obtained from the ccRepo (grant-hill.group.shef.ac.uk/ccrepo) Feb. 2017
                 K. A. Peterson, D. Figgen, M. Dolg, H. Stoll, J. Chem. Phys. 126, 124101 (2007)
        Ag, Au : Obtained from the Peterson Research Group Website (tyr0.chem.wsu.edu/~kipeters) Feb. 2017
                 K. A. Peterson, C. Puzzarini, Theor. Chem. Acc. 114, 283 (2005)

----- AuxC basis set information -----
Your calculation utilizes the auxiliary basis: cc-pVTZ/C 
  Obtained from the EMSL Basis Set Exchange (bse.pnl.gov) Feb. 2017
  H-He, B-F, Al-Ar, Ga-Kr : F. Weigend, A. Kohn, C. Hattig, J. Chem. Phys. 116, 3175 (2002)
             Li-Be, Na-Mg : C. Haettig, Phys. Chem. Chem. Phys. 7, 59 (2005)
                       Ne : C. Haettig, Phys. Chem. Chem. Phys. 7, 59 (2005)
                            F. Weigend, A. Kohn, C. Hattig, J. Chem. Phys. 116, 3175 (2002)
                    Sc-Zn : J. G. Hill, J. A. Platts, J. Chem. Phys. 128, 044104 (2008)

================================================================================
                                        WARNINGS
                       Please study these warnings very carefully!
================================================================================


WARNING: No MP2 level density has been requested!
         To caclulate MP2 level properties use
         %mp2 Density relaxed end
         or
         %mp2 Density unrelaxed end

WARNING: Post HF methods need fully converged wavefunctions
  ===> : Setting SCFConvForced true
         You can overwrite this default with %scf ConvForced false 


INFO   : the flag for use of the SHARK integral package has been found!

================================================================================
                                       INPUT FILE
================================================================================
NAME = qm_input.vacu
|  1> ! RI-MP2 cc-pVTZ cc-pVTZ/c TightSCF KeepDens NoKeepInts
|  2> 
|  3> *xyz  0  1
|  4>     C    12.4952991  -13.3006974    2.3827951
|  5>     C    13.5598085  -12.1978181    2.5971825
|  6>     O    13.0487401  -11.1789098    3.4083834
|  7>     C    13.7449667  -10.4975176    4.3655506
|  8>     O    14.8198881  -10.9204797    4.7357480
|  9>     C    13.0301824   -9.4292615    5.0864549
| 10>     C    11.9844698   -8.7548956    4.6420404
| 11>     C    11.3410518   -8.9262140    3.2773593
| 12>     N    11.4715020   -7.7251432    5.3418485
| 13>     C    12.2089896   -7.0055035    6.2957297
| 14>     S    11.7418192   -5.5700943    6.9722650
| 15>     N    13.3521656   -7.6417078    6.6722662
| 16>     C    13.6286523   -9.0568112    6.4570923
| 17>     C    13.0546618   -9.9294318    7.5197430
| 18>     C    13.7933502  -10.1766354    8.6846720
| 19>     C    13.2901162  -10.9155490    9.7504518
| 20>     C    11.9927883  -11.4064061    9.7041774
| 21>     C    11.2218041  -11.1165838    8.5711555
| 22>     O     9.9791579  -11.7180669    8.4948203
| 23>     C    11.7286202  -10.3862982    7.4741014
| 24>     H    11.5474253  -12.9113079    1.9915130
| 25>     H    12.3878844  -13.9053823    3.2916448
| 26>     H    12.8740871  -13.9302447    1.5683129
| 27>     H    14.4538736  -12.6615308    3.0317040
| 28>     H    13.9233622  -11.7472528    1.6655124
| 29>     H    12.0862377   -9.1502251    2.5042404
| 30>     H    10.8082214   -8.0502933    2.8874296
| 31>     H    10.6396640   -9.7695670    3.2766866
| 32>     H    10.5597751   -7.3361338    5.1335404
| 33>     H    13.8958482   -7.3042461    7.4574426
| 34>     H    14.7158742   -9.1772799    6.5385451
| 35>     H    14.8222995   -9.8299033    8.6637842
| 36>     H    13.8931793  -10.9850316   10.6509423
| 37>     H    11.5438076  -11.9622923   10.5219818
| 38>     H     9.8855626  -12.2063550    9.3312079
| 39>     H    11.1226158  -10.2045241    6.5914277
| 40> *
| 41> 
| 42>                          ****END OF INPUT****
================================================================================

                       ****************************
                       * Single Point Calculation *
                       ****************************

---------------------------------
CARTESIAN COORDINATES (ANGSTROEM)
---------------------------------
  C     12.495299  -13.300697    2.382795
  C     13.559809  -12.197818    2.597183
  O     13.048740  -11.178910    3.408383
  C     13.744967  -10.497518    4.365551
  O     14.819888  -10.920480    4.735748
  C     13.030182   -9.429262    5.086455
  C     11.984470   -8.754896    4.642040
  C     11.341052   -8.926214    3.277359
  N     11.471502   -7.725143    5.341849
  C     12.208990   -7.005503    6.295730
  S     11.741819   -5.570094    6.972265
  N     13.352166   -7.641708    6.672266
  C     13.628652   -9.056811    6.457092
  C     13.054662   -9.929432    7.519743
  C     13.793350  -10.176635    8.684672
  C     13.290116  -10.915549    9.750452
  C     11.992788  -11.406406    9.704177
  C     11.221804  -11.116584    8.571155
  O      9.979158  -11.718067    8.494820
  C     11.728620  -10.386298    7.474101
  H     11.547425  -12.911308    1.991513
  H     12.387884  -13.905382    3.291645
  H     12.874087  -13.930245    1.568313
  H     14.453874  -12.661531    3.031704
  H     13.923362  -11.747253    1.665512
  H     12.086238   -9.150225    2.504240
  H     10.808221   -8.050293    2.887430
  H     10.639664   -9.769567    3.276687
  H     10.559775   -7.336134    5.133540
  H     13.895848   -7.304246    7.457443
  H     14.715874   -9.177280    6.538545
  H     14.822299   -9.829903    8.663784
  H     13.893179  -10.985032   10.650942
  H     11.543808  -11.962292   10.521982
  H      9.885563  -12.206355    9.331208
  H     11.122616  -10.204524    6.591428

----------------------------
CARTESIAN COORDINATES (A.U.)
----------------------------
  NO LB      ZA    FRAG     MASS         X           Y           Z
   0 C     6.0000    0    12.011   23.612693  -25.134675    4.502830
   1 C     6.0000    0    12.011   25.624324  -23.050536    4.907964
   2 O     8.0000    0    15.999   24.658545  -21.125078    6.440911
   3 C     6.0000    0    12.011   25.974223  -19.837433    8.249695
   4 O     8.0000    0    15.999   28.005530  -20.636716    8.949267
   5 C     6.0000    0    12.011   24.623476  -17.818722    9.612007
   6 C     6.0000    0    12.011   22.647366  -16.544355    8.772185
   7 C     6.0000    0    12.011   21.431482  -16.868100    6.193312
   8 N     7.0000    0    14.007   21.677997  -14.598405   10.094631
   9 C     6.0000    0    12.011   23.071647  -13.238483   11.897205
  10 S    16.0000    0    32.060   22.188823  -10.525953   13.175671
  11 N     7.0000    0    14.007   25.231936  -14.440735   12.608756
  12 C     6.0000    0    12.011   25.754420  -17.114893   12.202136
  13 C     6.0000    0    12.011   24.669736  -18.763907   14.210255
  14 C     6.0000    0    12.011   26.065654  -19.231054   16.411652
  15 C     6.0000    0    12.011   25.114680  -20.627398   18.425684
  16 C     6.0000    0    12.011   22.663085  -21.554984   18.338238
  17 C     6.0000    0    12.011   21.206136  -21.007299   16.197137
  18 O     8.0000    0    15.999   18.857875  -22.143937   16.052884
  19 C     6.0000    0    12.011   22.163880  -19.627259   14.124005
  20 H     1.0000    0     1.008   21.821471  -24.398836    3.763414
  21 H     1.0000    0     1.008   23.409709  -26.277364    6.220307
  22 H     1.0000    0     1.008   24.328499  -26.324347    2.963682
  23 H     1.0000    0     1.008   27.313863  -23.926826    5.729090
  24 H     1.0000    0     1.008   26.311341  -22.199091    3.147362
  25 H     1.0000    0     1.008   22.839679  -17.291420    4.732329
  26 H     1.0000    0     1.008   20.424578  -15.212850    5.456451
  27 H     1.0000    0     1.008   20.106051  -18.461806    6.192040
  28 H     1.0000    0     1.008   19.955083  -13.863284    9.700985
  29 H     1.0000    0     1.008   26.259347  -13.803025   14.092524
  30 H     1.0000    0     1.008   27.808972  -17.342546   12.356060
  31 H     1.0000    0     1.008   28.010087  -18.575825   16.372179
  32 H     1.0000    0     1.008   26.254304  -20.758701   20.127364
  33 H     1.0000    0     1.008   21.814635  -22.605456   19.883664
  34 H     1.0000    0     1.008   18.681006  -23.066668   17.633427
  35 H     1.0000    0     1.008   21.018698  -19.283756   12.455993

--------------------------------
INTERNAL COORDINATES (ANGSTROEM)
--------------------------------
 C      0   0   0     0.000000000000     0.00000000     0.00000000
 C      1   0   0     1.547735432926     0.00000000     0.00000000
 O      2   1   0     1.399075385191   110.36639850     0.00000000
 C      3   2   1     1.365721735027   125.69673747   142.02507861
 O      4   3   2     1.213012394488   119.45071080   346.48169511
 C      4   3   2     1.473699664271   117.20931745   178.26891702
 C      6   4   3     1.321282882918   126.10750968   335.53622605
 C      7   6   4     1.518450269716   125.45502052   358.09080253
 N      7   6   4     1.346572443639   121.13100281   185.25467007
 C      9   7   6     1.404157612835   123.01711525    22.25233013
 S     10   9   7     1.654190970301   125.04541312   167.73740568
 N     10   9   7     1.361391572674   112.91818132   344.91425390
 C     12  10   9     1.457827951169   124.89378989   342.60349904
 C     13  12  10     1.490019568947   112.96418169   275.75530678
 C     14  13  12     1.401367099367   119.54463122   273.14012803
 C     15  14  13     1.391087469971   122.67657496   176.13214390
 C     16  15  14     1.387855069103   120.03181561   357.97391634
 C     17  16  15     1.400768442001   117.92343235   359.14358807
 O     18  17  16     1.382670807068   116.69950510   174.25254390
 C     14  13  12     1.403280580650   122.10633044    85.16389428
 H      1   2   3     1.096900453650   113.00396319    54.31554210
 H      1   2   3     1.096899960459   110.20632793   285.48669779
 H      1   2   3     1.096900818670   105.92112944   167.21818173
 H      2   1   3     1.096900544781   108.31453169   123.04342565
 H      2   1   3     1.096899976106   113.76621242   238.00087005
 H      8   7   6     1.096902836180   111.63058161   324.78765685
 H      8   7   6     1.096900396023   115.79942792   206.00542502
 H      8   7   6     1.096899986837   110.99233813    82.90432524
 H      9   7   6     1.012900053311   121.98585310   194.24212314
 H     12  10   9     1.012903325904   120.62564229   189.86024121
 H     13  12  10     1.096904155406   106.47695622   160.60772699
 H     15  14  13     1.086000051257   115.28489623   350.70595434
 H     16  15  14     1.086000034473   117.92888303   185.38937870
 H     17  16  15     1.086000540047   122.84630881   181.90265618
 H     19  18  17     0.973000290965   104.90997196     3.38970455
 H     20  14  13     1.086000007791   119.94990754     7.26137619

---------------------------
INTERNAL COORDINATES (A.U.)
---------------------------
 C      0   0   0     0.000000000000     0.00000000     0.00000000
 C      1   0   0     2.924796095997     0.00000000     0.00000000
 O      2   1   0     2.643869318722   110.36639850     0.00000000
 C      3   2   1     2.580840054344   125.69673747   142.02507861
 O      4   3   2     2.292261222634   119.45071080   346.48169511
 C      4   3   2     2.784888769124   117.20931745   178.26891702
 C      6   4   3     2.496862794153   126.10750968   335.53622605
 C      7   6   4     2.869455157742   125.45502052   358.09080253
 N      7   6   4     2.544653137963   121.13100281   185.25467007
 C      9   7   6     2.653473337119   123.01711525    22.25233013
 S     10   9   7     3.125967907075   125.04541312   167.73740568
 N     10   9   7     2.572657233381   112.91818132   344.91425390
 C     12  10   9     2.754895578085   124.89378989   342.60349904
 C     13  12  10     2.815728919493   112.96418169   275.75530678
 C     14  13  12     2.648200030891   119.54463122   273.14012803
 C     15  14  13     2.628774346574   122.67657496   176.13214390
 C     16  15  14     2.622665994179   120.03181561   357.97391634
 C     17  16  15     2.647068732422   117.92343235   359.14358807
 O     18  17  16     2.612869158727   116.69950510   174.25254390
 C     14  13  12     2.651815986479   122.10633044    85.16389428
 H      1   2   3     2.072841453572   113.00396319    54.31554210
 H      1   2   3     2.072840521576   110.20632793   285.48669779
 H      1   2   3     2.072842143360   105.92112944   167.21818173
 H      2   1   3     2.072841625786   108.31453169   123.04342565
 H      2   1   3     2.072840551145   113.76621242   238.00087005
 H      8   7   6     2.072845955901   111.63058161   324.78765685
 H      8   7   6     2.072841344673   115.79942792   206.00542502
 H      8   7   6     2.072840571424   110.99233813    82.90432524
 H      9   7   6     1.914103701792   121.98585310   194.24212314
 H     12  10   9     1.914109886096   120.62564229   189.86024121
 H     13  12  10     2.072848448878   106.47695622   160.60772699
 H     15  14  13     2.052242678300   115.28489623   350.70595434
 H     16  15  14     2.052242646582   117.92888303   185.38937870
 H     17  16  15     2.052243601979   122.84630881   181.90265618
 H     19  18  17     1.838704078149   104.90997196     3.38970455
 H     20  14  13     2.052242596161   119.94990754     7.26137619

---------------------
BASIS SET INFORMATION
---------------------
There are 5 groups of distinct atoms

 Group   1 Type C   : 18s5p2d1f contracted to 4s3p2d1f pattern {8811/311/11/1}
 Group   2 Type O   : 18s5p2d1f contracted to 4s3p2d1f pattern {8811/311/11/1}
 Group   3 Type N   : 18s5p2d1f contracted to 4s3p2d1f pattern {8811/311/11/1}
 Group   4 Type S   : 41s16p2d1f contracted to 5s4p2d1f pattern {13131311/7711/11/1}
 Group   5 Type H   : 5s2p1d contracted to 3s2p1d pattern {311/11/1}

Atom   0C    basis set group =>   1
Atom   1C    basis set group =>   1
Atom   2O    basis set group =>   2
Atom   3C    basis set group =>   1
Atom   4O    basis set group =>   2
Atom   5C    basis set group =>   1
Atom   6C    basis set group =>   1
Atom   7C    basis set group =>   1
Atom   8N    basis set group =>   3
Atom   9C    basis set group =>   1
Atom  10S    basis set group =>   4
Atom  11N    basis set group =>   3
Atom  12C    basis set group =>   1
Atom  13C    basis set group =>   1
Atom  14C    basis set group =>   1
Atom  15C    basis set group =>   1
Atom  16C    basis set group =>   1
Atom  17C    basis set group =>   1
Atom  18O    basis set group =>   2
Atom  19C    basis set group =>   1
Atom  20H    basis set group =>   5
Atom  21H    basis set group =>   5
Atom  22H    basis set group =>   5
Atom  23H    basis set group =>   5
Atom  24H    basis set group =>   5
Atom  25H    basis set group =>   5
Atom  26H    basis set group =>   5
Atom  27H    basis set group =>   5
Atom  28H    basis set group =>   5
Atom  29H    basis set group =>   5
Atom  30H    basis set group =>   5
Atom  31H    basis set group =>   5
Atom  32H    basis set group =>   5
Atom  33H    basis set group =>   5
Atom  34H    basis set group =>   5
Atom  35H    basis set group =>   5
---------------------------------
AUXILIARY/C BASIS SET INFORMATION
---------------------------------
There are 5 groups of distinct atoms

 Group   1 Type C   : 8s6p5d3f1g contracted to 8s6p5d3f1g pattern {11111111/111111/11111/111/1}
 Group   2 Type O   : 8s6p5d3f1g contracted to 8s6p5d3f1g pattern {11111111/111111/11111/111/1}
 Group   3 Type N   : 8s6p5d3f1g contracted to 8s6p5d3f1g pattern {11111111/111111/11111/111/1}
 Group   4 Type S   : 10s8p7d5f2g contracted to 10s8p7d5f2g pattern {1111111111/11111111/1111111/11111/11}
 Group   5 Type H   : 4s3p2d1f contracted to 4s3p2d1f pattern {1111/111/11/1}

Atom   0C    basis set group =>   1
Atom   1C    basis set group =>   1
Atom   2O    basis set group =>   2
Atom   3C    basis set group =>   1
Atom   4O    basis set group =>   2
Atom   5C    basis set group =>   1
Atom   6C    basis set group =>   1
Atom   7C    basis set group =>   1
Atom   8N    basis set group =>   3
Atom   9C    basis set group =>   1
Atom  10S    basis set group =>   4
Atom  11N    basis set group =>   3
Atom  12C    basis set group =>   1
Atom  13C    basis set group =>   1
Atom  14C    basis set group =>   1
Atom  15C    basis set group =>   1
Atom  16C    basis set group =>   1
Atom  17C    basis set group =>   1
Atom  18O    basis set group =>   2
Atom  19C    basis set group =>   1
Atom  20H    basis set group =>   5
Atom  21H    basis set group =>   5
Atom  22H    basis set group =>   5
Atom  23H    basis set group =>   5
Atom  24H    basis set group =>   5
Atom  25H    basis set group =>   5
Atom  26H    basis set group =>   5
Atom  27H    basis set group =>   5
Atom  28H    basis set group =>   5
Atom  29H    basis set group =>   5
Atom  30H    basis set group =>   5
Atom  31H    basis set group =>   5
Atom  32H    basis set group =>   5
Atom  33H    basis set group =>   5
Atom  34H    basis set group =>   5
Atom  35H    basis set group =>   5
------------------------------------------------------------------------------
                           ORCA GTO INTEGRAL CALCULATION
------------------------------------------------------------------------------
------------------------------------------------------------------------------
                   ___                                                        
                  /   \      - P O W E R E D   B Y -                         
                 /     \                                                     
                 |  |  |   _    _      __       _____    __    __             
                 |  |  |  | |  | |    /  \     |  _  \  |  |  /  |          
                  \  \/   | |  | |   /    \    | | | |  |  | /  /          
                 / \  \   | |__| |  /  /\  \   | |_| |  |  |/  /          
                |  |  |   |  __  | /  /__\  \  |    /   |      \           
                |  |  |   | |  | | |   __   |  |    \   |  |\   \          
                \     /   | |  | | |  |  |  |  | |\  \  |  | \   \       
                 \___/    |_|  |_| |__|  |__|  |_| \__\ |__|  \__/        
                                                                              
                      - O R C A' S   B I G   F R I E N D -                    
                                      &                                       
                       - I N T E G R A L  F E E D E R -                       
                                                                              
 v1 FN, 2020, v2 2021                                                         
------------------------------------------------------------------------------


Reading SHARK input file qm_input.vacu.SHARKINP.tmp ... ok
----------------------
SHARK INTEGRAL PACKAGE
----------------------

Number of atoms                             ...     36
Number of basis functions                   ...    828
Number of shells                            ...    298
Maximum angular momentum                    ...      3
Integral batch strategy                     ... SHARK/LIBINT Hybrid
RI-J (if used) integral strategy            ... SPLIT-RIJ (Revised 2003 algorithm where possible)
Printlevel                                  ...      1
Contraction scheme used                     ... SEGMENTED contraction
Coulomb Range Separation                    ... NOT USED
Exchange Range Separation                   ... NOT USED
Finite Nucleus Model                        ... NOT USED
Auxiliary Coulomb fitting basis             ... NOT available
Auxiliary J/K fitting basis                 ... NOT available
Auxiliary Correlation fitting basis         ... AVAILABLE
   # of basis functions in Aux-C            ...   2141
   # of shells in Aux-C                     ...    629
   Maximum angular momentum in Aux-C        ...      4
Auxiliary 'external' fitting basis          ... NOT available
Integral threshold                          ...     2.500000e-11
Primitive cut-off                           ...     2.500000e-12
Primitive pair pre-selection threshold      ...     2.500000e-12

Calculating pre-screening integrals         ... done (  0.6 sec) Dimension = 298
Organizing shell pair data                  ... done (  0.4 sec)
Shell pair information
Total number of shell pairs                 ...     44551
Shell pairs after pre-screening             ...     32297
Total number of primitive shell pairs       ...    234348
Primitive shell pairs kept                  ...     93668
          la=0 lb=0:   6480 shell pairs
          la=1 lb=0:   8996 shell pairs
          la=1 lb=1:   3172 shell pairs
          la=2 lb=0:   5145 shell pairs
          la=2 lb=1:   3527 shell pairs
          la=2 lb=2:    995 shell pairs
          la=3 lb=0:   1859 shell pairs
          la=3 lb=1:   1269 shell pairs
          la=3 lb=2:    711 shell pairs
          la=3 lb=3:    143 shell pairs

Calculating one electron integrals          ... done (  0.4 sec)
Calculating RI/C V-Matrix + Cholesky decomp.... done (  0.3 sec)
Calculating Nuclear repulsion               ... done (  0.0 sec) ENN=   1694.617085373854 Eh

SHARK setup successfully completed in   1.8 seconds

Maximum memory used throughout the entire GTOINT-calculation: 480.5 MB
-------------------------------------------------------------------------------
                                 ORCA SCF
-------------------------------------------------------------------------------

------------
SCF SETTINGS
------------
Hamiltonian:
 Ab initio Hamiltonian  Method          .... Hartree-Fock(GTOs)


General Settings:
 Integral files         IntName         .... qm_input.vacu
 Hartree-Fock type      HFTyp           .... RHF
 Total Charge           Charge          ....    0
 Multiplicity           Mult            ....    1
 Number of Electrons    NEL             ....  154
 Basis Dimension        Dim             ....  828
 Nuclear Repulsion      ENuc            ....   1694.6170853739 Eh

Convergence Acceleration:
 DIIS                   CNVDIIS         .... on
   Start iteration      DIISMaxIt       ....    12
   Startup error        DIISStart       ....  0.200000
   # of expansion vecs  DIISMaxEq       ....     5
   Bias factor          DIISBfac        ....   1.050
   Max. coefficient     DIISMaxC        ....  10.000
 Trust-Rad. Augm. Hess. CNVTRAH         .... auto
   Auto Start mean grad. ratio tolernc. ....  1.125000
   Auto Start start iteration           ....    20
   Auto Start num. interpolation iter.  ....    10
   Max. Number of Micro iterations      ....    16
   Max. Number of Macro iterations      .... Maxiter - #DIIS iter
   Number of Davidson start vectors     ....     2
   Converg. threshold I  (grad. norm)   ....   1.000e-05
   Converg. threshold II (energy diff.) ....   1.000e-08
   Grad. Scal. Fac. for Micro threshold ....   0.100
   Minimum threshold for Micro iter.    ....   0.010
   NR start threshold (gradient norm)   ....   0.001
   Initial trust radius                 ....   0.400
   Minimum AH scaling param. (alpha)    ....   1.000
   Maximum AH scaling param. (alpha)    .... 1000.000
   Orbital update algorithm             .... Taylor
   White noise on init. David. guess    .... on
   Maximum white noise                  ....   0.010
   Quad. conv. algorithm                .... NR
 SOSCF                  CNVSOSCF        .... on
   Start iteration      SOSCFMaxIt      ....   150
   Startup grad/error   SOSCFStart      ....  0.003300
 Level Shifting         CNVShift        .... on
   Level shift para.    LevelShift      ....    0.2500
   Turn off err/grad.   ShiftErr        ....    0.0010
 Zerner damping         CNVZerner       .... off
 Static damping         CNVDamp         .... on
   Fraction old density DampFac         ....    0.7000
   Max. Damping (<1)    DampMax         ....    0.9800
   Min. Damping (>=0)   DampMin         ....    0.0000
   Turn off err/grad.   DampErr         ....    0.1000
 Fernandez-Rico         CNVRico         .... off

SCF Procedure:
 Maximum # iterations   MaxIter         ....   125
 SCF integral mode      SCFMode         .... Direct
   Integral package                     .... SHARK and LIBINT hybrid scheme
 Reset frequency        DirectResetFreq ....    20
 Integral Threshold     Thresh          ....  2.500e-11 Eh
 Primitive CutOff       TCut            ....  2.500e-12 Eh

Convergence Tolerance:
 Convergence Check Mode ConvCheckMode   .... Total+1el-Energy
 Convergence forced     ConvForced      .... 1
 Energy Change          TolE            ....  1.000e-08 Eh
 1-El. energy change                    ....  1.000e-05 Eh
 Orbital Gradient       TolG            ....  1.000e-05
 Orbital Rotation angle TolX            ....  1.000e-05
 DIIS Error             TolErr          ....  5.000e-07


Diagonalization of the overlap matrix:
Smallest eigenvalue                        ... 3.522e-05
Time for diagonalization                   ...    0.137 sec
Threshold for overlap eigenvalues          ... 1.000e-08
Number of eigenvalues below threshold      ... 0
Time for construction of square roots      ...    0.068 sec
Total time needed                          ...    0.208 sec

Time for model grid setup =    1.445 sec

------------------------------
INITIAL GUESS: MODEL POTENTIAL
------------------------------
Loading Hartree-Fock densities                     ... done
Calculating cut-offs                               ... done
Initializing the effective Hamiltonian             ... done
Setting up the integral package (SHARK)            ... done
Starting the Coulomb interaction                   ... done (   4.4 sec)
Reading the grid                                   ... done
Mapping shells                                     ... done
Starting the XC term evaluation                    ... done (   1.4 sec)
Transforming the Hamiltonian                       ... done (   0.1 sec)
Diagonalizing the Hamiltonian                      ... done (   0.1 sec)
Back transforming the eigenvectors                 ... done (   0.0 sec)
Now organizing SCF variables                       ... done
                      ------------------
                      INITIAL GUESS DONE (   7.5 sec)
                      ------------------
--------------
SCF ITERATIONS
--------------
ITER       Energy         Delta-E        Max-DP      RMS-DP      [F,P]     Damp
               ***  Starting incremental Fock matrix formation  ***
  0  -1269.9811858132   0.000000000000 0.04933565  0.00045827  0.3130319 0.7000
  1  -1270.2549710367  -0.273785223495 0.03605887  0.00037593  0.1822881 0.7000
                               ***Turning on DIIS***
  2  -1270.4251458986  -0.170174861911 0.02579752  0.00024929  0.1095618 0.7000
  3  -1272.6072238456  -2.182077946968 0.06294232  0.00052129  0.0829387 0.0000
  4  -1270.7329888786   1.874234967024 0.01431209  0.00010812  0.0067282 0.0000
  5  -1270.8020337928  -0.069044914273 0.00647540  0.00005452  0.0042112 0.0000
                      *** Initiating the SOSCF procedure ***
                           *** Shutting down DIIS ***
                      *** Re-Reading the Fockian *** 
                      *** Removing any level shift *** 
ITER      Energy       Delta-E        Grad      Rot      Max-DP    RMS-DP
  6  -1270.78010823   0.0219255584  0.001761  0.001761  0.002673  0.000027
               *** Restarting incremental Fock matrix formation ***
  7  -1270.79378564  -0.0136774061  0.000799  0.001478  0.002053  0.000016
  8  -1270.79383194  -0.0000463035  0.000383  0.001772  0.001736  0.000017
  9  -1270.79384940  -0.0000174609  0.000141  0.000298  0.000352  0.000004
 10  -1270.79385151  -0.0000021016  0.000041  0.000102  0.000114  0.000001
 11  -1270.79385170  -0.0000001939  0.000018  0.000095  0.000103  0.000001
 12  -1270.79385176  -0.0000000552  0.000006  0.000023  0.000028  0.000000
                 **** Energy Check signals convergence ****
              ***Rediagonalizing the Fockian in SOSCF/NRSCF***

               *****************************************************
               *                     SUCCESS                       *
               *           SCF CONVERGED AFTER  13 CYCLES          *
               *****************************************************


----------------
TOTAL SCF ENERGY
----------------

Total Energy       :        -1270.79385176 Eh          -34580.05872 eV

Components:
Nuclear Repulsion  :         1694.61708537 Eh           46112.87523 eV
Electronic Energy  :        -2965.41093713 Eh          -80692.93395 eV
One Electron Energy:        -5110.36258363 Eh         -139060.03558 eV
Two Electron Energy:         2144.95164650 Eh           58367.10163 eV

Virial components:
Potential Energy   :        -2540.22856458 Eh          -69123.13339 eV
Kinetic Energy     :         1269.43471282 Eh           34543.07467 eV
Virial Ratio       :            2.00107066


---------------
SCF CONVERGENCE
---------------

  Last Energy change         ...    4.1064e-10  Tolerance :   1.0000e-08
  Last MAX-Density change    ...    4.8956e-06  Tolerance :   1.0000e-07
  Last RMS-Density change    ...    9.4902e-08  Tolerance :   5.0000e-09
  Last Orbital Gradient      ...    2.7526e-06  Tolerance :   1.0000e-05
  Last Orbital Rotation      ...    8.4859e-06  Tolerance :   1.0000e-05

             **** THE GBW FILE WAS UPDATED (qm_input.vacu.gbw) ****
             **** DENSITY qm_input.vacu.scfp WAS UPDATED ****
             **** ENERGY FILE WAS UPDATED (qm_input.vacu.en.tmp) ****
             **** THE GBW FILE WAS UPDATED (qm_input.vacu.gbw) ****
             **** DENSITY qm_input.vacu.scfp WAS UPDATED ****
----------------
ORBITAL ENERGIES
----------------

  NO   OCC          E(Eh)            E(eV) 
   0   2.0000     -91.894651     -2500.5806 
   1   2.0000     -20.594502      -560.4049 
   2   2.0000     -20.591471      -560.3224 
   3   2.0000     -20.538179      -558.8723 
   4   2.0000     -15.628507      -425.2733 
   5   2.0000     -15.606717      -424.6804 
   6   2.0000     -11.389478      -309.9234 
   7   2.0000     -11.389335      -309.9196 
   8   2.0000     -11.323898      -308.1389 
   9   2.0000     -11.314104      -307.8724 
  10   2.0000     -11.299462      -307.4740 
  11   2.0000     -11.292534      -307.2855 
  12   2.0000     -11.253867      -306.2333 
  13   2.0000     -11.252954      -306.2084 
  14   2.0000     -11.251038      -306.1563 
  15   2.0000     -11.249860      -306.1243 
  16   2.0000     -11.241978      -305.9098 
  17   2.0000     -11.239602      -305.8451 
  18   2.0000     -11.233541      -305.6802 
  19   2.0000     -11.232391      -305.6489 
  20   2.0000      -8.899300      -242.1623 
  21   2.0000      -6.580813      -179.0730 
  22   2.0000      -6.578873      -179.0202 
  23   2.0000      -6.578228      -179.0027 
  24   2.0000      -1.456744       -39.6400 
  25   2.0000      -1.402347       -38.1598 
  26   2.0000      -1.356852       -36.9218 
  27   2.0000      -1.349304       -36.7164 
  28   2.0000      -1.247583       -33.9485 
  29   2.0000      -1.162320       -31.6283 
  30   2.0000      -1.125448       -30.6250 
  31   2.0000      -1.050951       -28.5978 
  32   2.0000      -1.035661       -28.1818 
  33   2.0000      -1.012215       -27.5438 
  34   2.0000      -0.997926       -27.1549 
  35   2.0000      -0.991275       -26.9740 
  36   2.0000      -0.926451       -25.2100 
  37   2.0000      -0.898047       -24.4371 
  38   2.0000      -0.853526       -23.2256 
  39   2.0000      -0.841541       -22.8995 
  40   2.0000      -0.832958       -22.6659 
  41   2.0000      -0.814709       -22.1694 
  42   2.0000      -0.763969       -20.7887 
  43   2.0000      -0.743386       -20.2286 
  44   2.0000      -0.725440       -19.7402 
  45   2.0000      -0.700695       -19.0669 
  46   2.0000      -0.692625       -18.8473 
  47   2.0000      -0.679239       -18.4830 
  48   2.0000      -0.670392       -18.2423 
  49   2.0000      -0.662093       -18.0165 
  50   2.0000      -0.651158       -17.7189 
  51   2.0000      -0.641963       -17.4687 
  52   2.0000      -0.641341       -17.4518 
  53   2.0000      -0.610888       -16.6231 
  54   2.0000      -0.601649       -16.3717 
  55   2.0000      -0.597763       -16.2660 
  56   2.0000      -0.589349       -16.0370 
  57   2.0000      -0.581239       -15.8163 
  58   2.0000      -0.575494       -15.6600 
  59   2.0000      -0.561633       -15.2828 
  60   2.0000      -0.554423       -15.0866 
  61   2.0000      -0.546645       -14.8750 
  62   2.0000      -0.537543       -14.6273 
  63   2.0000      -0.531037       -14.4503 
  64   2.0000      -0.523887       -14.2557 
  65   2.0000      -0.512669       -13.9504 
  66   2.0000      -0.498916       -13.5762 
  67   2.0000      -0.491376       -13.3710 
  68   2.0000      -0.482750       -13.1363 
  69   2.0000      -0.460992       -12.5442 
  70   2.0000      -0.454038       -12.3550 
  71   2.0000      -0.446692       -12.1551 
  72   2.0000      -0.365076        -9.9342 
  73   2.0000      -0.352219        -9.5844 
  74   2.0000      -0.331386        -9.0175 
  75   2.0000      -0.320399        -8.7185 
  76   2.0000      -0.318143        -8.6571 
  77   0.0000       0.080083         2.1792 
  78   0.0000       0.109318         2.9747 
  79   0.0000       0.118622         3.2279 
  80   0.0000       0.130946         3.5632 
  81   0.0000       0.133092         3.6216 
  82   0.0000       0.138259         3.7622 
  83   0.0000       0.144612         3.9351 
  84   0.0000       0.151147         4.1129 
  85   0.0000       0.163955         4.4614 
  86   0.0000       0.171354         4.6628 
  87   0.0000       0.173264         4.7148 
  88   0.0000       0.186630         5.0785 
  89   0.0000       0.199226         5.4212 
  90   0.0000       0.205290         5.5862 
  91   0.0000       0.211372         5.7517 
  92   0.0000       0.216259         5.8847 
  93   0.0000       0.226325         6.1586 
  94   0.0000       0.231634         6.3031 
  95   0.0000       0.238526         6.4906 
  96   0.0000       0.245836         6.6895 
  97   0.0000       0.247634         6.7385 
  98   0.0000       0.276547         7.5252 
  99   0.0000       0.286875         7.8063 
 100   0.0000       0.292805         7.9676 
 101   0.0000       0.295386         8.0379 
 102   0.0000       0.317785         8.6474 
 103   0.0000       0.320389         8.7182 
 104   0.0000       0.325757         8.8643 
 105   0.0000       0.336145         9.1470 
 106   0.0000       0.341571         9.2946 
 107   0.0000       0.347188         9.4475 
 108   0.0000       0.351141         9.5550 
 109   0.0000       0.360112         9.7991 
 110   0.0000       0.368945        10.0395 
 111   0.0000       0.380961        10.3665 
 112   0.0000       0.388494        10.5715 
 113   0.0000       0.393390        10.7047 
 114   0.0000       0.402168        10.9435 
 115   0.0000       0.407165        11.0795 
 116   0.0000       0.413161        11.2427 
 117   0.0000       0.427391        11.6299 
 118   0.0000       0.431960        11.7542 
 119   0.0000       0.435373        11.8471 
 120   0.0000       0.438290        11.9265 
 121   0.0000       0.443061        12.0563 
 122   0.0000       0.450505        12.2589 
 123   0.0000       0.454703        12.3731 
 124   0.0000       0.466846        12.7035 
 125   0.0000       0.470132        12.7929 
 126   0.0000       0.473819        12.8933 
 127   0.0000       0.479829        13.0568 
 128   0.0000       0.488535        13.2937 
 129   0.0000       0.494439        13.4544 
 130   0.0000       0.501442        13.6449 
 131   0.0000       0.508615        13.8401 
 132   0.0000       0.515933        14.0392 
 133   0.0000       0.520508        14.1637 
 134   0.0000       0.523163        14.2360 
 135   0.0000       0.525220        14.2920 
 136   0.0000       0.535345        14.5675 
 137   0.0000       0.544185        14.8080 
 138   0.0000       0.545574        14.8458 
 139   0.0000       0.548806        14.9338 
 140   0.0000       0.553456        15.0603 
 141   0.0000       0.557744        15.1770 
 142   0.0000       0.565015        15.3748 
 143   0.0000       0.571969        15.5641 
 144   0.0000       0.575086        15.6489 
 145   0.0000       0.583375        15.8744 
 146   0.0000       0.587057        15.9746 
 147   0.0000       0.589291        16.0354 
 148   0.0000       0.592897        16.1335 
 149   0.0000       0.597986        16.2720 
 150   0.0000       0.602449        16.3935 
 151   0.0000       0.608582        16.5604 
 152   0.0000       0.611487        16.6394 
 153   0.0000       0.614839        16.7306 
 154   0.0000       0.616919        16.7872 
 155   0.0000       0.620902        16.8956 
 156   0.0000       0.625216        17.0130 
 157   0.0000       0.634728        17.2718 
 158   0.0000       0.641705        17.4617 
 159   0.0000       0.645675        17.5697 
 160   0.0000       0.648154        17.6372 
 161   0.0000       0.653142        17.7729 
 162   0.0000       0.656155        17.8549 
 163   0.0000       0.661473        17.9996 
 164   0.0000       0.666523        18.1370 
 165   0.0000       0.668834        18.1999 
 166   0.0000       0.675425        18.3792 
 167   0.0000       0.677556        18.4372 
 168   0.0000       0.684379        18.6229 
 169   0.0000       0.692571        18.8458 
 170   0.0000       0.698481        19.0066 
 171   0.0000       0.699694        19.0396 
 172   0.0000       0.707873        19.2622 
 173   0.0000       0.717659        19.5285 
 174   0.0000       0.723783        19.6951 
 175   0.0000       0.730310        19.8728 
 176   0.0000       0.735605        20.0168 
 177   0.0000       0.739938        20.1347 
 178   0.0000       0.750908        20.4332 
 179   0.0000       0.755525        20.5589 
 180   0.0000       0.767750        20.8915 
 181   0.0000       0.777333        21.1523 
 182   0.0000       0.788739        21.4627 
 183   0.0000       0.794930        21.6312 
 184   0.0000       0.801337        21.8055 
 185   0.0000       0.810544        22.0560 
 186   0.0000       0.819841        22.3090 
 187   0.0000       0.820803        22.3352 
 188   0.0000       0.833867        22.6907 
 189   0.0000       0.841891        22.9090 
 190   0.0000       0.849127        23.1059 
 191   0.0000       0.853925        23.2365 
 192   0.0000       0.858118        23.3506 
 193   0.0000       0.864998        23.5378 
 194   0.0000       0.878723        23.9113 
 195   0.0000       0.883404        24.0387 
 196   0.0000       0.885506        24.0959 
 197   0.0000       0.895252        24.3610 
 198   0.0000       0.903706        24.5911 
 199   0.0000       0.908983        24.7347 
 200   0.0000       0.912031        24.8176 
 201   0.0000       0.915939        24.9240 
 202   0.0000       0.920916        25.0594 
 203   0.0000       0.924697        25.1623 
 204   0.0000       0.931373        25.3440 
 205   0.0000       0.943057        25.6619 
 206   0.0000       0.955863        26.0104 
 207   0.0000       0.961242        26.1567 
 208   0.0000       0.972512        26.4634 
 209   0.0000       0.974619        26.5207 
 210   0.0000       0.980783        26.6885 
 211   0.0000       0.987952        26.8836 
 212   0.0000       0.993989        27.0478 
 213   0.0000       1.004022        27.3208 
 214   0.0000       1.006531        27.3891 
 215   0.0000       1.015671        27.6378 
 216   0.0000       1.017991        27.7010 
 217   0.0000       1.028388        27.9839 
 218   0.0000       1.041518        28.3412 
 219   0.0000       1.044856        28.4320 
 220   0.0000       1.048052        28.5189 
 221   0.0000       1.050117        28.5751 
 222   0.0000       1.063947        28.9515 
 223   0.0000       1.066457        29.0198 
 224   0.0000       1.071959        29.1695 
 225   0.0000       1.086020        29.5521 
 226   0.0000       1.090355        29.6701 
 227   0.0000       1.103949        30.0400 
 228   0.0000       1.107710        30.1423 
 229   0.0000       1.122046        30.5324 
 230   0.0000       1.127283        30.6749 
 231   0.0000       1.135186        30.8900 
 232   0.0000       1.136202        30.9176 
 233   0.0000       1.151745        31.3406 
 234   0.0000       1.162952        31.6455 
 235   0.0000       1.167279        31.7633 
 236   0.0000       1.178335        32.0641 
 237   0.0000       1.184574        32.2339 
 238   0.0000       1.189338        32.3635 
 239   0.0000       1.194969        32.5168 
 240   0.0000       1.201373        32.6910 
 241   0.0000       1.204248        32.7693 
 242   0.0000       1.215019        33.0624 
 243   0.0000       1.218409        33.1546 
 244   0.0000       1.224378        33.3170 
 245   0.0000       1.228635        33.4329 
 246   0.0000       1.234218        33.5848 
 247   0.0000       1.251651        34.0591 
 248   0.0000       1.252684        34.0873 
 249   0.0000       1.265245        34.4291 
 250   0.0000       1.274277        34.6748 
 251   0.0000       1.277990        34.7759 
 252   0.0000       1.284932        34.9648 
 253   0.0000       1.290556        35.1178 
 254   0.0000       1.295755        35.2593 
 255   0.0000       1.301451        35.4143 
 256   0.0000       1.315956        35.8090 
 257   0.0000       1.320104        35.9218 
 258   0.0000       1.331178        36.2232 
 259   0.0000       1.333815        36.2950 
 260   0.0000       1.341991        36.5174 
 261   0.0000       1.351190        36.7677 
 262   0.0000       1.355356        36.8811 
 263   0.0000       1.357432        36.9376 
 264   0.0000       1.369300        37.2605 
 265   0.0000       1.380570        37.5672 
 266   0.0000       1.389972        37.8231 
 267   0.0000       1.394542        37.9474 
 268   0.0000       1.400874        38.1197 
 269   0.0000       1.409533        38.3553 
 270   0.0000       1.419219        38.6189 
 271   0.0000       1.424558        38.7642 
 272   0.0000       1.428566        38.8733 
 273   0.0000       1.439273        39.1646 
 274   0.0000       1.449936        39.4548 
 275   0.0000       1.459651        39.7191 
 276   0.0000       1.469174        39.9783 
 277   0.0000       1.479181        40.2506 
 278   0.0000       1.484963        40.4079 
 279   0.0000       1.490645        40.5625 
 280   0.0000       1.494200        40.6593 
 281   0.0000       1.504224        40.9320 
 282   0.0000       1.505155        40.9573 
 283   0.0000       1.510499        41.1028 
 284   0.0000       1.518876        41.3307 
 285   0.0000       1.534108        41.7452 
 286   0.0000       1.541141        41.9366 
 287   0.0000       1.545610        42.0582 
 288   0.0000       1.546968        42.0951 
 289   0.0000       1.547275        42.1035 
 290   0.0000       1.553812        42.2814 
 291   0.0000       1.568275        42.6749 
 292   0.0000       1.574801        42.8525 
 293   0.0000       1.584043        43.1040 
 294   0.0000       1.587892        43.2088 
 295   0.0000       1.600479        43.5512 
 296   0.0000       1.604895        43.6714 
 297   0.0000       1.613737        43.9120 
 298   0.0000       1.621550        44.1246 
 299   0.0000       1.629016        44.3278 
 300   0.0000       1.634207        44.4690 
 301   0.0000       1.642325        44.6899 
 302   0.0000       1.646649        44.8076 
 303   0.0000       1.651642        44.9435 
 304   0.0000       1.660269        45.1782 
 305   0.0000       1.665338        45.3161 
 306   0.0000       1.676719        45.6258 
 307   0.0000       1.689017        45.9605 
 308   0.0000       1.691209        46.0201 
 309   0.0000       1.702393        46.3245 
 310   0.0000       1.711264        46.5659 
 311   0.0000       1.722788        46.8794 
 312   0.0000       1.729950        47.0743 
 313   0.0000       1.752054        47.6758 
 314   0.0000       1.755497        47.7695 
 315   0.0000       1.764912        48.0257 
 316   0.0000       1.772333        48.2276 
 317   0.0000       1.790596        48.7246 
 318   0.0000       1.798008        48.9263 
 319   0.0000       1.812278        49.3146 
 320   0.0000       1.815068        49.3905 
 321   0.0000       1.823307        49.6147 
 322   0.0000       1.835904        49.9575 
 323   0.0000       1.842654        50.1412 
 324   0.0000       1.864512        50.7359 
 325   0.0000       1.871376        50.9227 
 326   0.0000       1.889446        51.4144 
 327   0.0000       1.896667        51.6109 
 328   0.0000       1.901470        51.7416 
 329   0.0000       1.915744        52.1300 
 330   0.0000       1.926654        52.4269 
 331   0.0000       1.929693        52.5096 
 332   0.0000       1.935549        52.6690 
 333   0.0000       1.946976        52.9799 
 334   0.0000       1.959846        53.3301 
 335   0.0000       1.992114        54.2082 
 336   0.0000       1.994780        54.2807 
 337   0.0000       2.008037        54.6415 
 338   0.0000       2.012126        54.7527 
 339   0.0000       2.014085        54.8060 
 340   0.0000       2.026233        55.1366 
 341   0.0000       2.049414        55.7674 
 342   0.0000       2.059180        56.0331 
 343   0.0000       2.066517        56.2328 
 344   0.0000       2.081032        56.6278 
 345   0.0000       2.105437        57.2919 
 346   0.0000       2.119496        57.6744 
 347   0.0000       2.126756        57.8720 
 348   0.0000       2.155949        58.6664 
 349   0.0000       2.164366        58.8954 
 350   0.0000       2.171254        59.0828 
 351   0.0000       2.192152        59.6515 
 352   0.0000       2.211672        60.1827 
 353   0.0000       2.225316        60.5539 
 354   0.0000       2.237860        60.8953 
 355   0.0000       2.245070        61.0915 
 356   0.0000       2.266815        61.6832 
 357   0.0000       2.280930        62.0673 
 358   0.0000       2.284397        62.1616 
 359   0.0000       2.305432        62.7340 
 360   0.0000       2.309765        62.8519 
 361   0.0000       2.321401        63.1685 
 362   0.0000       2.335517        63.5526 
 363   0.0000       2.345074        63.8127 
 364   0.0000       2.361062        64.2478 
 365   0.0000       2.364098        64.3304 
 366   0.0000       2.372999        64.5726 
 367   0.0000       2.374477        64.6128 
 368   0.0000       2.386102        64.9291 
 369   0.0000       2.409671        65.5705 
 370   0.0000       2.442833        66.4729 
 371   0.0000       2.448567        66.6289 
 372   0.0000       2.466508        67.1171 
 373   0.0000       2.478734        67.4498 
 374   0.0000       2.492689        67.8295 
 375   0.0000       2.508833        68.2688 
 376   0.0000       2.529505        68.8313 
 377   0.0000       2.534784        68.9750 
 378   0.0000       2.538751        69.0829 
 379   0.0000       2.549472        69.3747 
 380   0.0000       2.566813        69.8465 
 381   0.0000       2.579530        70.1926 
 382   0.0000       2.592037        70.5329 
 383   0.0000       2.606554        70.9279 
 384   0.0000       2.613716        71.1228 
 385   0.0000       2.620031        71.2947 
 386   0.0000       2.628957        71.5376 
 387   0.0000       2.644629        71.9640 
 388   0.0000       2.666848        72.5686 
 389   0.0000       2.669559        72.6424 
 390   0.0000       2.678342        72.8814 
 391   0.0000       2.687813        73.1391 
 392   0.0000       2.699044        73.4447 
 393   0.0000       2.710835        73.7656 
 394   0.0000       2.718165        73.9650 
 395   0.0000       2.731890        74.3385 
 396   0.0000       2.735802        74.4450 
 397   0.0000       2.745763        74.7160 
 398   0.0000       2.754351        74.9497 
 399   0.0000       2.762002        75.1579 
 400   0.0000       2.772616        75.4467 
 401   0.0000       2.784533        75.7710 
 402   0.0000       2.792291        75.9821 
 403   0.0000       2.816861        76.6507 
 404   0.0000       2.823611        76.8343 
 405   0.0000       2.828968        76.9801 
 406   0.0000       2.837534        77.2132 
 407   0.0000       2.844639        77.4066 
 408   0.0000       2.852733        77.6268 
 409   0.0000       2.855881        77.7125 
 410   0.0000       2.862858        77.9023 
 411   0.0000       2.882438        78.4351 
 412   0.0000       2.894103        78.7525 
 413   0.0000       2.904216        79.0277 
 414   0.0000       2.910820        79.2075 
 415   0.0000       2.925306        79.6016 
 416   0.0000       2.931397        79.7674 
 417   0.0000       2.936153        79.8968 
 418   0.0000       2.942653        80.0737 
 419   0.0000       2.944529        80.1247 
 420   0.0000       2.962573        80.6157 
 421   0.0000       2.976027        80.9818 
 422   0.0000       2.980138        81.0937 
 423   0.0000       2.981750        81.1375 
 424   0.0000       2.995027        81.4988 
 425   0.0000       2.998042        81.5809 
 426   0.0000       3.003957        81.7418 
 427   0.0000       3.025467        82.3271 
 428   0.0000       3.038002        82.6682 
 429   0.0000       3.045958        82.8847 
 430   0.0000       3.051791        83.0435 
 431   0.0000       3.056821        83.1803 
 432   0.0000       3.061729        83.3139 
 433   0.0000       3.075134        83.6786 
 434   0.0000       3.083451        83.9050 
 435   0.0000       3.088538        84.0434 
 436   0.0000       3.093708        84.1841 
 437   0.0000       3.100878        84.3792 
 438   0.0000       3.103979        84.4636 
 439   0.0000       3.113294        84.7170 
 440   0.0000       3.119040        84.8734 
 441   0.0000       3.124903        85.0329 
 442   0.0000       3.136938        85.3604 
 443   0.0000       3.139017        85.4170 
 444   0.0000       3.147938        85.6597 
 445   0.0000       3.154971        85.8511 
 446   0.0000       3.164005        86.0969 
 447   0.0000       3.179885        86.5291 
 448   0.0000       3.192067        86.8606 
 449   0.0000       3.196997        86.9947 
 450   0.0000       3.200680        87.0949 
 451   0.0000       3.208412        87.3053 
 452   0.0000       3.216290        87.5197 
 453   0.0000       3.227320        87.8198 
 454   0.0000       3.230565        87.9081 
 455   0.0000       3.238907        88.1351 
 456   0.0000       3.242317        88.2279 
 457   0.0000       3.247481        88.3685 
 458   0.0000       3.254479        88.5589 
 459   0.0000       3.261479        88.7493 
 460   0.0000       3.267130        88.9031 
 461   0.0000       3.273511        89.0768 
 462   0.0000       3.276524        89.1588 
 463   0.0000       3.280207        89.2590 
 464   0.0000       3.288698        89.4900 
 465   0.0000       3.294027        89.6350 
 466   0.0000       3.302807        89.8740 
 467   0.0000       3.311312        90.1054 
 468   0.0000       3.324204        90.4562 
 469   0.0000       3.330327        90.6228 
 470   0.0000       3.339796        90.8805 
 471   0.0000       3.342603        90.9569 
 472   0.0000       3.349168        91.1355 
 473   0.0000       3.355878        91.3181 
 474   0.0000       3.360619        91.4471 
 475   0.0000       3.365637        91.5836 
 476   0.0000       3.376376        91.8759 
 477   0.0000       3.378955        91.9460 
 478   0.0000       3.385100        92.1133 
 479   0.0000       3.387768        92.1859 
 480   0.0000       3.393912        92.3530 
 481   0.0000       3.399443        92.5035 
 482   0.0000       3.404659        92.6455 
 483   0.0000       3.411533        92.8325 
 484   0.0000       3.414707        92.9189 
 485   0.0000       3.423281        93.1522 
 486   0.0000       3.431840        93.3851 
 487   0.0000       3.442528        93.6760 
 488   0.0000       3.445224        93.7493 
 489   0.0000       3.448606        93.8413 
 490   0.0000       3.452337        93.9429 
 491   0.0000       3.459652        94.1419 
 492   0.0000       3.462109        94.2088 
 493   0.0000       3.471384        94.4612 
 494   0.0000       3.477500        94.6276 
 495   0.0000       3.487313        94.8946 
 496   0.0000       3.499839        95.2355 
 497   0.0000       3.502510        95.3081 
 498   0.0000       3.509458        95.4972 
 499   0.0000       3.518926        95.7548 
 500   0.0000       3.525680        95.9386 
 501   0.0000       3.534269        96.1723 
 502   0.0000       3.538197        96.2792 
 503   0.0000       3.547406        96.5298 
 504   0.0000       3.555956        96.7625 
 505   0.0000       3.558456        96.8305 
 506   0.0000       3.562503        96.9406 
 507   0.0000       3.570097        97.1473 
 508   0.0000       3.574110        97.2565 
 509   0.0000       3.585323        97.5616 
 510   0.0000       3.588945        97.6602 
 511   0.0000       3.602324        98.0242 
 512   0.0000       3.606390        98.1349 
 513   0.0000       3.618331        98.4598 
 514   0.0000       3.619200        98.4834 
 515   0.0000       3.630634        98.7946 
 516   0.0000       3.635197        98.9188 
 517   0.0000       3.638214        99.0008 
 518   0.0000       3.650837        99.3443 
 519   0.0000       3.654177        99.4352 
 520   0.0000       3.659263        99.5736 
 521   0.0000       3.669217        99.8445 
 522   0.0000       3.675221       100.0079 
 523   0.0000       3.679059       100.1123 
 524   0.0000       3.681615       100.1818 
 525   0.0000       3.695508       100.5599 
 526   0.0000       3.700119       100.6854 
 527   0.0000       3.707208       100.8783 
 528   0.0000       3.711298       100.9895 
 529   0.0000       3.723075       101.3100 
 530   0.0000       3.725724       101.3821 
 531   0.0000       3.729076       101.4733 
 532   0.0000       3.739266       101.7506 
 533   0.0000       3.746910       101.9586 
 534   0.0000       3.752059       102.0987 
 535   0.0000       3.758072       102.2623 
 536   0.0000       3.759980       102.3143 
 537   0.0000       3.763855       102.4197 
 538   0.0000       3.770610       102.6035 
 539   0.0000       3.784315       102.9764 
 540   0.0000       3.797377       103.3319 
 541   0.0000       3.800270       103.4106 
 542   0.0000       3.806339       103.5757 
 543   0.0000       3.808912       103.6458 
 544   0.0000       3.811009       103.7028 
 545   0.0000       3.817210       103.8716 
 546   0.0000       3.829754       104.2129 
 547   0.0000       3.837894       104.4344 
 548   0.0000       3.844833       104.6232 
 549   0.0000       3.854710       104.8920 
 550   0.0000       3.860836       105.0587 
 551   0.0000       3.866517       105.2133 
 552   0.0000       3.877108       105.5015 
 553   0.0000       3.883829       105.6843 
 554   0.0000       3.896266       106.0228 
 555   0.0000       3.900886       106.1485 
 556   0.0000       3.916402       106.5707 
 557   0.0000       3.920467       106.6813 
 558   0.0000       3.925962       106.8309 
 559   0.0000       3.937554       107.1463 
 560   0.0000       3.950649       107.5026 
 561   0.0000       3.952842       107.5623 
 562   0.0000       3.968395       107.9855 
 563   0.0000       3.977069       108.2216 
 564   0.0000       3.985311       108.4458 
 565   0.0000       3.997172       108.7686 
 566   0.0000       4.003409       108.9383 
 567   0.0000       4.010589       109.1337 
 568   0.0000       4.014641       109.2439 
 569   0.0000       4.027125       109.5837 
 570   0.0000       4.030975       109.6884 
 571   0.0000       4.042963       110.0146 
 572   0.0000       4.046728       110.1171 
 573   0.0000       4.062717       110.5522 
 574   0.0000       4.068817       110.7181 
 575   0.0000       4.071667       110.7957 
 576   0.0000       4.087488       111.2262 
 577   0.0000       4.095199       111.4360 
 578   0.0000       4.102063       111.6228 
 579   0.0000       4.113458       111.9329 
 580   0.0000       4.122094       112.1679 
 581   0.0000       4.126776       112.2953 
 582   0.0000       4.132017       112.4379 
 583   0.0000       4.136846       112.5693 
 584   0.0000       4.148365       112.8828 
 585   0.0000       4.152979       113.0083 
 586   0.0000       4.156431       113.1022 
 587   0.0000       4.162510       113.2676 
 588   0.0000       4.175878       113.6314 
 589   0.0000       4.181347       113.7802 
 590   0.0000       4.183099       113.8279 
 591   0.0000       4.190339       114.0249 
 592   0.0000       4.195297       114.1598 
 593   0.0000       4.201883       114.3391 
 594   0.0000       4.208435       114.5173 
 595   0.0000       4.214150       114.6728 
 596   0.0000       4.225706       114.9873 
 597   0.0000       4.227871       115.0462 
 598   0.0000       4.241635       115.4208 
 599   0.0000       4.246690       115.5583 
 600   0.0000       4.254439       115.7692 
 601   0.0000       4.267750       116.1314 
 602   0.0000       4.271307       116.2282 
 603   0.0000       4.281264       116.4991 
 604   0.0000       4.293210       116.8242 
 605   0.0000       4.297140       116.9311 
 606   0.0000       4.310670       117.2993 
 607   0.0000       4.317146       117.4755 
 608   0.0000       4.329226       117.8042 
 609   0.0000       4.334301       117.9423 
 610   0.0000       4.341401       118.1355 
 611   0.0000       4.344235       118.2126 
 612   0.0000       4.351140       118.4005 
 613   0.0000       4.363893       118.7476 
 614   0.0000       4.369760       118.9072 
 615   0.0000       4.379963       119.1848 
 616   0.0000       4.392399       119.5233 
 617   0.0000       4.400603       119.7465 
 618   0.0000       4.409837       119.9978 
 619   0.0000       4.418379       120.2302 
 620   0.0000       4.426598       120.4538 
 621   0.0000       4.435544       120.6973 
 622   0.0000       4.443336       120.9093 
 623   0.0000       4.446535       120.9964 
 624   0.0000       4.448223       121.0423 
 625   0.0000       4.458349       121.3179 
 626   0.0000       4.462698       121.4362 
 627   0.0000       4.476017       121.7986 
 628   0.0000       4.483443       122.0007 
 629   0.0000       4.498112       122.3998 
 630   0.0000       4.504571       122.5756 
 631   0.0000       4.517658       122.9317 
 632   0.0000       4.526983       123.1855 
 633   0.0000       4.529817       123.2626 
 634   0.0000       4.536880       123.4548 
 635   0.0000       4.546439       123.7149 
 636   0.0000       4.555421       123.9593 
 637   0.0000       4.556152       123.9792 
 638   0.0000       4.569200       124.3343 
 639   0.0000       4.577232       124.5528 
 640   0.0000       4.596470       125.0763 
 641   0.0000       4.598813       125.1401 
 642   0.0000       4.608375       125.4003 
 643   0.0000       4.617498       125.6485 
 644   0.0000       4.622470       125.7838 
 645   0.0000       4.632051       126.0445 
 646   0.0000       4.635601       126.1411 
 647   0.0000       4.653023       126.6152 
 648   0.0000       4.654186       126.6468 
 649   0.0000       4.657868       126.7470 
 650   0.0000       4.670522       127.0914 
 651   0.0000       4.683678       127.4494 
 652   0.0000       4.690726       127.6412 
 653   0.0000       4.696701       127.8037 
 654   0.0000       4.702996       127.9750 
 655   0.0000       4.715915       128.3266 
 656   0.0000       4.723956       128.5454 
 657   0.0000       4.730495       128.7233 
 658   0.0000       4.759878       129.5229 
 659   0.0000       4.761820       129.5757 
 660   0.0000       4.781569       130.1131 
 661   0.0000       4.794940       130.4770 
 662   0.0000       4.805706       130.7699 
 663   0.0000       4.811703       130.9331 
 664   0.0000       4.852537       132.0443 
 665   0.0000       4.860389       132.2579 
 666   0.0000       4.871238       132.5531 
 667   0.0000       4.893410       133.1565 
 668   0.0000       4.900344       133.3451 
 669   0.0000       4.919917       133.8777 
 670   0.0000       4.922629       133.9515 
 671   0.0000       4.938415       134.3811 
 672   0.0000       4.945021       134.5609 
 673   0.0000       4.972730       135.3149 
 674   0.0000       4.982710       135.5864 
 675   0.0000       4.998810       136.0245 
 676   0.0000       5.009117       136.3050 
 677   0.0000       5.026100       136.7671 
 678   0.0000       5.029902       136.8706 
 679   0.0000       5.038973       137.1174 
 680   0.0000       5.059975       137.6889 
 681   0.0000       5.068807       137.9293 
 682   0.0000       5.078969       138.2058 
 683   0.0000       5.094454       138.6271 
 684   0.0000       5.103861       138.8831 
 685   0.0000       5.106715       138.9608 
 686   0.0000       5.132248       139.6556 
 687   0.0000       5.137568       139.8003 
 688   0.0000       5.144219       139.9813 
 689   0.0000       5.158758       140.3769 
 690   0.0000       5.168617       140.6452 
 691   0.0000       5.172860       140.7607 
 692   0.0000       5.198315       141.4533 
 693   0.0000       5.213526       141.8673 
 694   0.0000       5.218588       142.0050 
 695   0.0000       5.229901       142.3128 
 696   0.0000       5.238151       142.5373 
 697   0.0000       5.246216       142.7568 
 698   0.0000       5.257331       143.0593 
 699   0.0000       5.263908       143.2382 
 700   0.0000       5.284062       143.7866 
 701   0.0000       5.288903       143.9184 
 702   0.0000       5.293638       144.0472 
 703   0.0000       5.310106       144.4953 
 704   0.0000       5.333838       145.1411 
 705   0.0000       5.341952       145.3619 
 706   0.0000       5.352430       145.6470 
 707   0.0000       5.366835       146.0390 
 708   0.0000       5.387240       146.5942 
 709   0.0000       5.395871       146.8291 
 710   0.0000       5.403665       147.0412 
 711   0.0000       5.441191       148.0623 
 712   0.0000       5.450361       148.3119 
 713   0.0000       5.464413       148.6942 
 714   0.0000       5.478467       149.0767 
 715   0.0000       5.486106       149.2845 
 716   0.0000       5.503227       149.7504 
 717   0.0000       5.519884       150.2037 
 718   0.0000       5.540044       150.7523 
 719   0.0000       5.544644       150.8774 
 720   0.0000       5.552899       151.1021 
 721   0.0000       5.573383       151.6595 
 722   0.0000       5.583282       151.9288 
 723   0.0000       5.589627       152.1015 
 724   0.0000       5.594571       152.2360 
 725   0.0000       5.610356       152.6655 
 726   0.0000       5.620984       152.9547 
 727   0.0000       5.633462       153.2943 
 728   0.0000       5.645345       153.6176 
 729   0.0000       5.652991       153.8257 
 730   0.0000       5.660795       154.0381 
 731   0.0000       5.687955       154.7771 
 732   0.0000       5.701407       155.1432 
 733   0.0000       5.706765       155.2890 
 734   0.0000       5.714756       155.5064 
 735   0.0000       5.722107       155.7065 
 736   0.0000       5.731654       155.9662 
 737   0.0000       5.739479       156.1792 
 738   0.0000       5.758086       156.6855 
 739   0.0000       5.762238       156.7985 
 740   0.0000       5.766908       156.9256 
 741   0.0000       5.795398       157.7008 
 742   0.0000       5.808336       158.0529 
 743   0.0000       5.819660       158.3610 
 744   0.0000       5.838285       158.8678 
 745   0.0000       5.868680       159.6949 
 746   0.0000       5.888405       160.2317 
 747   0.0000       5.903137       160.6325 
 748   0.0000       5.920172       161.0961 
 749   0.0000       5.933918       161.4701 
 750   0.0000       5.969095       162.4273 
 751   0.0000       5.974555       162.5759 
 752   0.0000       5.988966       162.9680 
 753   0.0000       6.005905       163.4290 
 754   0.0000       6.024517       163.9355 
 755   0.0000       6.034233       164.1998 
 756   0.0000       6.064552       165.0248 
 757   0.0000       6.097524       165.9221 
 758   0.0000       6.120621       166.5506 
 759   0.0000       6.142818       167.1546 
 760   0.0000       6.155886       167.5102 
 761   0.0000       6.171281       167.9291 
 762   0.0000       6.219677       169.2460 
 763   0.0000       6.235317       169.6716 
 764   0.0000       6.254418       170.1914 
 765   0.0000       6.260160       170.3476 
 766   0.0000       6.282783       170.9632 
 767   0.0000       6.285060       171.0252 
 768   0.0000       6.335621       172.4010 
 769   0.0000       6.370661       173.3545 
 770   0.0000       6.382084       173.6653 
 771   0.0000       6.392007       173.9354 
 772   0.0000       6.404177       174.2665 
 773   0.0000       6.413583       174.5225 
 774   0.0000       6.472204       176.1176 
 775   0.0000       6.501291       176.9091 
 776   0.0000       6.533221       177.7780 
 777   0.0000       6.575818       178.9371 
 778   0.0000       6.588779       179.2898 
 779   0.0000       6.614694       179.9950 
 780   0.0000       6.675061       181.6376 
 781   0.0000       6.718660       182.8240 
 782   0.0000       6.740343       183.4141 
 783   0.0000       6.809466       185.2950 
 784   0.0000       6.837057       186.0458 
 785   0.0000       6.866608       186.8499 
 786   0.0000       6.902518       187.8271 
 787   0.0000       6.916768       188.2148 
 788   0.0000       6.973691       189.7638 
 789   0.0000       7.013256       190.8404 
 790   0.0000       7.032524       191.3647 
 791   0.0000       7.064020       192.2218 
 792   0.0000       7.094646       193.0551 
 793   0.0000       7.169876       195.1023 
 794   0.0000       7.205276       196.0655 
 795   0.0000       7.207833       196.1351 
 796   0.0000       7.270610       197.8434 
 797   0.0000       7.278713       198.0639 
 798   0.0000       7.337944       199.6756 
 799   0.0000       7.368608       200.5100 
 800   0.0000       7.472084       203.3258 
 801   0.0000       7.566853       205.9045 
 802   0.0000       7.585963       206.4245 
 803   0.0000       7.601668       206.8519 
 804   0.0000       7.692590       209.3260 
 805   0.0000       7.777162       211.6273 
 806   0.0000       7.881039       214.4540 
 807   0.0000       7.888817       214.6656 
 808   0.0000       7.982608       217.2178 
 809   0.0000       9.423902       256.4374 
 810   0.0000       9.919001       269.9097 
 811   0.0000      10.835345       294.8447 
 812   0.0000      11.565199       314.7051 
 813   0.0000      12.028931       327.3238 
 814   0.0000      12.589011       342.5644 
 815   0.0000      12.703695       345.6851 
 816   0.0000      13.116294       356.9125 
 817   0.0000      13.212786       359.5382 
 818   0.0000      13.361811       363.5934 
 819   0.0000      13.519188       367.8758 
 820   0.0000      13.770305       374.7090 
 821   0.0000      13.885682       377.8486 
 822   0.0000      13.997062       380.8794 
 823   0.0000      14.110189       383.9578 
 824   0.0000      14.361569       390.7982 
 825   0.0000      14.667436       399.1212 
 826   0.0000      15.460632       420.7052 
 827   0.0000      15.990162       435.1144 

                    ********************************
                    * MULLIKEN POPULATION ANALYSIS *
                    ********************************

-----------------------
MULLIKEN ATOMIC CHARGES
-----------------------
   0 C :   -0.261800
   1 C :    0.013091
   2 O :   -0.326862
   3 C :    0.462962
   4 O :   -0.432963
   5 C :   -0.167419
   6 C :    0.089312
   7 C :   -0.303043
   8 N :   -0.117927
   9 C :    0.211937
  10 S :   -0.417064
  11 N :   -0.166427
  12 C :   -0.012344
  13 C :    0.134276
  14 C :   -0.205257
  15 C :   -0.115185
  16 C :   -0.268441
  17 C :    0.302952
  18 O :   -0.372402
  19 C :   -0.261137
  20 H :    0.093270
  21 H :    0.105795
  22 H :    0.086177
  23 H :    0.114651
  24 H :    0.082878
  25 H :    0.122475
  26 H :    0.112720
  27 H :    0.125207
  28 H :    0.197518
  29 H :    0.180828
  30 H :    0.158733
  31 H :    0.138642
  32 H :    0.156410
  33 H :    0.129108
  34 H :    0.241500
  35 H :    0.167829
Sum of atomic charges:   -0.0000000

--------------------------------
MULLIKEN REDUCED ORBITAL CHARGES
--------------------------------
  0 C s       :     3.254368  s :     3.254368
      pz      :     1.007754  p :     2.929846
      px      :     0.962802
      py      :     0.959290
      dz2     :     0.010585  d :     0.073197
      dxz     :     0.012698
      dyz     :     0.019483
      dx2y2   :     0.012173
      dxy     :     0.018257
      f0      :     0.000366  f :     0.004389
      f+1     :     0.000215
      f-1     :     0.001184
      f+2     :     0.000255
      f-2     :     0.000869
      f+3     :     0.000797
      f-3     :     0.000703
  1 C s       :     3.183875  s :     3.183875
      pz      :     0.877483  p :     2.634104
      px      :     0.966661
      py      :     0.789960
      dz2     :     0.026629  d :     0.156503
      dxz     :     0.026882
      dyz     :     0.037223
      dx2y2   :     0.033196
      dxy     :     0.032573
      f0      :     0.001213  f :     0.012427
      f+1     :     0.001011
      f-1     :     0.002597
      f+2     :     0.001718
      f-2     :     0.002439
      f+3     :     0.001496
      f-3     :     0.001954
  2 O s       :     3.690621  s :     3.690621
      pz      :     1.474566  p :     4.600035
      px      :     1.640571
      py      :     1.484897
      dz2     :     0.005714  d :     0.033715
      dxz     :     0.008813
      dyz     :     0.005630
      dx2y2   :     0.003872
      dxy     :     0.009685
      f0      :     0.000301  f :     0.002492
      f+1     :     0.000250
      f-1     :     0.000537
      f+2     :     0.000441
      f-2     :     0.000623
      f+3     :     0.000185
      f-3     :     0.000155
  3 C s       :     3.070470  s :     3.070470
      pz      :     0.659421  p :     2.141713
      px      :     0.739043
      py      :     0.743250
      dz2     :     0.058062  d :     0.297760
[...]
 15 C s       :     2.698420  s :     2.698420
      pz      :     0.955812  p :     2.792000
      px      :     0.971940
      py      :     0.864247
      dz2     :     0.085200  d :     0.427847
      dxz     :     0.137487
      dyz     :     0.047084
      dx2y2   :     0.083659
      dxy     :     0.074416
      f0      :     0.007940  f :     0.043499
      f+1     :     0.006534
      f-1     :     0.004772
      f+2     :     0.007134
      f-2     :     0.005571
      f+3     :     0.005793
      f-3     :     0.005753
 16 C s       :     2.698473  s :     2.698473
      pz      :     0.954309  p :     2.864313
      px      :     0.988133
      py      :     0.921871
      dz2     :     0.072872  d :     0.395621
      dxz     :     0.127477
      dyz     :     0.056672
      dx2y2   :     0.062197
      dxy     :     0.076403
      f0      :     0.007639  f :     0.041767
      f+1     :     0.006953
      f-1     :     0.004145
      f+2     :     0.006110
      f-2     :     0.006057
      f+3     :     0.006146
      f-3     :     0.004717
 17 C s       :     2.709630  s :     2.709630
      pz      :     1.008614  p :     2.671126
      px      :     0.813335
      py      :     0.849176
      dz2     :     0.142277  d :     0.683512
      dxz     :     0.163296
      dyz     :     0.099028
      dx2y2   :     0.143978
      dxy     :     0.134933
      f0      :     0.016877  f :     0.094092
      f+1     :     0.011941
      f-1     :     0.008682
      f+2     :     0.010936
      f-2     :     0.013779
      f+3     :     0.019166
      f-3     :     0.012711
 18 O s       :     3.196938  s :     3.196938
      pz      :     1.457680  p :     4.364530
      px      :     1.414715
      py      :     1.492135
      dz2     :     0.014714  d :     0.071461
      dxz     :     0.011406
      dyz     :     0.013082
      dx2y2   :     0.015541
      dxy     :     0.016717
      f0      :     0.000689  f :     0.004848
      f+1     :     0.000772
      f-1     :     0.000661
      f+2     :     0.000573
      f-2     :     0.000505
      f+3     :     0.000826
      f-3     :     0.000822
 19 C s       :     2.697153  s :     2.697153
      pz      :     0.953043  p :     2.842129
      px      :     0.973352
      py      :     0.915734
      dz2     :     0.075262  d :     0.383575
      dxz     :     0.127030
      dyz     :     0.046850
      dx2y2   :     0.069056
      dxy     :     0.065377
      f0      :     0.006813  f :     0.040092
      f+1     :     0.006359
      f-1     :     0.004817
      f+2     :     0.006165
      f-2     :     0.005282
      f+3     :     0.005232
      f-3     :     0.005425
 20 H s       :     0.852033  s :     0.852033
      pz      :     0.043498  p :     0.151454
      px      :     0.065451
      py      :     0.042505
      dz2     :     0.003721  d :     0.027406
      dxz     :     0.007307
      dyz     :     0.002339
      dx2y2   :     0.006695
      dxy     :     0.007344
 21 H s       :     0.848434  s :     0.848434
      pz      :     0.061927  p :     0.149709
      px      :     0.037534
      py      :     0.050248
      dz2     :     0.008185  d :     0.027188
      dxz     :     0.005960
      dyz     :     0.007576
      dx2y2   :     0.002380
      dxy     :     0.003086
 22 H s       :     0.842245  s :     0.842245
      pz      :     0.057142  p :     0.153237
      px      :     0.044686
      py      :     0.051410
      dz2     :     0.008084  d :     0.027954
      dxz     :     0.005041
      dyz     :     0.006698
      dx2y2   :     0.003778
      dxy     :     0.004352
 23 H s       :     0.849050  s :     0.849050
      pz      :     0.041797  p :     0.151249
      px      :     0.068772
      py      :     0.040680
      dz2     :     0.004082  d :     0.027714
      dxz     :     0.005569
      dyz     :     0.003540
      dx2y2   :     0.007356
      dxy     :     0.007167
 24 H s       :     0.861927  s :     0.861927
      pz      :     0.065769  p :     0.146649
      px      :     0.044833
      py      :     0.036047
      dz2     :     0.008125  d :     0.027245
      dxz     :     0.007730
      dyz     :     0.006750
      dx2y2   :     0.001599
      dxy     :     0.003042
 25 H s       :     0.827545  s :     0.827545
      pz      :     0.053433  p :     0.154659
      px      :     0.055606
      py      :     0.045620
      dz2     :     0.007561  d :     0.028312
      dxz     :     0.006976
      dyz     :     0.004516
      dx2y2   :     0.003796
      dxy     :     0.005462
 26 H s       :     0.841083  s :     0.841083
      pz      :     0.040054  p :     0.150872
      px      :     0.049908
      py      :     0.060910
      dz2     :     0.003684  d :     0.027700
      dxz     :     0.003262
      dyz     :     0.006365
      dx2y2   :     0.007266
      dxy     :     0.007123
 27 H s       :     0.832627  s :     0.832627
      pz      :     0.037705  p :     0.152748
      px      :     0.053454
      py      :     0.061589
      dz2     :     0.002338  d :     0.027823
      dxz     :     0.004051
      dyz     :     0.004823
      dx2y2   :     0.009375
      dxy     :     0.007236
 28 H s       :     0.740276  s :     0.740276
      pz      :     0.066751  p :     0.248140
      px      :     0.110238
      py      :     0.071151
      dz2     :     0.006498  d :     0.060264
      dxz     :     0.015656
      dyz     :     0.004365
      dx2y2   :     0.018101
      dxy     :     0.015643
 29 H s       :     0.748506  s :     0.748506
      pz      :     0.113692  p :     0.250603
      px      :     0.076523
      py      :     0.060388
      dz2     :     0.021305  d :     0.060941
      dxz     :     0.013488
      dyz     :     0.011043
      dx2y2   :     0.007297
      dxy     :     0.007808
 30 H s       :     0.822093  s :     0.822093
      pz      :     0.034570  p :     0.147732
      px      :     0.081587
      py      :     0.031575
      dz2     :     0.003020  d :     0.028767
      dxz     :     0.009148
      dyz     :     0.000209
      dx2y2   :     0.008457
      dxy     :     0.007933
 31 H s       :     0.842683  s :     0.842683
      pz      :     0.034430  p :     0.158595
      px      :     0.074992
      py      :     0.049174
      dz2     :     0.002754  d :     0.027884
      dxz     :     0.008102
      dyz     :     0.001019
      dx2y2   :     0.007921
      dxy     :     0.008089
 32 H s       :     0.840146  s :     0.840146
      pz      :     0.065291  p :     0.151755
      px      :     0.047991
      py      :     0.038473
      dz2     :     0.008408  d :     0.026790
      dxz     :     0.007863
      dyz     :     0.005474
      dx2y2   :     0.002683
      dxy     :     0.002361
 33 H s       :     0.846652  s :     0.846652
      pz      :     0.061598  p :     0.157169
      px      :     0.040280
      py      :     0.055291
      dz2     :     0.007849  d :     0.027592
      dxz     :     0.005978
      dyz     :     0.006442
      dx2y2   :     0.003757
      dxy     :     0.003565
 34 H s       :     0.708257  s :     0.708257
      pz      :     0.160241  p :     0.349039
      px      :     0.077138
      py      :     0.111660
      dz2     :     0.033556  d :     0.099157
      dxz     :     0.022125
      dyz     :     0.026326
      dx2y2   :     0.008975
      dxy     :     0.008175
 35 H s       :     0.836250  s :     0.836250
      pz      :     0.070739  p :     0.164521
      px      :     0.048039
      py      :     0.045743
      dz2     :     0.008202  d :     0.028170
      dxz     :     0.008157
      dyz     :     0.005864
      dx2y2   :     0.002890
      dxy     :     0.003057


                      *****************************
                      * MAYER POPULATION ANALYSIS *
                      *****************************

  NA   - Mulliken gross atomic population
  ZA   - Total nuclear charge
  QA   - Mulliken gross atomic charge
  VA   - Mayer's total valence
  BVA  - Mayer's bonded valence
  FA   - Mayer's free valence

  ATOM       NA         ZA         QA         VA         BVA        FA
  0 C      6.2618     6.0000    -0.2618     3.8981     3.8981     0.0000
  1 C      5.9869     6.0000     0.0131     3.8682     3.8682     0.0000
  2 O      8.3269     8.0000    -0.3269     2.0618     2.0618     0.0000
  3 C      5.5370     6.0000     0.4630     4.1783     4.1783    -0.0000
  4 O      8.4330     8.0000    -0.4330     2.0896     2.0896     0.0000
  5 C      6.1674     6.0000    -0.1674     3.5683     3.5683     0.0000
  6 C      5.9107     6.0000     0.0893     3.8580     3.8580    -0.0000
  7 C      6.3030     6.0000    -0.3030     3.8839     3.8839    -0.0000
  8 N      7.1179     7.0000    -0.1179     3.2778     3.2778     0.0000
  9 C      5.7881     6.0000     0.2119     4.1423     4.1423     0.0000
 10 S     16.4171    16.0000    -0.4171     1.7823     1.7823    -0.0000
 11 N      7.1664     7.0000    -0.1664     3.2269     3.2269     0.0000
 12 C      6.0123     6.0000    -0.0123     3.9860     3.9860     0.0000
 13 C      5.8657     6.0000     0.1343     3.7016     3.7016    -0.0000
 14 C      6.2053     6.0000    -0.2053     3.8727     3.8727     0.0000
 15 C      6.1152     6.0000    -0.1152     3.8069     3.8069     0.0000
 16 C      6.2684     6.0000    -0.2684     3.8019     3.8019    -0.0000
 17 C      5.6970     6.0000     0.3030     3.8628     3.8628    -0.0000
 18 O      8.3724     8.0000    -0.3724     2.1000     2.1000     0.0000
 19 C      6.2611     6.0000    -0.2611     3.8376     3.8376    -0.0000
 20 H      0.9067     1.0000     0.0933     0.9840     0.9840    -0.0000
 21 H      0.8942     1.0000     0.1058     0.9857     0.9857    -0.0000
 22 H      0.9138     1.0000     0.0862     0.9821     0.9821     0.0000
 23 H      0.8853     1.0000     0.1147     0.9827     0.9827    -0.0000
 24 H      0.9171     1.0000     0.0829     0.9725     0.9725    -0.0000
 25 H      0.8775     1.0000     0.1225     0.9852     0.9852    -0.0000
 26 H      0.8873     1.0000     0.1127     0.9848     0.9848    -0.0000
 27 H      0.8748     1.0000     0.1252     0.9755     0.9755     0.0000
 28 H      0.8025     1.0000     0.1975     1.0183     1.0183     0.0000
 29 H      0.8192     1.0000     0.1808     1.0212     1.0212    -0.0000
 30 H      0.8413     1.0000     0.1587     1.0062     1.0062     0.0000
 31 H      0.8614     1.0000     0.1386     0.9871     0.9871     0.0000
 32 H      0.8436     1.0000     0.1564     0.9771     0.9771     0.0000
 33 H      0.8709     1.0000     0.1291     0.9922     0.9922    -0.0000
 34 H      0.7585     1.0000     0.2415     1.0112     1.0112    -0.0000
 35 H      0.8322     1.0000     0.1678     0.9861     0.9861     0.0000

  Mayer bond orders larger than 0.100000
B(  0-C ,  1-C ) :   0.9708 B(  0-C , 20-H ) :   0.9786 B(  0-C , 21-H ) :   0.9791 
B(  0-C , 22-H ) :   0.9757 B(  1-C ,  2-O ) :   0.9077 B(  1-C , 23-H ) :   0.9761 
B(  1-C , 24-H ) :   0.9824 B(  2-O ,  3-C ) :   1.1636 B(  3-C ,  4-O ) :   1.9764 
B(  3-C ,  5-C ) :   1.0287 B(  5-C ,  6-C ) :   1.6342 B(  5-C , 12-C ) :   0.9699 
B(  6-C ,  7-C ) :   0.9583 B(  6-C ,  8-N ) :   1.1757 B(  7-C , 25-H ) :   0.9715 
B(  7-C , 26-H ) :   0.9859 B(  7-C , 27-H ) :   0.9646 B(  8-N ,  9-C ) :   1.1385 
B(  8-N , 28-H ) :   0.9533 B(  9-C , 10-S ) :   1.6414 B(  9-C , 11-N ) :   1.3040 
B( 11-N , 12-C ) :   0.9514 B( 11-N , 29-H ) :   0.9605 B( 12-C , 13-C ) :   0.9692 
B( 12-C , 30-H ) :   0.9999 B( 13-C , 14-C ) :   1.3434 B( 13-C , 19-C ) :   1.3699 
B( 14-C , 15-C ) :   1.3999 B( 14-C , 31-H ) :   0.9764 B( 15-C , 16-C ) :   1.3611 
B( 15-C , 32-H ) :   0.9694 B( 16-C , 17-C ) :   1.3400 B( 16-C , 33-H ) :   0.9873 
B( 17-C , 18-O ) :   1.0876 B( 17-C , 19-C ) :   1.3758 B( 18-O , 34-H ) :   0.9804 
B( 19-C , 35-H ) :   0.9534 

-------
TIMINGS
-------

Total SCF time: 0 days 1 hours 45 min 16 sec 

Total time                  ....    6316.050 sec
Sum of individual times     ....    6312.865 sec  ( 99.9%)

Fock matrix formation       ....    6300.338 sec  ( 99.8%)
Diagonalization             ....       1.415 sec  (  0.0%)
Density matrix formation    ....       0.185 sec  (  0.0%)
Population analysis         ....       0.280 sec  (  0.0%)
Initial guess               ....       6.071 sec  (  0.1%)
Orbital Transformation      ....       0.000 sec  (  0.0%)
Orbital Orthonormalization  ....       0.000 sec  (  0.0%)
DIIS solution               ....       1.468 sec  (  0.0%)
SOSCF solution              ....       1.663 sec  (  0.0%)

Maximum memory used throughout the entire SCF-calculation: 722.9 MB

------------------------------------------------------------------------------
                                ORCA  MP2 
------------------------------------------------------------------------------

Freezing NCore=48 chemical core electrons

-------------
RI-MP2 ENERGY
-------------
Dimension of the basis                    ...  828
Memory devoted to MP2                     ...  256 MB   
Data format for buffers                   ... DOUBLE
Compression type for matrix containers    ... UNCOMPRESSED
Overall scaling of the MP2 energy         ...   1.000e+00
Calculating two index integrals           ... done (    0.042 sec)
Cholesky decomposition of V**-1           ... done (    0.553 sec)

-----------------
RI-TRANSFORMATION (AUX index driven)
-----------------

Dimension of the orbital-basis         ... 828
Dimension of the aux-basis             ... 2141
Transformation of internal/external MOs...   24-  76 to   77- 827
Number Format for Storage              ... Double (8 Byte)
Integral mode                          ... Direct

First Phase: integral generation and transformation of MO indices
  Aux angular momentum 0               ... done (    4.822 sec)
  Aux angular momentum 1               ... done (    8.196 sec)
  Aux angular momentum 2               ... done (   10.752 sec)
  Aux angular momentum 3               ... done (    8.662 sec)
  Aux angular momentum 4               ... done (    3.005 sec)
Closing buffer VIA ( 0.63 GB; CompressionRatio= 1.00)
  Phase 1 completed in    35.606 sec
Second Phase: sorting and transformation of aux index

IA-Transformation
Memory available                       ... 158 MB 
Max. # MO pairs treated in a batch     ... 11    
# of internal orbitals                 ... 53
# batches for internal orbitals        ... 5
Closing buffer IAV ( 0.63 GB; CompressionRatio= 1.00)
(ia|v) transformation done in    19.905 sec

  Phase 2 completed in    19.913 sec
RI-Integral transformation completed in    55.524 sec
Opening buffers                              ... done

Starting loop over batches of integrals:

Operator 0  - window                       ... ( 24- 76)x( 77-827)
Operator 0  - Memory available             ...   256 MB
Operator 0  - Memory needed per MO         ...  12.3 MB
Operator 0  - Number of orbitals per batch ... 13
Operator 0  - Number of batches            ... 5

OPERATOR  0   PASS   0:  MOs    24 ...   36
  Reading integrals       ... ok
  Internal MO  26
  Internal MO  29
  Internal MO  32
  Internal MO  35
OPERATOR  0   PASS   1:  MOs    37 ...   49
  Reading integrals       ... ok
  Internal MO  38
  Internal MO  41
  Internal MO  44
  Internal MO  47
OPERATOR  0   PASS   2:  MOs    50 ...   62
  Reading integrals       ... ok
  Internal MO  50
  Internal MO  53
  Internal MO  56
  Internal MO  59
  Internal MO  62
OPERATOR  0   PASS   3:  MOs    63 ...   75
  Reading integrals       ... ok
  Internal MO  65
  Internal MO  68
  Internal MO  71
  Internal MO  74
OPERATOR  0   PASS   4:  MOs    76 ...   76
  Reading integrals       ... ok
Time spent in pair loops =    90.054 sec
Deleting buffer (Ka|jb)[aa] ...done

-----------------------------------------------
 RI-MP2 CORRELATION ENERGY:     -3.531452589 Eh
-----------------------------------------------


-------
TIMINGS
-------

Total time                :  146.272 sec
Integral trafo            :   55.544 sec ( 38.0%)
I/O of integrals          :    1.015 sec (  0.7%)
K(i,j) Operators          :   62.525 sec ( 42.7%)
T(i,j) pair energies      :    7.800 sec (  5.3%)
V-calculation             :    0.042 sec (  0.0%)
V**(-1/2)                 :    0.553 sec (  0.4%)
Gamma(ia|P)               :    0.000 sec (  0.0%)
Gamma-Trafo               :    0.000 sec (  0.0%)
D(virtual)                :    0.000 sec (  0.0%)
D(internal)               :    0.000 sec (  0.0%)
W(virtual)                :    0.000 sec (  0.0%)
W(internal)               :    0.000 sec (  0.0%)
L(virtual)                :    0.000 sec (  0.0%)
L(internal)               :    0.000 sec (  0.0%)
G(D)                      :    0.000 sec (  0.0%)
G(Z)                      :    0.000 sec (  0.0%)
Z-Vector Solution         :    0.000 sec (  0.0%)
3-Index Derivative        :    0.000 sec (  0.0%)
2-Index Derivative        :    0.000 sec (  0.0%)
Separable Gradient        :    0.000 sec (  0.0%)


---------------------------------------
MP2 TOTAL ENERGY:    -1274.325304344 Eh
---------------------------------------

Maximum memory used throughout the entire MP2-calculation: 303.2 MB

-------------------------   --------------------
FINAL SINGLE POINT ENERGY     -1274.325304344071
-------------------------   --------------------


                            ***************************************
                            *     ORCA property calculations      *
                            ***************************************


  WARNING: The energy has been calculated at the MP2 level but the densities
           used in the property calculations are still SCF densities
           MP2 response densities have not been calculated 
           use %mp2 Density relaxed end
           or  %mp2 Density unrelaxed end

                                    ---------------------
                                    Active property flags
                                    ---------------------
   (+) Dipole Moment


------------------------------------------------------------------------------
                       ORCA ELECTRIC PROPERTIES CALCULATION
------------------------------------------------------------------------------

Dipole Moment Calculation                       ... on
Quadrupole Moment Calculation                   ... off
Polarizability Calculation                      ... off
GBWName                                         ... qm_input.vacu.gbw
Electron density file                           ... qm_input.vacu.scfp
The origin for moment calculation is the CENTER OF MASS  = (23.640063, -18.267724 11.547429)

-------------
DIPOLE MOMENT
-------------
                                X             Y             Z
Electronic contribution:      0.54621      14.07785      11.33908
Nuclear contribution   :     -0.90932     -15.61203     -11.93244
                        -----------------------------------------
Total Dipole Moment    :     -0.36310      -1.53418      -0.59336
                        -----------------------------------------
Magnitude (a.u.)       :      1.68452
Magnitude (Debye)      :      4.28171



--------------------
Rotational spectrum 
--------------------
 
Rotational constants in cm-1:     0.011006     0.008436     0.006042 
Rotational constants in MHz :   329.941519   252.901521   181.131403 

 Dipole components along the rotational axes: 
x,y,z [a.u.] :    -1.289234    -0.905087     0.596912 
x,y,z [Debye]:    -3.276973    -2.300549     1.517229 

 

Timings for individual modules:

Sum of individual times         ...     6464.640 sec (= 107.744 min)
GTO integral calculation        ...        1.824 sec (=   0.030 min)   0.0 %
SCF iterations                  ...     6316.135 sec (= 105.269 min)  97.7 %
MP2 module                      ...      146.681 sec (=   2.445 min)   2.3 %
                             ****ORCA TERMINATED NORMALLY****
TOTAL RUN TIME: 0 days 1 hours 47 minutes 45 seconds 526 msec
