
                                        *****************
                                        * O   R   C   A *
                                        *****************

                                            #,                                       
                                            ###                                      
                                            ####                                     
                                            #####                                    
                                            ######                                   
                                           ########,                                 
                                     ,,################,,,,,                         
                               ,,#################################,,                 
                          ,,##########################################,,             
                       ,#########################################, ''#####,          
                    ,#############################################,,   '####,        
                  ,##################################################,,,,####,       
                ,###########''''           ''''###############################       
              ,#####''   ,,,,##########,,,,          '''####'''          '####       
            ,##' ,,,,###########################,,,                        '##       
           ' ,,###''''                  '''############,,,                           
         ,,##''                                '''############,,,,        ,,,,,,###''
      ,#''                                            '''#######################'''  
     '                                                          ''''####''''         
             ,#######,   #######,   ,#######,      ##                                
            ,#'     '#,  ##    ##  ,#'     '#,    #''#        ######   ,####,        
            ##       ##  ##   ,#'  ##            #'  '#       #        #'  '#        
            ##       ##  #######   ##           ,######,      #####,   #    #        
            '#,     ,#'  ##    ##  '#,     ,#' ,#      #,         ##   #,  ,#        
             '#######'   ##     ##  '#######'  #'      '#     #####' # '####'        



                  #######################################################
                  #                        -***-                        #
                  #          Department of theory and spectroscopy      #
                  #    Directorship and core code : Frank Neese         #
                  #        Max Planck Institute fuer Kohlenforschung    #
                  #                Kaiser Wilhelm Platz 1               #
                  #                 D-45470 Muelheim/Ruhr               #
                  #                      Germany                        #
                  #                                                     #
                  #                  All rights reserved                #
                  #                        -***-                        #
                  #######################################################


                         Program Version 5.0.0 -  RELEASE  -
                                (SVN: $Rev: 19529$)
                ($Date: 2021-06-28 11:36:33 +0200 (Mo, 28 Jun 2021) $)


 With contributions from (in alphabetic order):
   Daniel Aravena         : Magnetic Suceptibility
   Michael Atanasov       : Ab Initio Ligand Field Theory (pilot matlab implementation)
   Alexander A. Auer      : GIAO ZORA, VPT2 properties, NMR spectrum
   Ute Becker             : Parallelization
   Giovanni Bistoni       : ED, misc. LED, open-shell LED, HFLD
   Martin Brehm           : Molecular dynamics
   Dmytro Bykov           : SCF Hessian
   Vijay G. Chilkuri      : MRCI spin determinant printing, contributions to CSF-ICE
   Dipayan Datta          : RHF DLPNO-CCSD density
   Achintya Kumar Dutta   : EOM-CC, STEOM-CC
   Dmitry Ganyushin       : Spin-Orbit,Spin-Spin,Magnetic field MRCI
   Miquel Garcia          : C-PCM Hessian, Gaussian charge scheme
   Yang Guo               : DLPNO-NEVPT2, F12-NEVPT2, CIM, IAO-localization
   Andreas Hansen         : Spin unrestricted coupled pair/coupled cluster methods
   Benjamin Helmich-Paris : MC-RPA, TRAH-SCF, COSX integrals
   Lee Huntington         : MR-EOM, pCC
   Robert Izsak           : Overlap fitted RIJCOSX, COSX-SCS-MP3, EOM
   Marcus Kettner         : VPT2
   Christian Kollmar      : KDIIS, OOCD, Brueckner-CCSD(T), CCSD density, CASPT2, CASPT2-K
   Simone Kossmann        : Meta GGA functionals, TD-DFT gradient, OOMP2, MP2 Hessian
   Martin Krupicka        : Initial AUTO-CI
   Lucas Lang             : DCDCAS
   Marvin Lechner         : AUTO-CI (C++ implementation), FIC-MRCC
   Dagmar Lenk            : GEPOL surface, SMD
   Dimitrios Liakos       : Extrapolation schemes; Compound Job, initial MDCI parallelization
   Dimitrios Manganas     : Further ROCIS development; embedding schemes
   Dimitrios Pantazis     : SARC Basis sets
   Anastasios Papadopoulos: AUTO-CI, single reference methods and gradients
   Taras Petrenko         : DFT Hessian,TD-DFT gradient, ASA, ECA, R-Raman, ABS, FL, XAS/XES, NRVS
   Peter Pinski           : DLPNO-MP2, DLPNO-MP2 Gradient
   Christoph Reimann      : Effective Core Potentials
   Marius Retegan         : Local ZFS, SOC
   Christoph Riplinger    : Optimizer, TS searches, QM/MM, DLPNO-CCSD(T), (RO)-DLPNO pert. Triples
   Tobias Risthaus        : Range-separated hybrids, TD-DFT gradient, RPA, STAB
   Michael Roemelt        : Original ROCIS implementation
   Masaaki Saitow         : Open-shell DLPNO-CCSD energy and density
   Barbara Sandhoefer     : DKH picture change effects
   Avijit Sen             : IP-ROCIS
   Kantharuban Sivalingam : CASSCF convergence, NEVPT2, FIC-MRCI
   Bernardo de Souza      : ESD, SOC TD-DFT
   Georgi Stoychev        : AutoAux, RI-MP2 NMR
   Willem Van den Heuvel  : Paramagnetic NMR
   Boris Wezisla          : Elementary symmetry handling
   Frank Wennmohs         : Technical directorship


 We gratefully acknowledge several colleagues who have allowed us to
 interface, adapt or use parts of their codes:
   Stefan Grimme, W. Hujo, H. Kruse, P. Pracht,  : VdW corrections, initial TS optimization,
                  C. Bannwarth, S. Ehlert          DFT functionals, gCP, sTDA/sTD-DF
   Ed Valeev, F. Pavosevic, A. Kumar             : LibInt (2-el integral package), F12 methods
   Garnet Chan, S. Sharma, J. Yang, R. Olivares  : DMRG
   Ulf Ekstrom                                   : XCFun DFT Library
   Mihaly Kallay                                 : mrcc  (arbitrary order and MRCC methods)
   Jiri Pittner, Ondrej Demel                    : Mk-CCSD
   Frank Weinhold                                : gennbo (NPA and NBO analysis)
   Christopher J. Cramer and Donald G. Truhlar   : smd solvation model
   Lars Goerigk                                  : TD-DFT with DH, B97 family of functionals
   V. Asgeirsson, H. Jonsson                     : NEB implementation
   FAccTs GmbH                                   : IRC, NEB, NEB-TS, DLPNO-Multilevel, CI-OPT
                                                   MM, QMMM, 2- and 3-layer-ONIOM, Crystal-QMMM,
                                                   LR-CPCM, SF, NACMEs, symmetry and pop. for TD-DFT,
                                                   nearIR, NL-DFT gradient (VV10), updates on ESD,
                                                   ML-optimized integration grids
   S Lehtola, MJT Oliveira, MAL Marques          : LibXC Library
   Liviu Ungur et al                             : ANISO software


 Your calculation uses the libint2 library for the computation of 2-el integrals
 For citations please refer to: http://libint.valeyev.net

 Your ORCA version has been built with support for libXC version: 5.1.0
 For citations please refer to: https://tddft.org/programs/libxc/

 This ORCA versions uses:
   CBLAS   interface :  Fast vector & matrix operations
   LAPACKE interface :  Fast linear algebra routines
   SCALAPACK package :  Parallel linear algebra routines
   Shared memory     :  Shared parallel matrices
   BLAS/LAPACK       :  OpenBLAS 0.3.15  USE64BITINT DYNAMIC_ARCH NO_AFFINITY SkylakeX SINGLE_THREADED
        Core in use  :  SkylakeX
   Copyright (c) 2011-2014, The OpenBLAS Project


================================================================================

----- Orbital basis set information -----
Your calculation utilizes the basis: cc-pVTZ 
       H, B-Ne : Obtained from the ccRepo (grant-hill.group.shef.ac.uk/ccrepo) Feb. 2017
                 T. H. Dunning, Jr., J. Chem. Phys. 90, 1007 (1989)
            He : Obtained from the ccRepo (grant-hill.group.shef.ac.uk/ccrepo) Feb. 2017
                 D. E. Woon, T. H. Dunning, Jr., J. Chem. Phys. 100, 2975 (1994)
  Li-Be, Na-Mg : Obtained from the ccRepo (grant-hill.group.shef.ac.uk/ccrepo) Feb. 2017
                 B. P. Prascher, D. E. Woon, K. A. Peterson, T. H. Dunning, Jr., A. K. Wilson, Theor. Chem. Acc. 128, 69 (2011)
         Al-Ar : Obtained from the ccRepo (grant-hill.group.shef.ac.uk/ccrepo) Feb. 2017
                 D. E. Woon, T. H. Dunning, Jr., J. Chem. Phys. 98, 1358 (1993)
            Ca : Obtained from the Peterson Research Group Website (tyr0.chem.wsu.edu/~kipeters) Feb. 2017
                 J. Koput, K. A. Peterson, J. Phys. Chem. 106, 9595 (2002)
         Sc-Zn : Obtained from the ccRepo (grant-hill.group.shef.ac.uk/ccrepo) Feb. 2017
                 N. B. Balabanov, K. A. Peterson, J. Chem. Phys. 123, 064107 (2005)
                 N. B. Balabanov, K. A. Peterson, J. Chem. Phys. 125, 074110 (2006)
         Ga-Kr : Obtained from the ccRepo (grant-hill.group.shef.ac.uk/ccrepo) Feb. 2017
                 A. K. Wilson, D. E. Woon, K. A. Peterson, T. H. Dunning, Jr., J. Chem. Phys. 110, 7667 (1999)
             Y : Obtained from the ccRepo (grant-hill.group.shef.ac.uk/ccrepo) Feb. 2017
                 K. A. Peterson, D. Figgen, M. Dolg, H. Stoll, J. Chem. Phys. 126, 124101 (2007)
        Ag, Au : Obtained from the Peterson Research Group Website (tyr0.chem.wsu.edu/~kipeters) Feb. 2017
                 K. A. Peterson, C. Puzzarini, Theor. Chem. Acc. 114, 283 (2005)

----- AuxC basis set information -----
Your calculation utilizes the auxiliary basis: cc-pVTZ/C 
  Obtained from the EMSL Basis Set Exchange (bse.pnl.gov) Feb. 2017
  H-He, B-F, Al-Ar, Ga-Kr : F. Weigend, A. Kohn, C. Hattig, J. Chem. Phys. 116, 3175 (2002)
             Li-Be, Na-Mg : C. Haettig, Phys. Chem. Chem. Phys. 7, 59 (2005)
                       Ne : C. Haettig, Phys. Chem. Chem. Phys. 7, 59 (2005)
                            F. Weigend, A. Kohn, C. Hattig, J. Chem. Phys. 116, 3175 (2002)
                    Sc-Zn : J. G. Hill, J. A. Platts, J. Chem. Phys. 128, 044104 (2008)

================================================================================
                                        WARNINGS
                       Please study these warnings very carefully!
================================================================================


WARNING: No MP2 level density has been requested!
         To caclulate MP2 level properties use
         %mp2 Density relaxed end
         or
         %mp2 Density unrelaxed end

WARNING: Post HF methods need fully converged wavefunctions
  ===> : Setting SCFConvForced true
         You can overwrite this default with %scf ConvForced false 


INFO   : the flag for use of the SHARK integral package has been found!

================================================================================
                                       INPUT FILE
================================================================================
NAME = qm_input.solv
|  1> ! RI-MP2 cc-pVTZ cc-pVTZ/c TightSCF KeepDens NoKeepInts
|  2> 
|  3> %pointcharges "srfp_output"
|  4> 
|  5> *xyz  0  1
|  6>     C    15.4780147   -0.7178760   -1.9264236
|  7>     C    14.8175826   -0.9571280   -3.2548860
|  8>     O    15.5140097   -2.0288841   -3.9383624
|  9>     C    14.7752201   -2.7884138   -4.7965231
| 10>     O    13.6806692   -2.4553634   -5.2426555
| 11>     C    15.1387833   -4.1837656   -4.6939789
| 12>     C    16.3601994   -4.5994613   -4.4560495
| 13>     C    17.5713852   -3.7723916   -4.4146994
| 14>     N    16.6058448   -5.9490888   -4.5615657
| 15>     C    15.7514907   -6.8813003   -4.9147512
| 16>     S    16.1885950   -8.4500311   -5.1621537
| 17>     N    14.4803984   -6.4506883   -5.2005861
| 18>     C    13.9767183   -5.1185719   -4.8421518
| 19>     C    13.0984769   -5.0766608   -3.6144666
| 20>     C    13.7048581   -5.4935961   -2.4044290
| 21>     C    12.9447430   -5.5150744   -1.2190997
| 22>     C    11.5773396   -5.1762091   -1.3239202
| 23>     C    11.0223241   -4.8341490   -2.5068818
| 24>     O     9.8165507   -4.3034929   -2.6427536
| 25>     C    11.7633428   -4.8578977   -3.6537282
| 26>     H    14.8370048   -0.1088502   -1.2772830
| 27>     H    16.4739902   -0.2645893   -2.0023121
| 28>     H    15.5596769   -1.6249579   -1.3150943
| 29>     H    13.7768736   -1.2910250   -3.1620042
| 30>     H    14.9825264   -0.1089314   -3.9305694
| 31>     H    17.4453078   -2.9128929   -5.0844467
| 32>     H    18.3971508   -4.3809301   -4.8032639
| 33>     H    17.6785390   -3.4651849   -3.3671634
| 34>     H    17.4509332   -6.2855989   -4.1159714
| 35>     H    13.9789006   -7.2452348   -5.5789540
| 36>     H    13.2954026   -4.7987918   -5.6401156
| 37>     H    14.7807238   -5.6411805   -2.4162393
| 38>     H    13.4584300   -5.8479539   -0.3220418
| 39>     H    11.0410080   -5.1624123   -0.3796988
| 40>     H     9.5145230   -4.1355870   -1.7331845
| 41>     H    11.3220220   -4.5906486   -4.6093502
| 42> *
| 43> 
| 44>                          ****END OF INPUT****
================================================================================

                       ****************************
                       * Single Point Calculation *
                       ****************************

---------------------------------
CARTESIAN COORDINATES (ANGSTROEM)
---------------------------------
  C     15.478015   -0.717876   -1.926424
  C     14.817583   -0.957128   -3.254886
  O     15.514010   -2.028884   -3.938362
  C     14.775220   -2.788414   -4.796523
  O     13.680669   -2.455363   -5.242655
  C     15.138783   -4.183766   -4.693979
  C     16.360199   -4.599461   -4.456049
  C     17.571385   -3.772392   -4.414699
  N     16.605845   -5.949089   -4.561566
  C     15.751491   -6.881300   -4.914751
  S     16.188595   -8.450031   -5.162154
  N     14.480398   -6.450688   -5.200586
  C     13.976718   -5.118572   -4.842152
  C     13.098477   -5.076661   -3.614467
  C     13.704858   -5.493596   -2.404429
  C     12.944743   -5.515074   -1.219100
  C     11.577340   -5.176209   -1.323920
  C     11.022324   -4.834149   -2.506882
  O      9.816551   -4.303493   -2.642754
  C     11.763343   -4.857898   -3.653728
  H     14.837005   -0.108850   -1.277283
  H     16.473990   -0.264589   -2.002312
  H     15.559677   -1.624958   -1.315094
  H     13.776874   -1.291025   -3.162004
  H     14.982526   -0.108931   -3.930569
  H     17.445308   -2.912893   -5.084447
  H     18.397151   -4.380930   -4.803264
  H     17.678539   -3.465185   -3.367163
  H     17.450933   -6.285599   -4.115971
  H     13.978901   -7.245235   -5.578954
  H     13.295403   -4.798792   -5.640116
  H     14.780724   -5.641180   -2.416239
  H     13.458430   -5.847954   -0.322042
  H     11.041008   -5.162412   -0.379699
  H      9.514523   -4.135587   -1.733184
  H     11.322022   -4.590649   -4.609350

----------------------------
CARTESIAN COORDINATES (A.U.)
----------------------------
  NO LB      ZA    FRAG     MASS         X           Y           Z
   0 C     6.0000    0    12.011   29.249209   -1.356589   -3.640413
   1 C     6.0000    0    12.011   28.001173   -1.808710   -6.150843
   2 O     8.0000    0    15.999   29.317230   -3.834035   -7.442426
   3 C     6.0000    0    12.011   27.921120   -5.269338   -9.064115
   4 O     8.0000    0    15.999   25.852718   -4.639964   -9.907183
   5 C     6.0000    0    12.011   28.608154   -7.906171   -8.870335
   6 C     6.0000    0    12.011   30.916296   -8.691722   -8.420713
   7 C     6.0000    0    12.011   33.205106   -7.128787   -8.342573
   8 N     7.0000    0    14.007   31.380499  -11.242149   -8.620110
   9 C     6.0000    0    12.011   29.766004  -13.003773   -9.287534
  10 S    16.0000    0    32.060   30.592011  -15.968245   -9.755057
  11 N     7.0000    0    14.007   27.363987  -12.190034   -9.827683
  12 C     6.0000    0    12.011   26.412170   -9.672699   -9.150341
  13 C     6.0000    0    12.011   24.752534   -9.593499   -6.830352
  14 C     6.0000    0    12.011   25.898429  -10.381392   -4.543712
  15 C     6.0000    0    12.011   24.462019  -10.421980   -2.303765
  16 C     6.0000    0    12.011   21.878001   -9.781618   -2.501847
  17 C     6.0000    0    12.011   20.829174   -9.135218   -4.737320
  18 O     8.0000    0    15.999   18.550592   -8.132423   -4.994081
  19 C     6.0000    0    12.011   22.229496   -9.180096   -6.904546
  20 H     1.0000    0     1.008   28.037876   -0.205697   -2.413715
  21 H     1.0000    0     1.008   31.131330   -0.500001   -3.783822
  22 H     1.0000    0     1.008   29.403528   -3.070725   -2.485168
  23 H     1.0000    0     1.008   26.034518   -2.439684   -5.975322
  24 H     1.0000    0     1.008   28.312872   -0.205851   -7.427700
  25 H     1.0000    0     1.008   32.966854   -5.504570   -9.608212
  26 H     1.0000    0     1.008   34.765577   -8.278758   -9.076853
  27 H     1.0000    0     1.008   33.407597   -6.548250   -6.363017
  28 H     1.0000    0     1.008   32.977485  -11.878061   -7.778059
  29 H     1.0000    0     1.008   26.416294  -13.691510  -10.542695
  30 H     1.0000    0     1.008   25.124670   -9.068402  -10.658274
  31 H     1.0000    0     1.008   27.931520  -10.660286   -4.566031
  32 H     1.0000    0     1.008   25.432747  -11.051031   -0.608571
  33 H     1.0000    0     1.008   20.864481   -9.755545   -0.717527
  34 H     1.0000    0     1.008   17.979843   -7.815127   -3.275244
  35 H     1.0000    0     1.008   21.395521   -8.675069   -8.710410

--------------------------------
INTERNAL COORDINATES (ANGSTROEM)
--------------------------------
 C      0   0   0     0.000000000000     0.00000000     0.00000000
 C      1   0   0     1.502738974815     0.00000000     0.00000000
 O      2   1   0     1.449417756500   108.87014798     0.00000000
 C      3   2   1     1.363501091043   116.63734318   150.78113880
 O      4   3   2     1.228005846876   124.09205062    16.75717960
 C      4   3   2     1.445579523621   110.90208017   219.83889591
 C      6   4   3     1.311972028559   123.56235041   325.21202188
 C      7   6   4     1.467216807956   126.51438058   352.15999842
 N      7   6   4     1.375852361178   117.58846271   188.57253401
 C      9   7   6     1.312889639813   126.93858190     2.03784326
 S     10   9   7     1.647174698978   122.95301109   173.38839686
 N     10   9   7     1.372153023435   115.85058688   359.69006615
 C     12  10   9     1.468571718951   123.47221950   345.57691749
 C     13  12  10     1.510058094007   115.02900450   258.95729424
 C     14  13  12     1.416235925795   115.94105674    61.36860601
 C     15  14  13     1.408276191682   119.50705540   181.52024281
 C     16  15  14     1.412660287223   117.15147289     3.14190394
 C     17  16  15     1.350720350156   121.56541380   359.42219129
 O     18  17  16     1.324366465390   124.43221821   191.34644706
 C     14  13  12     1.353507233870   123.68333430   251.18181248
 H      1   2   3     1.096900011638   110.77709279   194.72073090
 H      1   2   3     1.096902499509   113.80842450    70.15505877
 H      1   2   3     1.096900087180   113.18802163   306.04299387
 H      2   1   3     1.096899930742   112.99055434   117.11614955
 H      2   1   3     1.096901083255   110.81525991   248.51244784
 H      8   7   6     1.096902444135   109.24494739   330.76354306
 H      8   7   6     1.096900315793   107.38176467   214.16508686
 H      8   7   6     1.096899979340   105.39249845    91.29112321
 H      9   7   6     1.012900652290   116.17501248   197.76141857
 H     12  10   9     1.012900020642   106.87526779   172.13715940
 H     13  12  10     1.096903196063   107.45266570   145.14477853
 H     15  14  13     1.086005360367   117.05735679    10.36160401
 H     16  15  14     1.085999986852   116.39907060   179.69668424
 H     17  16  15     1.085999994966   114.61833573   182.62962952
 H     19  18  17     0.973000036227   104.82404720     6.55951361
 H     20  14  13     1.086001628382   117.78497745   353.04418905

---------------------------
INTERNAL COORDINATES (A.U.)
---------------------------
 C      0   0   0     0.000000000000     0.00000000     0.00000000
 C      1   0   0     2.839765113170     0.00000000     0.00000000
 O      2   1   0     2.739002613428   108.87014798     0.00000000
 C      3   2   1     2.576643645374   116.63734318   150.78113880
 O      4   3   2     2.320594741449   124.09205062    16.75717960
 C      4   3   2     2.731749404447   110.90208017   219.83889591
 C      6   4   3     2.479267829342   123.56235041   325.21202188
 C      7   6   4     2.772637946124   126.51438058   352.15999842
 N      7   6   4     2.599984163336   117.58846271   188.57253401
 C      9   7   6     2.481001863310   126.93858190     2.03784326
 S     10   9   7     3.112709075793   122.95301109   173.38839686
 N     10   9   7     2.592993428124   115.85058688   359.69006615
 C     12  10   9     2.775198356839   123.47221950   345.57691749
 C     13  12  10     2.853596243984   115.02900450   258.95729424
 C     14  13  12     2.676298040774   115.94105674    61.36860601
 C     15  14  13     2.661256323200   119.50705540   181.52024281
 C     16  15  14     2.669541063117   117.15147289     3.14190394
 C     17  16  15     2.552491545310   121.56541380   359.42219129
 O     18  17  16     2.502689920537   124.43221821   191.34644706
 C     14  13  12     2.557757992296   123.68333430   251.18181248
 H      1   2   3     2.072840618291   110.77709279   194.72073090
 H      1   2   3     2.072845319686   113.80842450    70.15505877
 H      1   2   3     2.072840761044   113.18802163   306.04299387
 H      2   1   3     2.072840465419   112.99055434   117.11614955
 H      2   1   3     2.072842643353   110.81525991   248.51244784
 H      8   7   6     2.072845215044   109.24494739   330.76354306
 H      8   7   6     2.072841193060   107.38176467   214.16508686
 H      8   7   6     2.072840557256   105.39249845    91.29112321
 H      9   7   6     1.914104833698   116.17501248   197.76141857
 H     12  10   9     1.914103640057   106.87526779   172.13715940
 H     13  12  10     2.072846635982   107.45266570   145.14477853
 H     15  14  13     2.052252711064   117.05735679    10.36160401
 H     16  15  14     2.052242556592   116.39907060   179.69668424
 H     17  16  15     2.052242571926   114.61833573   182.62962952
 H     19  18  17     1.838703596764   104.82404720     6.55951361
 H     20  14  13     2.052245658634   117.78497745   353.04418905

---------------------
BASIS SET INFORMATION
---------------------
There are 5 groups of distinct atoms

 Group   1 Type C   : 18s5p2d1f contracted to 4s3p2d1f pattern {8811/311/11/1}
 Group   2 Type O   : 18s5p2d1f contracted to 4s3p2d1f pattern {8811/311/11/1}
 Group   3 Type N   : 18s5p2d1f contracted to 4s3p2d1f pattern {8811/311/11/1}
 Group   4 Type S   : 41s16p2d1f contracted to 5s4p2d1f pattern {13131311/7711/11/1}
 Group   5 Type H   : 5s2p1d contracted to 3s2p1d pattern {311/11/1}

Atom   0C    basis set group =>   1
Atom   1C    basis set group =>   1
Atom   2O    basis set group =>   2
Atom   3C    basis set group =>   1
Atom   4O    basis set group =>   2
Atom   5C    basis set group =>   1
Atom   6C    basis set group =>   1
Atom   7C    basis set group =>   1
Atom   8N    basis set group =>   3
Atom   9C    basis set group =>   1
Atom  10S    basis set group =>   4
Atom  11N    basis set group =>   3
Atom  12C    basis set group =>   1
Atom  13C    basis set group =>   1
Atom  14C    basis set group =>   1
Atom  15C    basis set group =>   1
Atom  16C    basis set group =>   1
Atom  17C    basis set group =>   1
Atom  18O    basis set group =>   2
Atom  19C    basis set group =>   1
Atom  20H    basis set group =>   5
Atom  21H    basis set group =>   5
Atom  22H    basis set group =>   5
Atom  23H    basis set group =>   5
Atom  24H    basis set group =>   5
Atom  25H    basis set group =>   5
Atom  26H    basis set group =>   5
Atom  27H    basis set group =>   5
Atom  28H    basis set group =>   5
Atom  29H    basis set group =>   5
Atom  30H    basis set group =>   5
Atom  31H    basis set group =>   5
Atom  32H    basis set group =>   5
Atom  33H    basis set group =>   5
Atom  34H    basis set group =>   5
Atom  35H    basis set group =>   5
---------------------------------
AUXILIARY/C BASIS SET INFORMATION
---------------------------------
There are 5 groups of distinct atoms

 Group   1 Type C   : 8s6p5d3f1g contracted to 8s6p5d3f1g pattern {11111111/111111/11111/111/1}
 Group   2 Type O   : 8s6p5d3f1g contracted to 8s6p5d3f1g pattern {11111111/111111/11111/111/1}
 Group   3 Type N   : 8s6p5d3f1g contracted to 8s6p5d3f1g pattern {11111111/111111/11111/111/1}
 Group   4 Type S   : 10s8p7d5f2g contracted to 10s8p7d5f2g pattern {1111111111/11111111/1111111/11111/11}
 Group   5 Type H   : 4s3p2d1f contracted to 4s3p2d1f pattern {1111/111/11/1}

Atom   0C    basis set group =>   1
Atom   1C    basis set group =>   1
Atom   2O    basis set group =>   2
Atom   3C    basis set group =>   1
Atom   4O    basis set group =>   2
Atom   5C    basis set group =>   1
Atom   6C    basis set group =>   1
Atom   7C    basis set group =>   1
Atom   8N    basis set group =>   3
Atom   9C    basis set group =>   1
Atom  10S    basis set group =>   4
Atom  11N    basis set group =>   3
Atom  12C    basis set group =>   1
Atom  13C    basis set group =>   1
Atom  14C    basis set group =>   1
Atom  15C    basis set group =>   1
Atom  16C    basis set group =>   1
Atom  17C    basis set group =>   1
Atom  18O    basis set group =>   2
Atom  19C    basis set group =>   1
Atom  20H    basis set group =>   5
Atom  21H    basis set group =>   5
Atom  22H    basis set group =>   5
Atom  23H    basis set group =>   5
Atom  24H    basis set group =>   5
Atom  25H    basis set group =>   5
Atom  26H    basis set group =>   5
Atom  27H    basis set group =>   5
Atom  28H    basis set group =>   5
Atom  29H    basis set group =>   5
Atom  30H    basis set group =>   5
Atom  31H    basis set group =>   5
Atom  32H    basis set group =>   5
Atom  33H    basis set group =>   5
Atom  34H    basis set group =>   5
Atom  35H    basis set group =>   5
------------------------------------------------------------------------------
                           ORCA GTO INTEGRAL CALCULATION
------------------------------------------------------------------------------
------------------------------------------------------------------------------
                   ___                                                        
                  /   \      - P O W E R E D   B Y -                         
                 /     \                                                     
                 |  |  |   _    _      __       _____    __    __             
                 |  |  |  | |  | |    /  \     |  _  \  |  |  /  |          
                  \  \/   | |  | |   /    \    | | | |  |  | /  /          
                 / \  \   | |__| |  /  /\  \   | |_| |  |  |/  /          
                |  |  |   |  __  | /  /__\  \  |    /   |      \           
                |  |  |   | |  | | |   __   |  |    \   |  |\   \          
                \     /   | |  | | |  |  |  |  | |\  \  |  | \   \       
                 \___/    |_|  |_| |__|  |__|  |_| \__\ |__|  \__/        
                                                                              
                      - O R C A' S   B I G   F R I E N D -                    
                                      &                                       
                       - I N T E G R A L  F E E D E R -                       
                                                                              
 v1 FN, 2020, v2 2021                                                         
------------------------------------------------------------------------------


Reading SHARK input file qm_input.solv.SHARKINP.tmp ... ok
----------------------
SHARK INTEGRAL PACKAGE
----------------------

Number of atoms                             ...     36
Number of basis functions                   ...    828
Number of shells                            ...    298
Maximum angular momentum                    ...      3
Integral batch strategy                     ... SHARK/LIBINT Hybrid
RI-J (if used) integral strategy            ... SPLIT-RIJ (Revised 2003 algorithm where possible)
Printlevel                                  ...      1
Contraction scheme used                     ... SEGMENTED contraction
Coulomb Range Separation                    ... NOT USED
Exchange Range Separation                   ... NOT USED
Finite Nucleus Model                        ... NOT USED
Auxiliary Coulomb fitting basis             ... NOT available
Auxiliary J/K fitting basis                 ... NOT available
Auxiliary Correlation fitting basis         ... AVAILABLE
   # of basis functions in Aux-C            ...   2141
   # of shells in Aux-C                     ...    629
   Maximum angular momentum in Aux-C        ...      4
Auxiliary 'external' fitting basis          ... NOT available
Integral threshold                          ...     2.500000e-11
Primitive cut-off                           ...     2.500000e-12
Primitive pair pre-selection threshold      ...     2.500000e-12

Calculating pre-screening integrals         ... done (  0.5 sec) Dimension = 298
Organizing shell pair data                  ... done (  0.4 sec)
Shell pair information
Total number of shell pairs                 ...     44551
Shell pairs after pre-screening             ...     33478
Total number of primitive shell pairs       ...    234348
Primitive shell pairs kept                  ...     96273
          la=0 lb=0:   6690 shell pairs
          la=1 lb=0:   9305 shell pairs
          la=1 lb=1:   3266 shell pairs
          la=2 lb=0:   5350 shell pairs
          la=2 lb=1:   3667 shell pairs
          la=2 lb=2:   1049 shell pairs
          la=3 lb=0:   1937 shell pairs
          la=3 lb=1:   1325 shell pairs
          la=3 lb=2:    742 shell pairs
          la=3 lb=3:    147 shell pairs

Reading point charge file                   ... ok (41976 point charges)
Calculating one electron integrals          ... done (209.8 sec)
Calculating RI/C V-Matrix + Cholesky decomp.... done (  0.3 sec)
Calculating Nuclear repulsion               ... (+Point charges) done (  0.1 sec) ENN=   1897.928306487057 Eh

SHARK setup successfully completed in 211.8 seconds

Maximum memory used throughout the entire GTOINT-calculation: 498.6 MB
ENUC WAS=  0.000000000
ENUC IS =  0.000000000
-------------------------------------------------------------------------------
                                 ORCA SCF
-------------------------------------------------------------------------------

------------
SCF SETTINGS
------------
Hamiltonian:
 Ab initio Hamiltonian  Method          .... Hartree-Fock(GTOs)


General Settings:
 Integral files         IntName         .... qm_input.solv
 Hartree-Fock type      HFTyp           .... RHF
 Total Charge           Charge          ....    0
 Multiplicity           Mult            ....    1
 Number of Electrons    NEL             ....  154
 Basis Dimension        Dim             ....  828
 Nuclear Repulsion      ENuc            ....   1897.9283064871 Eh

Convergence Acceleration:
 DIIS                   CNVDIIS         .... on
   Start iteration      DIISMaxIt       ....    12
   Startup error        DIISStart       ....  0.200000
   # of expansion vecs  DIISMaxEq       ....     5
   Bias factor          DIISBfac        ....   1.050
   Max. coefficient     DIISMaxC        ....  10.000
 Trust-Rad. Augm. Hess. CNVTRAH         .... auto
   Auto Start mean grad. ratio tolernc. ....  1.125000
   Auto Start start iteration           ....    20
   Auto Start num. interpolation iter.  ....    10
   Max. Number of Micro iterations      ....    16
   Max. Number of Macro iterations      .... Maxiter - #DIIS iter
   Number of Davidson start vectors     ....     2
   Converg. threshold I  (grad. norm)   ....   1.000e-05
   Converg. threshold II (energy diff.) ....   1.000e-08
   Grad. Scal. Fac. for Micro threshold ....   0.100
   Minimum threshold for Micro iter.    ....   0.010
   NR start threshold (gradient norm)   ....   0.001
   Initial trust radius                 ....   0.400
   Minimum AH scaling param. (alpha)    ....   1.000
   Maximum AH scaling param. (alpha)    .... 1000.000
   Orbital update algorithm             .... Taylor
   White noise on init. David. guess    .... on
   Maximum white noise                  ....   0.010
   Quad. conv. algorithm                .... NR
 SOSCF                  CNVSOSCF        .... on
   Start iteration      SOSCFMaxIt      ....   150
   Startup grad/error   SOSCFStart      ....  0.003300
 Level Shifting         CNVShift        .... on
   Level shift para.    LevelShift      ....    0.2500
   Turn off err/grad.   ShiftErr        ....    0.0010
 Zerner damping         CNVZerner       .... off
 Static damping         CNVDamp         .... on
   Fraction old density DampFac         ....    0.7000
   Max. Damping (<1)    DampMax         ....    0.9800
   Min. Damping (>=0)   DampMin         ....    0.0000
   Turn off err/grad.   DampErr         ....    0.1000
 Fernandez-Rico         CNVRico         .... off

SCF Procedure:
 Maximum # iterations   MaxIter         ....   125
 SCF integral mode      SCFMode         .... Direct
   Integral package                     .... SHARK and LIBINT hybrid scheme
 Reset frequency        DirectResetFreq ....    20
 Integral Threshold     Thresh          ....  2.500e-11 Eh
 Primitive CutOff       TCut            ....  2.500e-12 Eh

Convergence Tolerance:
 Convergence Check Mode ConvCheckMode   .... Total+1el-Energy
 Convergence forced     ConvForced      .... 1
 Energy Change          TolE            ....  1.000e-08 Eh
 1-El. energy change                    ....  1.000e-05 Eh
 Orbital Gradient       TolG            ....  1.000e-05
 Orbital Rotation angle TolX            ....  1.000e-05
 DIIS Error             TolErr          ....  5.000e-07


Diagonalization of the overlap matrix:
Smallest eigenvalue                        ... 3.935e-05
Time for diagonalization                   ...    0.119 sec
Threshold for overlap eigenvalues          ... 1.000e-08
Number of eigenvalues below threshold      ... 0
Time for construction of square roots      ...    0.055 sec
Total time needed                          ...    0.177 sec

Time for model grid setup =    1.503 sec

------------------------------
INITIAL GUESS: MODEL POTENTIAL
------------------------------
Loading Hartree-Fock densities                     ... done
Calculating cut-offs                               ... done
Initializing the effective Hamiltonian             ... done
Setting up the integral package (SHARK)            ... done
Starting the Coulomb interaction                   ... done (   3.7 sec)
Reading the grid                                   ... done
Mapping shells                                     ... done
Starting the XC term evaluation                    ... done (   1.4 sec)
Transforming the Hamiltonian                       ... done (   0.0 sec)
Diagonalizing the Hamiltonian                      ... done (   0.1 sec)
Back transforming the eigenvectors                 ... done (   0.0 sec)
Now organizing SCF variables                       ... done
                      ------------------
                      INITIAL GUESS DONE (   6.9 sec)
                      ------------------
--------------
SCF ITERATIONS
--------------
ITER       Energy         Delta-E        Max-DP      RMS-DP      [F,P]     Damp
               ***  Starting incremental Fock matrix formation  ***
  0  -1270.0303183498   0.000000000000 0.04788932  0.00052814  0.3597570 0.7000
  1  -1270.3297754237  -0.299457073844 0.04181294  0.00043820  0.2069639 0.7000
                               ***Turning on DIIS***
  2  -1270.5150120671  -0.185236643459 0.02591089  0.00028530  0.1106498 0.7000
  3  -1272.7023246896  -2.187312622493 0.06477598  0.00057428  0.0844370 0.0000
  4  -1270.8602043193   1.842120370281 0.01224910  0.00011876  0.0083323 0.0000
  5  -1270.9208261591  -0.060621839755 0.00691333  0.00006257  0.0051815 0.0000
  6  -1270.8981950384   0.022631120632 0.00337213  0.00003075  0.0033442 0.0000
                      *** Initiating the SOSCF procedure ***
                           *** Shutting down DIIS ***
                      *** Re-Reading the Fockian *** 
                      *** Removing any level shift *** 
ITER      Energy       Delta-E        Grad      Rot      Max-DP    RMS-DP
  7  -1270.91436581  -0.0161707744  0.001213  0.001213  0.001971  0.000018
               *** Restarting incremental Fock matrix formation ***
  8  -1270.91521626  -0.0008504484  0.000545  0.001047  0.000816  0.000010
  9  -1270.91523287  -0.0000166119  0.000242  0.001323  0.001129  0.000012
 10  -1270.91523971  -0.0000068385  0.000063  0.000107  0.000224  0.000002
 11  -1270.91524039  -0.0000006763  0.000035  0.000076  0.000085  0.000001
 12  -1270.91524050  -0.0000001153  0.000019  0.000069  0.000033  0.000000
 13  -1270.91524053  -0.0000000229  0.000008  0.000044  0.000018  0.000000
                  ***Gradient check signals convergence***
              ***Rediagonalizing the Fockian in SOSCF/NRSCF***

               *****************************************************
               *                     SUCCESS                       *
               *           SCF CONVERGED AFTER  14 CYCLES          *
               *****************************************************


----------------
TOTAL SCF ENERGY
----------------

Total Energy       :        -1270.91524053 Eh          -34583.36188 eV

Components:
Nuclear Repulsion  :         1897.92830649 Eh           51645.25481 eV
Electronic Energy  :        -3168.84354702 Eh          -86228.61669 eV
One Electron Energy:        -5342.62349967 Eh         -145380.17641 eV
Two Electron Energy:         2173.77995265 Eh           59151.55972 eV

Virial components:
Potential Energy   :        -2541.21361120 Eh          -69149.93788 eV
Kinetic Energy     :         1270.29837067 Eh           34566.57600 eV
Virial Ratio       :            2.00048561


---------------
SCF CONVERGENCE
---------------

  Last Energy change         ...   -5.5620e-09  Tolerance :   1.0000e-08
  Last MAX-Density change    ...    6.1028e-06  Tolerance :   1.0000e-07
  Last RMS-Density change    ...    5.3698e-08  Tolerance :   5.0000e-09
  Last Orbital Gradient      ...    2.0653e-06  Tolerance :   1.0000e-05
  Last Orbital Rotation      ...    6.1757e-06  Tolerance :   1.0000e-05

             **** THE GBW FILE WAS UPDATED (qm_input.solv.gbw) ****
             **** DENSITY qm_input.solv.scfp WAS UPDATED ****
             **** ENERGY FILE WAS UPDATED (qm_input.solv.en.tmp) ****
             **** THE GBW FILE WAS UPDATED (qm_input.solv.gbw) ****
             **** DENSITY qm_input.solv.scfp WAS UPDATED ****
----------------
ORBITAL ENERGIES
----------------

  NO   OCC          E(Eh)            E(eV) 
   0   2.0000     -93.050604     -2532.0357 
   1   2.0000     -21.726157      -591.1988 
   2   2.0000     -21.720563      -591.0466 
   3   2.0000     -21.696931      -590.4035 
   4   2.0000     -16.753007      -455.8725 
   5   2.0000     -16.739211      -455.4971 
   6   2.0000     -12.534368      -341.0775 
   7   2.0000     -12.523464      -340.7808 
   8   2.0000     -12.440778      -338.5308 
   9   2.0000     -12.429888      -338.2344 
  10   2.0000     -12.427511      -338.1698 
  11   2.0000     -12.415568      -337.8448 
  12   2.0000     -12.378254      -336.8294 
  13   2.0000     -12.374101      -336.7164 
  14   2.0000     -12.371181      -336.6370 
  15   2.0000     -12.360293      -336.3407 
  16   2.0000     -12.359778      -336.3267 
  17   2.0000     -12.359665      -336.3236 
  18   2.0000     -12.354477      -336.1824 
  19   2.0000     -12.341420      -335.8271 
  20   2.0000     -10.058017      -273.6926 
  21   2.0000      -7.740161      -210.6205 
  22   2.0000      -7.738052      -210.5631 
  23   2.0000      -7.737701      -210.5535 
  24   2.0000      -2.590702       -70.4966 
  25   2.0000      -2.558176       -69.6115 
  26   2.0000      -2.499568       -68.0167 
  27   2.0000      -2.494372       -67.8753 
  28   2.0000      -2.372727       -64.5652 
  29   2.0000      -2.300743       -62.6064 
  30   2.0000      -2.270558       -61.7850 
  31   2.0000      -2.182641       -59.3927 
  32   2.0000      -2.168112       -58.9973 
  33   2.0000      -2.149403       -58.4882 
  34   2.0000      -2.134023       -58.0697 
  35   2.0000      -2.128606       -57.9223 
  36   2.0000      -2.058585       -56.0169 
  37   2.0000      -2.019004       -54.9399 
  38   2.0000      -1.986883       -54.0658 
  39   2.0000      -1.974263       -53.7224 
  40   2.0000      -1.963749       -53.4363 
  41   2.0000      -1.949573       -53.0506 
  42   2.0000      -1.891366       -51.4667 
  43   2.0000      -1.875050       -51.0227 
  44   2.0000      -1.863125       -50.6982 
  45   2.0000      -1.828923       -49.7675 
  46   2.0000      -1.826742       -49.7082 
  47   2.0000      -1.813393       -49.3449 
  48   2.0000      -1.806332       -49.1528 
  49   2.0000      -1.793452       -48.8023 
  50   2.0000      -1.784580       -48.5609 
  51   2.0000      -1.771589       -48.2074 
  52   2.0000      -1.764327       -48.0098 
  53   2.0000      -1.745502       -47.4975 
  54   2.0000      -1.742167       -47.4068 
  55   2.0000      -1.728267       -47.0285 
  56   2.0000      -1.721827       -46.8533 
  57   2.0000      -1.709344       -46.5136 
  58   2.0000      -1.705274       -46.4029 
  59   2.0000      -1.692945       -46.0674 
  60   2.0000      -1.689302       -45.9682 
  61   2.0000      -1.675869       -45.6027 
  62   2.0000      -1.664126       -45.2832 
  63   2.0000      -1.660940       -45.1965 
  64   2.0000      -1.647091       -44.8196 
  65   2.0000      -1.636701       -44.5369 
  66   2.0000      -1.628681       -44.3187 
  67   2.0000      -1.627445       -44.2850 
  68   2.0000      -1.617075       -44.0028 
  69   2.0000      -1.604109       -43.6500 
  70   2.0000      -1.594676       -43.3933 
  71   2.0000      -1.582104       -43.0512 
  72   2.0000      -1.504305       -40.9342 
  73   2.0000      -1.498486       -40.7759 
  74   2.0000      -1.482316       -40.3359 
  75   2.0000      -1.474196       -40.1149 
  76   2.0000      -1.447312       -39.3834 
  77   0.0000      -1.061196       -28.8766 
  78   0.0000      -1.007067       -27.4037 
  79   0.0000      -0.999941       -27.2098 
  80   0.0000      -0.988601       -26.9012 
  81   0.0000      -0.979696       -26.6589 
  82   0.0000      -0.962088       -26.1797 
  83   0.0000      -0.956900       -26.0386 
  84   0.0000      -0.954392       -25.9703 
  85   0.0000      -0.945746       -25.7351 
  86   0.0000      -0.932793       -25.3826 
  87   0.0000      -0.925832       -25.1932 
  88   0.0000      -0.922933       -25.1143 
  89   0.0000      -0.913469       -24.8568 
  90   0.0000      -0.906553       -24.6686 
  91   0.0000      -0.903463       -24.5845 
  92   0.0000      -0.898972       -24.4623 
  93   0.0000      -0.887189       -24.1416 
  94   0.0000      -0.885433       -24.0939 
  95   0.0000      -0.874340       -23.7920 
  96   0.0000      -0.872114       -23.7314 
  97   0.0000      -0.868648       -23.6371 
  98   0.0000      -0.849996       -23.1296 
  99   0.0000      -0.838473       -22.8160 
 100   0.0000      -0.824225       -22.4283 
 101   0.0000      -0.819555       -22.3012 
 102   0.0000      -0.812323       -22.1044 
 103   0.0000      -0.800132       -21.7727 
 104   0.0000      -0.792640       -21.5688 
 105   0.0000      -0.786429       -21.3998 
 106   0.0000      -0.780156       -21.2291 
 107   0.0000      -0.769261       -20.9327 
 108   0.0000      -0.759765       -20.6743 
 109   0.0000      -0.757353       -20.6086 
 110   0.0000      -0.748260       -20.3612 
 111   0.0000      -0.739961       -20.1354 
 112   0.0000      -0.735872       -20.0241 
 113   0.0000      -0.725415       -19.7395 
 114   0.0000      -0.720610       -19.6088 
 115   0.0000      -0.713722       -19.4214 
 116   0.0000      -0.711052       -19.3487 
 117   0.0000      -0.708913       -19.2905 
 118   0.0000      -0.694202       -18.8902 
 119   0.0000      -0.687776       -18.7153 
 120   0.0000      -0.684061       -18.6142 
 121   0.0000      -0.680797       -18.5254 
 122   0.0000      -0.676258       -18.4019 
 123   0.0000      -0.668405       -18.1882 
 124   0.0000      -0.662142       -18.0178 
 125   0.0000      -0.656243       -17.8573 
 126   0.0000      -0.654554       -17.8113 
 127   0.0000      -0.643296       -17.5050 
 128   0.0000      -0.637492       -17.3470 
 129   0.0000      -0.632643       -17.2151 
 130   0.0000      -0.630324       -17.1520 
 131   0.0000      -0.624412       -16.9911 
 132   0.0000      -0.617675       -16.8078 
 133   0.0000      -0.606259       -16.4971 
 134   0.0000      -0.605789       -16.4843 
 135   0.0000      -0.601903       -16.3786 
 136   0.0000      -0.590847       -16.0778 
 137   0.0000      -0.588275       -16.0078 
 138   0.0000      -0.582807       -15.8590 
 139   0.0000      -0.577106       -15.7039 
 140   0.0000      -0.574893       -15.6436 
 141   0.0000      -0.565255       -15.3814 
 142   0.0000      -0.562846       -15.3158 
 143   0.0000      -0.555318       -15.1110 
 144   0.0000      -0.550790       -14.9878 
 145   0.0000      -0.542757       -14.7692 
 146   0.0000      -0.536623       -14.6023 
 147   0.0000      -0.534216       -14.5368 
 148   0.0000      -0.531241       -14.4558 
 149   0.0000      -0.519351       -14.1322 
 150   0.0000      -0.513949       -13.9853 
 151   0.0000      -0.506029       -13.7698 
 152   0.0000      -0.501604       -13.6493 
 153   0.0000      -0.493519       -13.4293 
 154   0.0000      -0.491930       -13.3861 
 155   0.0000      -0.488682       -13.2977 
 156   0.0000      -0.482784       -13.1372 
 157   0.0000      -0.479095       -13.0368 
 158   0.0000      -0.478459       -13.0195 
 159   0.0000      -0.472504       -12.8575 
 160   0.0000      -0.468796       -12.7566 
 161   0.0000      -0.460784       -12.5386 
 162   0.0000      -0.458851       -12.4860 
 163   0.0000      -0.455718       -12.4007 
 164   0.0000      -0.449201       -12.2234 
 165   0.0000      -0.444914       -12.1067 
 166   0.0000      -0.437718       -11.9109 
 167   0.0000      -0.434488       -11.8230 
 168   0.0000      -0.430720       -11.7205 
 169   0.0000      -0.424375       -11.5478 
 170   0.0000      -0.419240       -11.4081 
 171   0.0000      -0.415434       -11.3045 
 172   0.0000      -0.406333       -11.0569 
 173   0.0000      -0.400245       -10.8912 
 174   0.0000      -0.395619       -10.7654 
 175   0.0000      -0.393577       -10.7098 
 176   0.0000      -0.390500       -10.6261 
 177   0.0000      -0.379800       -10.3349 
 178   0.0000      -0.373588       -10.1659 
 179   0.0000      -0.369990       -10.0679 
 180   0.0000      -0.361534        -9.8379 
 181   0.0000      -0.352796        -9.6001 
 182   0.0000      -0.348862        -9.4930 
 183   0.0000      -0.342551        -9.3213 
 184   0.0000      -0.323879        -8.8132 
 185   0.0000      -0.321690        -8.7536 
 186   0.0000      -0.311377        -8.4730 
 187   0.0000      -0.303047        -8.2463 
 188   0.0000      -0.299376        -8.1464 
 189   0.0000      -0.298407        -8.1201 
 190   0.0000      -0.288692        -7.8557 
 191   0.0000      -0.283435        -7.7126 
 192   0.0000      -0.265034        -7.2119 
 193   0.0000      -0.256152        -6.9703 
 194   0.0000      -0.249262        -6.7828 
 195   0.0000      -0.245161        -6.6712 
 196   0.0000      -0.240765        -6.5516 
 197   0.0000      -0.234611        -6.3841 
 198   0.0000      -0.219805        -5.9812 
 199   0.0000      -0.213348        -5.8055 
 200   0.0000      -0.208456        -5.6724 
 201   0.0000      -0.200216        -5.4481 
 202   0.0000      -0.186262        -5.0685 
 203   0.0000      -0.182397        -4.9633 
 204   0.0000      -0.177437        -4.8283 
 205   0.0000      -0.171654        -4.6709 
 206   0.0000      -0.164653        -4.4804 
 207   0.0000      -0.156725        -4.2647 
 208   0.0000      -0.150116        -4.0849 
 209   0.0000      -0.143978        -3.9178 
 210   0.0000      -0.135903        -3.6981 
 211   0.0000      -0.133362        -3.6290 
 212   0.0000      -0.124308        -3.3826 
 213   0.0000      -0.118280        -3.2186 
 214   0.0000      -0.101850        -2.7715 
 215   0.0000      -0.097304        -2.6478 
 216   0.0000      -0.087906        -2.3921 
 217   0.0000      -0.083014        -2.2589 
 218   0.0000      -0.073317        -1.9951 
 219   0.0000      -0.068976        -1.8769 
 220   0.0000      -0.059874        -1.6292 
 221   0.0000      -0.055522        -1.5108 
 222   0.0000      -0.051582        -1.4036 
 223   0.0000      -0.050098        -1.3632 
 224   0.0000      -0.039107        -1.0641 
 225   0.0000      -0.033693        -0.9168 
 226   0.0000      -0.031225        -0.8497 
 227   0.0000      -0.025576        -0.6960 
 228   0.0000      -0.015862        -0.4316 
 229   0.0000      -0.009628        -0.2620 
 230   0.0000      -0.003539        -0.0963 
 231   0.0000       0.007913         0.2153 
 232   0.0000       0.018990         0.5168 
 233   0.0000       0.026879         0.7314 
 234   0.0000       0.040131         1.0920 
 235   0.0000       0.046486         1.2649 
 236   0.0000       0.055373         1.5068 
 237   0.0000       0.063708         1.7336 
 238   0.0000       0.074319         2.0223 
 239   0.0000       0.081695         2.2230 
 240   0.0000       0.082155         2.2356 
 241   0.0000       0.091362         2.4861 
 242   0.0000       0.097909         2.6642 
 243   0.0000       0.103606         2.8193 
 244   0.0000       0.107106         2.9145 
 245   0.0000       0.112138         3.0514 
 246   0.0000       0.121642         3.3100 
 247   0.0000       0.126537         3.4432 
 248   0.0000       0.141763         3.8576 
 249   0.0000       0.142377         3.8743 
 250   0.0000       0.149233         4.0608 
 251   0.0000       0.152110         4.1391 
 252   0.0000       0.156843         4.2679 
 253   0.0000       0.165719         4.5094 
 254   0.0000       0.171123         4.6565 
 255   0.0000       0.182225         4.9586 
 256   0.0000       0.187611         5.1051 
 257   0.0000       0.203012         5.5242 
 258   0.0000       0.205407         5.5894 
 259   0.0000       0.207842         5.6557 
 260   0.0000       0.215832         5.8731 
 261   0.0000       0.226950         6.1756 
 262   0.0000       0.237200         6.4545 
 263   0.0000       0.244051         6.6410 
 264   0.0000       0.248747         6.7687 
 265   0.0000       0.260220         7.0809 
 266   0.0000       0.269596         7.3361 
 267   0.0000       0.273622         7.4456 
 268   0.0000       0.285811         7.7773 
 269   0.0000       0.292059         7.9473 
 270   0.0000       0.300749         8.1838 
 271   0.0000       0.317806         8.6479 
 272   0.0000       0.327692         8.9169 
 273   0.0000       0.336089         9.1454 
 274   0.0000       0.342334         9.3154 
 275   0.0000       0.356980         9.7139 
 276   0.0000       0.362659         9.8685 
 277   0.0000       0.370090        10.0707 
 278   0.0000       0.380167        10.3449 
 279   0.0000       0.384167        10.4537 
 280   0.0000       0.388643        10.5755 
 281   0.0000       0.393107        10.6970 
 282   0.0000       0.408332        11.1113 
 283   0.0000       0.414282        11.2732 
 284   0.0000       0.416821        11.3423 
 285   0.0000       0.423622        11.5273 
 286   0.0000       0.427886        11.6434 
 287   0.0000       0.430269        11.7082 
 288   0.0000       0.437398        11.9022 
 289   0.0000       0.446361        12.1461 
 290   0.0000       0.454591        12.3701 
 291   0.0000       0.461686        12.5631 
 292   0.0000       0.465089        12.6557 
 293   0.0000       0.472342        12.8531 
 294   0.0000       0.476983        12.9794 
 295   0.0000       0.483715        13.1625 
 296   0.0000       0.490170        13.3382 
 297   0.0000       0.500137        13.6094 
 298   0.0000       0.501955        13.6589 
 299   0.0000       0.510319        13.8865 
 300   0.0000       0.513287        13.9672 
 301   0.0000       0.522137        14.2081 
 302   0.0000       0.529726        14.4146 
 303   0.0000       0.540152        14.6983 
 304   0.0000       0.543808        14.7978 
 305   0.0000       0.546585        14.8733 
 306   0.0000       0.563552        15.3350 
 307   0.0000       0.568729        15.4759 
 308   0.0000       0.584747        15.9118 
 309   0.0000       0.592199        16.1146 
 310   0.0000       0.601961        16.3802 
 311   0.0000       0.612007        16.6536 
 312   0.0000       0.626583        17.0502 
 313   0.0000       0.630392        17.1538 
 314   0.0000       0.637629        17.3508 
 315   0.0000       0.643663        17.5150 
 316   0.0000       0.648977        17.6596 
 317   0.0000       0.665747        18.1159 
 318   0.0000       0.674124        18.3438 
 319   0.0000       0.677449        18.4343 
 320   0.0000       0.687115        18.6974 
 321   0.0000       0.698366        19.0035 
 322   0.0000       0.700122        19.0513 
 323   0.0000       0.712045        19.3757 
 324   0.0000       0.738492        20.0954 
 325   0.0000       0.746842        20.3226 
 326   0.0000       0.750989        20.4355 
 327   0.0000       0.764489        20.8028 
 328   0.0000       0.775685        21.1075 
 329   0.0000       0.781838        21.2749 
 330   0.0000       0.804863        21.9014 
 331   0.0000       0.809424        22.0255 
 332   0.0000       0.815683        22.1959 
 333   0.0000       0.834617        22.7111 
 334   0.0000       0.839691        22.8491 
 335   0.0000       0.845962        23.0198 
 336   0.0000       0.860987        23.4287 
 337   0.0000       0.865176        23.5426 
 338   0.0000       0.880231        23.9523 
 339   0.0000       0.891453        24.2577 
 340   0.0000       0.902481        24.5578 
 341   0.0000       0.908967        24.7343 
 342   0.0000       0.930924        25.3317 
 343   0.0000       0.935198        25.4480 
 344   0.0000       0.949037        25.8246 
 345   0.0000       0.966673        26.3045 
 346   0.0000       0.980475        26.6801 
 347   0.0000       1.003608        27.3096 
 348   0.0000       1.009793        27.4779 
 349   0.0000       1.031930        28.0802 
 350   0.0000       1.045472        28.4487 
 351   0.0000       1.055752        28.7285 
 352   0.0000       1.087862        29.6022 
 353   0.0000       1.097354        29.8605 
 354   0.0000       1.108701        30.1693 
 355   0.0000       1.113973        30.3128 
 356   0.0000       1.123624        30.5754 
 357   0.0000       1.134071        30.8596 
 358   0.0000       1.150512        31.3070 
 359   0.0000       1.158498        31.5243 
 360   0.0000       1.176213        32.0064 
 361   0.0000       1.190355        32.3912 
 362   0.0000       1.207811        32.8662 
 363   0.0000       1.212617        32.9970 
 364   0.0000       1.239646        33.7325 
 365   0.0000       1.246180        33.9103 
 366   0.0000       1.260095        34.2889 
 367   0.0000       1.266623        34.4666 
 368   0.0000       1.279974        34.8299 
 369   0.0000       1.299139        35.3514 
 370   0.0000       1.321242        35.9528 
 371   0.0000       1.324085        36.0302 
 372   0.0000       1.345170        36.6039 
 373   0.0000       1.355169        36.8760 
 374   0.0000       1.369009        37.2526 
 375   0.0000       1.390517        37.8379 
 376   0.0000       1.401312        38.1316 
 377   0.0000       1.412500        38.4361 
 378   0.0000       1.425380        38.7866 
 379   0.0000       1.446380        39.3580 
 380   0.0000       1.462729        39.8029 
 381   0.0000       1.466044        39.8931 
 382   0.0000       1.482742        40.3475 
 383   0.0000       1.486589        40.4521 
 384   0.0000       1.505839        40.9760 
 385   0.0000       1.517069        41.2815 
 386   0.0000       1.519561        41.3493 
 387   0.0000       1.540614        41.9222 
 388   0.0000       1.544078        42.0165 
 389   0.0000       1.559979        42.4492 
 390   0.0000       1.565373        42.5960 
 391   0.0000       1.577536        42.9269 
 392   0.0000       1.589706        43.2581 
 393   0.0000       1.593614        43.3644 
 394   0.0000       1.606366        43.7114 
 395   0.0000       1.615979        43.9730 
 396   0.0000       1.622900        44.1614 
 397   0.0000       1.628867        44.3237 
 398   0.0000       1.640412        44.6379 
 399   0.0000       1.648779        44.8656 
 400   0.0000       1.657464        45.1019 
 401   0.0000       1.661872        45.2218 
 402   0.0000       1.668820        45.4109 
 403   0.0000       1.684532        45.8385 
 404   0.0000       1.698953        46.2309 
 405   0.0000       1.707290        46.4577 
 406   0.0000       1.723112        46.8883 
 407   0.0000       1.745822        47.5062 
 408   0.0000       1.747918        47.5633 
 409   0.0000       1.749044        47.5939 
 410   0.0000       1.757862        47.8339 
 411   0.0000       1.768925        48.1349 
 412   0.0000       1.775945        48.3259 
 413   0.0000       1.783868        48.5415 
 414   0.0000       1.792909        48.7875 
 415   0.0000       1.797833        48.9215 
 416   0.0000       1.805181        49.1215 
 417   0.0000       1.813406        49.3453 
 418   0.0000       1.831216        49.8299 
 419   0.0000       1.842195        50.1287 
 420   0.0000       1.851432        50.3800 
 421   0.0000       1.859827        50.6085 
 422   0.0000       1.876174        51.0533 
 423   0.0000       1.880214        51.1632 
 424   0.0000       1.896000        51.5928 
 425   0.0000       1.903770        51.8042 
 426   0.0000       1.916154        52.1412 
 427   0.0000       1.918472        52.2043 
 428   0.0000       1.922423        52.3118 
 429   0.0000       1.927533        52.4508 
 430   0.0000       1.938392        52.7463 
 431   0.0000       1.942101        52.8473 
 432   0.0000       1.948957        53.0338 
 433   0.0000       1.953726        53.1636 
 434   0.0000       1.965975        53.4969 
 435   0.0000       1.975066        53.7443 
 436   0.0000       1.978603        53.8405 
 437   0.0000       1.983909        53.9849 
 438   0.0000       1.988992        54.1232 
 439   0.0000       1.994095        54.2621 
 440   0.0000       2.000092        54.4253 
 441   0.0000       2.009001        54.6677 
 442   0.0000       2.019649        54.9575 
 443   0.0000       2.029447        55.2241 
 444   0.0000       2.032744        55.3138 
 445   0.0000       2.040906        55.5359 
 446   0.0000       2.049593        55.7723 
 447   0.0000       2.055377        55.9297 
 448   0.0000       2.072093        56.3845 
 449   0.0000       2.077551        56.5330 
 450   0.0000       2.082665        56.6722 
 451   0.0000       2.087188        56.7953 
 452   0.0000       2.094453        56.9930 
 453   0.0000       2.106859        57.3305 
 454   0.0000       2.110645        57.4336 
 455   0.0000       2.114686        57.5435 
 456   0.0000       2.117543        57.6213 
 457   0.0000       2.134630        58.0862 
 458   0.0000       2.137844        58.1737 
 459   0.0000       2.148809        58.4721 
 460   0.0000       2.152960        58.5850 
 461   0.0000       2.158476        58.7351 
 462   0.0000       2.176836        59.2347 
 463   0.0000       2.182457        59.3877 
 464   0.0000       2.189580        59.5815 
 465   0.0000       2.190704        59.6121 
 466   0.0000       2.201989        59.9192 
 467   0.0000       2.207322        60.0643 
 468   0.0000       2.213263        60.2259 
 469   0.0000       2.213661        60.2368 
 470   0.0000       2.222419        60.4751 
 471   0.0000       2.224761        60.5388 
 472   0.0000       2.230031        60.6822 
 473   0.0000       2.233811        60.7851 
 474   0.0000       2.239374        60.9365 
 475   0.0000       2.246713        61.1362 
 476   0.0000       2.258957        61.4693 
 477   0.0000       2.261277        61.5325 
 478   0.0000       2.269624        61.7596 
 479   0.0000       2.275975        61.9324 
 480   0.0000       2.277561        61.9756 
 481   0.0000       2.283645        62.1411 
 482   0.0000       2.293200        62.4012 
 483   0.0000       2.298106        62.5346 
 484   0.0000       2.301808        62.6354 
 485   0.0000       2.306787        62.7709 
 486   0.0000       2.314685        62.9858 
 487   0.0000       2.317081        63.0510 
 488   0.0000       2.321636        63.1749 
 489   0.0000       2.330827        63.4250 
 490   0.0000       2.336077        63.5679 
 491   0.0000       2.342279        63.7367 
 492   0.0000       2.350449        63.9590 
 493   0.0000       2.353476        64.0413 
 494   0.0000       2.362126        64.2767 
 495   0.0000       2.371527        64.5325 
 496   0.0000       2.377601        64.6978 
 497   0.0000       2.382580        64.8333 
 498   0.0000       2.395792        65.1928 
 499   0.0000       2.399661        65.2981 
 500   0.0000       2.402348        65.3712 
 501   0.0000       2.412101        65.6366 
 502   0.0000       2.415076        65.7176 
 503   0.0000       2.426838        66.0376 
 504   0.0000       2.435959        66.2858 
 505   0.0000       2.437828        66.3367 
 506   0.0000       2.453623        66.7665 
 507   0.0000       2.465951        67.1019 
 508   0.0000       2.473538        67.3084 
 509   0.0000       2.479149        67.4611 
 510   0.0000       2.486613        67.6642 
 511   0.0000       2.493775        67.8591 
 512   0.0000       2.500518        68.0426 
 513   0.0000       2.505635        68.1818 
 514   0.0000       2.511026        68.3285 
 515   0.0000       2.519540        68.5602 
 516   0.0000       2.525227        68.7149 
 517   0.0000       2.531503        68.8857 
 518   0.0000       2.534224        68.9597 
 519   0.0000       2.542493        69.1848 
 520   0.0000       2.548950        69.3604 
 521   0.0000       2.558038        69.6078 
 522   0.0000       2.562285        69.7233 
 523   0.0000       2.567129        69.8551 
 524   0.0000       2.574687        70.0608 
 525   0.0000       2.581752        70.2530 
 526   0.0000       2.585989        70.3683 
 527   0.0000       2.594747        70.6066 
 528   0.0000       2.595941        70.6391 
 529   0.0000       2.605163        70.8901 
 530   0.0000       2.613788        71.1248 
 531   0.0000       2.617411        71.2234 
 532   0.0000       2.625165        71.4344 
 533   0.0000       2.628060        71.5131 
 534   0.0000       2.633283        71.6553 
 535   0.0000       2.644370        71.9570 
 536   0.0000       2.650739        72.1303 
 537   0.0000       2.658658        72.3458 
 538   0.0000       2.663167        72.4685 
 539   0.0000       2.675318        72.7991 
 540   0.0000       2.678078        72.8742 
 541   0.0000       2.683961        73.0343 
 542   0.0000       2.688253        73.1511 
 543   0.0000       2.702314        73.5337 
 544   0.0000       2.707737        73.6813 
 545   0.0000       2.719573        74.0034 
 546   0.0000       2.725202        74.1565 
 547   0.0000       2.731364        74.3242 
 548   0.0000       2.740273        74.5666 
 549   0.0000       2.750609        74.8479 
 550   0.0000       2.754281        74.9478 
 551   0.0000       2.761561        75.1459 
 552   0.0000       2.782540        75.7168 
 553   0.0000       2.784390        75.7671 
 554   0.0000       2.793863        76.0249 
 555   0.0000       2.799025        76.1653 
 556   0.0000       2.809998        76.4639 
 557   0.0000       2.820460        76.7486 
 558   0.0000       2.822506        76.8043 
 559   0.0000       2.837566        77.2141 
 560   0.0000       2.838562        77.2412 
 561   0.0000       2.847335        77.4799 
 562   0.0000       2.859525        77.8116 
 563   0.0000       2.869759        78.0901 
 564   0.0000       2.881187        78.4011 
 565   0.0000       2.887472        78.5721 
 566   0.0000       2.898217        78.8645 
 567   0.0000       2.904058        79.0234 
 568   0.0000       2.910586        79.2011 
 569   0.0000       2.916993        79.3754 
 570   0.0000       2.922949        79.5375 
 571   0.0000       2.941116        80.0318 
 572   0.0000       2.951843        80.3237 
 573   0.0000       2.953786        80.3766 
 574   0.0000       2.969979        80.8172 
 575   0.0000       2.976978        81.0077 
 576   0.0000       2.979073        81.0647 
 577   0.0000       2.999634        81.6242 
 578   0.0000       3.001912        81.6862 
 579   0.0000       3.009999        81.9062 
 580   0.0000       3.020025        82.1791 
 581   0.0000       3.022784        82.2541 
 582   0.0000       3.032443        82.5170 
 583   0.0000       3.034315        82.5679 
 584   0.0000       3.036366        82.6237 
 585   0.0000       3.049795        82.9891 
 586   0.0000       3.059539        83.2543 
 587   0.0000       3.064961        83.4018 
 588   0.0000       3.068271        83.4919 
 589   0.0000       3.073932        83.6460 
 590   0.0000       3.081367        83.8483 
 591   0.0000       3.090496        84.0967 
 592   0.0000       3.094367        84.2020 
 593   0.0000       3.104839        84.4870 
 594   0.0000       3.115514        84.7775 
 595   0.0000       3.123344        84.9905 
 596   0.0000       3.127110        85.0930 
 597   0.0000       3.135947        85.3334 
 598   0.0000       3.141600        85.4873 
 599   0.0000       3.152913        85.7951 
 600   0.0000       3.156191        85.8843 
 601   0.0000       3.165587        86.1400 
 602   0.0000       3.171069        86.2892 
 603   0.0000       3.178957        86.5038 
 604   0.0000       3.191730        86.8514 
 605   0.0000       3.197316        87.0034 
 606   0.0000       3.199667        87.0674 
 607   0.0000       3.205403        87.2234 
 608   0.0000       3.212455        87.4153 
 609   0.0000       3.225069        87.7586 
 610   0.0000       3.239847        88.1607 
 611   0.0000       3.245065        88.3027 
 612   0.0000       3.256740        88.6204 
 613   0.0000       3.260613        88.7258 
 614   0.0000       3.264189        88.8231 
 615   0.0000       3.271656        89.0263 
 616   0.0000       3.281413        89.2918 
 617   0.0000       3.289624        89.5152 
 618   0.0000       3.294924        89.6594 
 619   0.0000       3.302188        89.8571 
 620   0.0000       3.306586        89.9768 
 621   0.0000       3.317607        90.2767 
 622   0.0000       3.324142        90.4545 
 623   0.0000       3.338195        90.8369 
 624   0.0000       3.344735        91.0149 
 625   0.0000       3.358770        91.3968 
 626   0.0000       3.369030        91.6760 
 627   0.0000       3.369835        91.6979 
 628   0.0000       3.383560        92.0714 
 629   0.0000       3.391658        92.2917 
 630   0.0000       3.399097        92.4941 
 631   0.0000       3.402542        92.5879 
 632   0.0000       3.407749        92.7296 
 633   0.0000       3.413269        92.8798 
 634   0.0000       3.429966        93.3341 
 635   0.0000       3.438819        93.5750 
 636   0.0000       3.446849        93.7935 
 637   0.0000       3.459003        94.1242 
 638   0.0000       3.460785        94.1727 
 639   0.0000       3.470174        94.4282 
 640   0.0000       3.477142        94.6179 
 641   0.0000       3.487139        94.8899 
 642   0.0000       3.497762        95.1790 
 643   0.0000       3.515709        95.6673 
 644   0.0000       3.521738        95.8314 
 645   0.0000       3.530336        96.0653 
 646   0.0000       3.538142        96.2777 
 647   0.0000       3.544802        96.4590 
 648   0.0000       3.550846        96.6234 
 649   0.0000       3.560443        96.8846 
 650   0.0000       3.567622        97.0799 
 651   0.0000       3.578551        97.3773 
 652   0.0000       3.585925        97.5780 
 653   0.0000       3.601562        98.0035 
 654   0.0000       3.606141        98.1281 
 655   0.0000       3.611613        98.2770 
 656   0.0000       3.638307        99.0034 
 657   0.0000       3.649904        99.3189 
 658   0.0000       3.661564        99.6362 
 659   0.0000       3.675193       100.0071 
 660   0.0000       3.676305       100.0374 
 661   0.0000       3.686414       100.3124 
 662   0.0000       3.716059       101.1191 
 663   0.0000       3.735129       101.6380 
 664   0.0000       3.742515       101.8390 
 665   0.0000       3.748965       102.0145 
 666   0.0000       3.781531       102.9007 
 667   0.0000       3.796854       103.3176 
 668   0.0000       3.805840       103.5622 
 669   0.0000       3.806758       103.5872 
 670   0.0000       3.820740       103.9676 
 671   0.0000       3.846817       104.6772 
 672   0.0000       3.859183       105.0137 
 673   0.0000       3.878424       105.5373 
 674   0.0000       3.909936       106.3948 
 675   0.0000       3.915938       106.5581 
 676   0.0000       3.922533       106.7375 
 677   0.0000       3.933585       107.0383 
 678   0.0000       3.938380       107.1688 
 679   0.0000       3.945377       107.3592 
 680   0.0000       3.963702       107.8578 
 681   0.0000       3.967220       107.9535 
 682   0.0000       3.974929       108.1633 
 683   0.0000       3.985714       108.4568 
 684   0.0000       4.010109       109.1206 
 685   0.0000       4.021644       109.4345 
 686   0.0000       4.031580       109.7049 
 687   0.0000       4.038593       109.8957 
 688   0.0000       4.042712       110.0078 
 689   0.0000       4.057749       110.4170 
 690   0.0000       4.064950       110.6129 
 691   0.0000       4.081308       111.0580 
 692   0.0000       4.087438       111.2249 
 693   0.0000       4.094190       111.4086 
 694   0.0000       4.116039       112.0031 
 695   0.0000       4.124101       112.2225 
 696   0.0000       4.128563       112.3439 
 697   0.0000       4.139442       112.6399 
 698   0.0000       4.157464       113.1303 
 699   0.0000       4.159748       113.1925 
 700   0.0000       4.172117       113.5291 
 701   0.0000       4.195806       114.1737 
 702   0.0000       4.216128       114.7267 
 703   0.0000       4.227436       115.0344 
 704   0.0000       4.244972       115.5116 
 705   0.0000       4.254683       115.7758 
 706   0.0000       4.262525       115.9892 
 707   0.0000       4.271166       116.2243 
 708   0.0000       4.283802       116.5682 
 709   0.0000       4.299009       116.9820 
 710   0.0000       4.329656       117.8159 
 711   0.0000       4.354731       118.4983 
 712   0.0000       4.358413       118.5985 
 713   0.0000       4.382988       119.2672 
 714   0.0000       4.393652       119.5573 
 715   0.0000       4.396828       119.6438 
 716   0.0000       4.416221       120.1715 
 717   0.0000       4.428458       120.5045 
 718   0.0000       4.439417       120.8027 
 719   0.0000       4.448103       121.0390 
 720   0.0000       4.454787       121.2209 
 721   0.0000       4.468252       121.5873 
 722   0.0000       4.478769       121.8735 
 723   0.0000       4.490948       122.2049 
 724   0.0000       4.492348       122.2430 
 725   0.0000       4.512115       122.7809 
 726   0.0000       4.519025       122.9689 
 727   0.0000       4.526480       123.1718 
 728   0.0000       4.532074       123.3240 
 729   0.0000       4.536495       123.4443 
 730   0.0000       4.548171       123.7620 
 731   0.0000       4.552919       123.8912 
 732   0.0000       4.581736       124.6754 
 733   0.0000       4.586618       124.8082 
 734   0.0000       4.603601       125.2704 
 735   0.0000       4.623397       125.8090 
 736   0.0000       4.631682       126.0345 
 737   0.0000       4.650160       126.5373 
 738   0.0000       4.665378       126.9514 
 739   0.0000       4.686329       127.5215 
 740   0.0000       4.695651       127.7751 
 741   0.0000       4.705560       128.0448 
 742   0.0000       4.719964       128.4367 
 743   0.0000       4.728723       128.6751 
 744   0.0000       4.740323       128.9907 
 745   0.0000       4.761674       129.5717 
 746   0.0000       4.769558       129.7863 
 747   0.0000       4.774836       129.9299 
 748   0.0000       4.800038       130.6157 
 749   0.0000       4.812181       130.9461 
 750   0.0000       4.841614       131.7470 
 751   0.0000       4.862792       132.3233 
 752   0.0000       4.890101       133.0664 
 753   0.0000       4.902788       133.4116 
 754   0.0000       4.912810       133.6844 
 755   0.0000       4.929623       134.1419 
 756   0.0000       4.986203       135.6815 
 757   0.0000       4.995137       135.9246 
 758   0.0000       5.012441       136.3954 
 759   0.0000       5.043835       137.2497 
 760   0.0000       5.053431       137.5109 
 761   0.0000       5.064436       137.8103 
 762   0.0000       5.076260       138.1321 
 763   0.0000       5.121078       139.3516 
 764   0.0000       5.153303       140.2285 
 765   0.0000       5.166992       140.6010 
 766   0.0000       5.186264       141.1254 
 767   0.0000       5.195326       141.3720 
 768   0.0000       5.252619       142.9310 
 769   0.0000       5.272811       143.4805 
 770   0.0000       5.289594       143.9372 
 771   0.0000       5.294569       144.0725 
 772   0.0000       5.302071       144.2767 
 773   0.0000       5.320668       144.7827 
 774   0.0000       5.338061       145.2560 
 775   0.0000       5.381549       146.4394 
 776   0.0000       5.408361       147.1690 
 777   0.0000       5.445526       148.1803 
 778   0.0000       5.474410       148.9663 
 779   0.0000       5.503041       149.7454 
 780   0.0000       5.535209       150.6207 
 781   0.0000       5.575334       151.7126 
 782   0.0000       5.601324       152.4198 
 783   0.0000       5.666789       154.2012 
 784   0.0000       5.720290       155.6570 
 785   0.0000       5.776733       157.1929 
 786   0.0000       5.798230       157.7779 
 787   0.0000       5.829087       158.6175 
 788   0.0000       5.842724       158.9886 
 789   0.0000       5.849166       159.1639 
 790   0.0000       5.964315       162.2973 
 791   0.0000       6.020508       163.8263 
 792   0.0000       6.058149       164.8506 
 793   0.0000       6.069609       165.1625 
 794   0.0000       6.101107       166.0196 
 795   0.0000       6.135854       166.9651 
 796   0.0000       6.155710       167.5054 
 797   0.0000       6.179354       168.1488 
 798   0.0000       6.232579       169.5971 
 799   0.0000       6.236600       169.7065 
 800   0.0000       6.270723       170.6350 
 801   0.0000       6.401660       174.1980 
 802   0.0000       6.431034       174.9973 
 803   0.0000       6.457729       175.7237 
 804   0.0000       6.519111       177.3940 
 805   0.0000       6.717808       182.8008 
 806   0.0000       6.724909       182.9941 
 807   0.0000       6.844880       186.2586 
 808   0.0000       6.847208       186.3220 
 809   0.0000       8.350985       227.2419 
 810   0.0000       8.749327       238.0813 
 811   0.0000      10.085136       274.4305 
 812   0.0000      10.635203       289.3986 
 813   0.0000      10.962645       298.3087 
 814   0.0000      11.853137       322.5403 
 815   0.0000      12.036709       327.5355 
 816   0.0000      12.063759       328.2716 
 817   0.0000      12.305805       334.8580 
 818   0.0000      12.407791       337.6332 
 819   0.0000      12.613715       343.2366 
 820   0.0000      12.786933       347.9501 
 821   0.0000      12.877385       350.4115 
 822   0.0000      13.044522       354.9595 
 823   0.0000      13.403076       364.7162 
 824   0.0000      13.609511       370.3336 
 825   0.0000      13.947139       379.5209 
 826   0.0000      14.659069       398.8936 
 827   0.0000      15.385280       418.6548 

                    ********************************
                    * MULLIKEN POPULATION ANALYSIS *
                    ********************************

-----------------------
MULLIKEN ATOMIC CHARGES
-----------------------
   0 C :   -0.274094
   1 C :    0.037721
   2 O :   -0.334521
   3 C :    0.471342
   4 O :   -0.575006
   5 C :   -0.073313
   6 C :    0.128678
   7 C :   -0.297232
   8 N :   -0.078997
   9 C :    0.354320
  10 S :   -0.772448
  11 N :   -0.229422
  12 C :    0.040345
  13 C :    0.078107
  14 C :   -0.303867
  15 C :   -0.180028
  16 C :   -0.320897
  17 C :    0.348110
  18 O :   -0.440734
  19 C :   -0.223861
  20 H :    0.109378
  21 H :    0.107914
  22 H :    0.099628
  23 H :    0.101576
  24 H :    0.111733
  25 H :    0.127143
  26 H :    0.121819
  27 H :    0.133501
  28 H :    0.250392
  29 H :    0.252585
  30 H :    0.169031
  31 H :    0.187835
  32 H :    0.206291
  33 H :    0.178061
  34 H :    0.327301
  35 H :    0.161613
Sum of atomic charges:    0.0000000

--------------------------------
MULLIKEN REDUCED ORBITAL CHARGES
--------------------------------
  0 C s       :     3.258590  s :     3.258590
      pz      :     0.912256  p :     2.938145
      px      :     1.000039
      py      :     1.025851
      dz2     :     0.015821  d :     0.072721
      dxz     :     0.013902
      dyz     :     0.017060
      dx2y2   :     0.011320
      dxy     :     0.014618
      f0      :     0.000903  f :     0.004637
      f+1     :     0.001198
      f-1     :     0.000556
      f+2     :     0.000511
      f-2     :     0.000624
      f+3     :     0.000052
      f-3     :     0.000794
  1 C s       :     3.185923  s :     3.185923
      pz      :     0.906175  p :     2.609270
      px      :     0.909821
      py      :     0.793274
      dz2     :     0.031478  d :     0.155406
      dxz     :     0.023565
      dyz     :     0.044584
      dx2y2   :     0.031034
      dxy     :     0.024745
      f0      :     0.001231  f :     0.011680
      f+1     :     0.001678
      f-1     :     0.002153
      f+2     :     0.001748
      f-2     :     0.001903
      f+3     :     0.001385
      f-3     :     0.001583
  2 O s       :     3.725944  s :     3.725944
      pz      :     1.504233  p :     4.571437
      px      :     1.594704
      py      :     1.472501
      dz2     :     0.006067  d :     0.034917
      dxz     :     0.008528
      dyz     :     0.005051
      dx2y2   :     0.005058
      dxy     :     0.010213
      f0      :     0.000298  f :     0.002223
      f+1     :     0.000182
      f-1     :     0.000414
      f+2     :     0.000314
      f-2     :     0.000615
[...]
 15 C s       :     2.707381  s :     2.707381
      pz      :     0.980881  p :     2.795549
      px      :     0.983489
      py      :     0.831179
      dz2     :     0.091247  d :     0.409994
      dxz     :     0.137415
      dyz     :     0.045415
      dx2y2   :     0.058826
      dxy     :     0.077092
      f0      :     0.008681  f :     0.040835
      f+1     :     0.007430
      f-1     :     0.003968
      f+2     :     0.006717
      f-2     :     0.005332
      f+3     :     0.004529
      f-3     :     0.004178
 16 C s       :     2.691515  s :     2.691515
      pz      :     0.979373  p :     2.866870
      px      :     0.977954
      py      :     0.909543
      dz2     :     0.098793  d :     0.401189
      dxz     :     0.144333
      dyz     :     0.043363
      dx2y2   :     0.057821
      dxy     :     0.056880
      f0      :     0.009935  f :     0.043549
      f+1     :     0.008722
      f-1     :     0.004633
      f+2     :     0.007029
      f-2     :     0.004522
      f+3     :     0.004217
      f-3     :     0.004490
 17 C s       :     2.675960  s :     2.675960
      pz      :     1.055779  p :     2.697820
      px      :     0.826051
      py      :     0.815991
      dz2     :     0.161425  d :     0.763214
      dxz     :     0.208205
      dyz     :     0.112576
      dx2y2   :     0.137189
      dxy     :     0.143820
      f0      :     0.024354  f :     0.114743
      f+1     :     0.015179
      f-1     :     0.009621
      f+2     :     0.014450
      f-2     :     0.017086
      f+3     :     0.020646
      f-3     :     0.013408
 18 O s       :     3.157905  s :     3.157905
      pz      :     1.436025  p :     4.366984
      px      :     1.364397
      py      :     1.566562
      dz2     :     0.018033  d :     0.078303
      dxz     :     0.020955
      dyz     :     0.005139
      dx2y2   :     0.017039
      dxy     :     0.017138
      f0      :     0.001277  f :     0.005708
      f+1     :     0.001028
      f-1     :     0.000402
      f+2     :     0.000543
      f-2     :     0.000560
      f+3     :     0.001046
      f-3     :     0.000852
 19 C s       :     2.678673  s :     2.678673
      pz      :     0.963636  p :     2.832102
      px      :     0.996230
      py      :     0.872236
      dz2     :     0.100757  d :     0.422782
      dxz     :     0.149185
      dyz     :     0.040848
      dx2y2   :     0.062181
      dxy     :     0.069812
      f0      :     0.010626  f :     0.047869
      f+1     :     0.009137
      f-1     :     0.004313
      f+2     :     0.008556
      f-2     :     0.004926
      f+3     :     0.005263
      f-3     :     0.005046
 20 H s       :     0.831707  s :     0.831707
      pz      :     0.050828  p :     0.153244
      px      :     0.048710
      py      :     0.053706
      dz2     :     0.006558  d :     0.027993
      dxz     :     0.005261
      dyz     :     0.004938
      dx2y2   :     0.006337
      dxy     :     0.004899
 21 H s       :     0.844390  s :     0.844390
      pz      :     0.035610  p :     0.149109
      px      :     0.067143
      py      :     0.046355
      dz2     :     0.002353  d :     0.027239
      dxz     :     0.007127
      dyz     :     0.001609
      dx2y2   :     0.008255
      dxy     :     0.007895
 22 H s       :     0.839269  s :     0.839269
      pz      :     0.048978  p :     0.153140
      px      :     0.040219
      py      :     0.063943
      dz2     :     0.006089  d :     0.028091
      dxz     :     0.002763
      dyz     :     0.007450
      dx2y2   :     0.004877
      dxy     :     0.006912
 23 H s       :     0.853254  s :     0.853254
      pz      :     0.036447  p :     0.147082
      px      :     0.077615
      py      :     0.033021
      dz2     :     0.002865  d :     0.027302
      dxz     :     0.008160
      dyz     :     0.001263
      dx2y2   :     0.007885
      dxy     :     0.007129
 24 H s       :     0.850339  s :     0.850339
      pz      :     0.052291  p :     0.146211
      px      :     0.034875
      py      :     0.059045
      dz2     :     0.006003  d :     0.027275
      dxz     :     0.002965
      dyz     :     0.007932
      dx2y2   :     0.004934
      dxy     :     0.005441
 25 H s       :     0.824134  s :     0.824134
      pz      :     0.050304  p :     0.149811
      px      :     0.037302
      py      :     0.062205
      dz2     :     0.006864  d :     0.027874
      dxz     :     0.002849
      dyz     :     0.007150
      dx2y2   :     0.004663
      dxy     :     0.006348
 26 H s       :     0.828481  s :     0.828481
      pz      :     0.042506  p :     0.148273
      px      :     0.057513
      py      :     0.048254
      dz2     :     0.004096  d :     0.027860
      dxz     :     0.005427
      dyz     :     0.003531
      dx2y2   :     0.008167
      dxy     :     0.006639
 27 H s       :     0.823052  s :     0.823052
      pz      :     0.071155  p :     0.151789
      px      :     0.038797
      py      :     0.041837
      dz2     :     0.009323  d :     0.027833
      dxz     :     0.007784
      dyz     :     0.008697
      dx2y2   :     0.000567
      dxy     :     0.001461
 28 H s       :     0.702019  s :     0.702019
      pz      :     0.089975  p :     0.243845
      px      :     0.105088
      py      :     0.048782
      dz2     :     0.011460  d :     0.060072
      dxz     :     0.015900
      dyz     :     0.005508
      dx2y2   :     0.013923
      dxy     :     0.013281
 29 H s       :     0.724423  s :     0.724423
      pz      :     0.091343  p :     0.262824
      px      :     0.066920
      py      :     0.104562
      dz2     :     0.010497  d :     0.062097
      dxz     :     0.007367
      dyz     :     0.014852
      dx2y2   :     0.014457
      dxy     :     0.014924
 30 H s       :     0.817743  s :     0.817743
      pz      :     0.062275  p :     0.151798
      px      :     0.051944
      py      :     0.037578
      dz2     :     0.008465  d :     0.029236
      dxz     :     0.007747
      dyz     :     0.004468
      dx2y2   :     0.004475
      dxy     :     0.004081
 31 H s       :     0.838162  s :     0.838162
      pz      :     0.033597  p :     0.159041
      px      :     0.080219
      py      :     0.045226
      dz2     :     0.002814  d :     0.027795
      dxz     :     0.008718
      dyz     :     0.000301
      dx2y2   :     0.007711
      dxy     :     0.008252
 32 H s       :     0.832344  s :     0.832344
      pz      :     0.066805  p :     0.153355
      px      :     0.043421
      py      :     0.043129
      dz2     :     0.008376  d :     0.026749
      dxz     :     0.007589
      dyz     :     0.005958
      dx2y2   :     0.002427
      dxy     :     0.002399
 33 H s       :     0.828943  s :     0.828943
      pz      :     0.067595  p :     0.158160
      px      :     0.045643
      py      :     0.044922
      dz2     :     0.009076  d :     0.027811
      dxz     :     0.007939
      dyz     :     0.006497
      dx2y2   :     0.002155
      dxy     :     0.002145
 34 H s       :     0.662908  s :     0.662908
      pz      :     0.169868  p :     0.338727
      px      :     0.076435
      py      :     0.092423
      dz2     :     0.033940  d :     0.098870
      dxz     :     0.025969
      dyz     :     0.030036
      dx2y2   :     0.004631
      dxy     :     0.004294
 35 H s       :     0.829880  s :     0.829880
      pz      :     0.067939  p :     0.153119
      px      :     0.038545
      py      :     0.046635
      dz2     :     0.009208  d :     0.027806
      dxz     :     0.007804
      dyz     :     0.006751
      dx2y2   :     0.001987
      dxy     :     0.002055


                      *****************************
                      * MAYER POPULATION ANALYSIS *
                      *****************************

  NA   - Mulliken gross atomic population
  ZA   - Total nuclear charge
  QA   - Mulliken gross atomic charge
  VA   - Mayer's total valence
  BVA  - Mayer's bonded valence
  FA   - Mayer's free valence

  ATOM       NA         ZA         QA         VA         BVA        FA
  0 C      6.2741     6.0000    -0.2741     3.8896     3.8896    -0.0000
  1 C      5.9623     6.0000     0.0377     3.8282     3.8282    -0.0000
  2 O      8.3345     8.0000    -0.3345     2.0615     2.0615    -0.0000
  3 C      5.5287     6.0000     0.4713     4.2116     4.2116    -0.0000
  4 O      8.5750     8.0000    -0.5750     1.9733     1.9733     0.0000
  5 C      6.0733     6.0000    -0.0733     3.5641     3.5641    -0.0000
  6 C      5.8713     6.0000     0.1287     3.8105     3.8105     0.0000
  7 C      6.2972     6.0000    -0.2972     3.8902     3.8902     0.0000
  8 N      7.0790     7.0000    -0.0790     3.4424     3.4424     0.0000
  9 C      5.6457     6.0000     0.3543     4.0329     4.0329    -0.0000
 10 S     16.7724    16.0000    -0.7724     1.3763     1.3763    -0.0000
 11 N      7.2294     7.0000    -0.2294     3.3448     3.3448    -0.0000
 12 C      5.9597     6.0000     0.0403     3.9406     3.9406    -0.0000
 13 C      5.9219     6.0000     0.0781     3.6514     3.6514    -0.0000
 14 C      6.3039     6.0000    -0.3039     3.8084     3.8084     0.0000
 15 C      6.1800     6.0000    -0.1800     3.7567     3.7567    -0.0000
 16 C      6.3209     6.0000    -0.3209     3.7303     3.7303     0.0000
 17 C      5.6519     6.0000     0.3481     3.8374     3.8374     0.0000
 18 O      8.4407     8.0000    -0.4407     2.0511     2.0511     0.0000
 19 C      6.2239     6.0000    -0.2239     3.8004     3.8004    -0.0000
 20 H      0.8906     1.0000     0.1094     0.9812     0.9812     0.0000
 21 H      0.8921     1.0000     0.1079     0.9831     0.9831     0.0000
 22 H      0.9004     1.0000     0.0996     0.9838     0.9838    -0.0000
 23 H      0.8984     1.0000     0.1016     0.9897     0.9897     0.0000
 24 H      0.8883     1.0000     0.1117     0.9783     0.9783    -0.0000
 25 H      0.8729     1.0000     0.1271     0.9837     0.9837     0.0000
 26 H      0.8782     1.0000     0.1218     0.9870     0.9870     0.0000
 27 H      0.8665     1.0000     0.1335     0.9797     0.9797     0.0000
 28 H      0.7496     1.0000     0.2504     0.9663     0.9663     0.0000
 29 H      0.7474     1.0000     0.2526     0.9700     0.9700     0.0000
 30 H      0.8310     1.0000     0.1690     0.9987     0.9987    -0.0000
 31 H      0.8122     1.0000     0.1878     0.9717     0.9717     0.0000
 32 H      0.7937     1.0000     0.2063     0.9607     0.9607    -0.0000
 33 H      0.8219     1.0000     0.1781     0.9732     0.9732    -0.0000
 34 H      0.6727     1.0000     0.3273     0.9319     0.9319     0.0000
 35 H      0.8384     1.0000     0.1616     0.9899     0.9899     0.0000

  Mayer bond orders larger than 0.100000
B(  0-C ,  1-C ) :   0.9753 B(  0-C , 20-H ) :   0.9748 B(  0-C , 21-H ) :   0.9784 
B(  0-C , 22-H ) :   0.9729 B(  1-C ,  2-O ) :   0.8684 B(  1-C , 23-H ) :   0.9733 
B(  1-C , 24-H ) :   0.9826 B(  2-O ,  3-C ) :   1.2071 B(  3-C ,  4-O ) :   1.9098 
B(  3-C ,  5-C ) :   1.0526 B(  5-C ,  6-C ) :   1.6498 B(  5-C , 12-C ) :   0.9590 
B(  6-C ,  7-C ) :   0.9446 B(  6-C ,  8-N ) :   1.1225 B(  7-C , 25-H ) :   0.9697 
B(  7-C , 26-H ) :   0.9815 B(  7-C , 27-H ) :   0.9638 B(  8-N ,  9-C ) :   1.3462 
B(  8-N , 28-H ) :   0.9252 B(  9-C , 10-S ) :   1.2150 B(  9-C , 11-N ) :   1.3844 
B( 11-N , 12-C ) :   0.9799 B( 11-N , 29-H ) :   0.9233 B( 12-C , 13-C ) :   0.9361 
B( 12-C , 30-H ) :   0.9952 B( 13-C , 14-C ) :   1.2644 B( 13-C , 19-C ) :   1.4332 
B( 14-C , 15-C ) :   1.4582 B( 14-C , 31-H ) :   0.9691 B( 15-C , 16-C ) :   1.2789 
B( 15-C , 32-H ) :   0.9566 B( 16-C , 17-C ) :   1.3823 B( 16-C , 33-H ) :   0.9731 
B( 17-C , 18-O ) :   1.1335 B( 17-C , 19-C ) :   1.2702 B( 18-O , 34-H ) :   0.9142 
B( 19-C , 35-H ) :   0.9603 

-------
TIMINGS
-------

Total SCF time: 0 days 1 hours 40 min 40 sec 

Total time                  ....    6040.319 sec
Sum of individual times     ....    6033.044 sec  ( 99.9%)

Fock matrix formation       ....    6018.684 sec  ( 99.6%)
Diagonalization             ....       1.306 sec  (  0.0%)
Density matrix formation    ....       0.174 sec  (  0.0%)
Population analysis         ....       0.318 sec  (  0.0%)
Initial guess               ....       5.411 sec  (  0.1%)
Orbital Transformation      ....       0.000 sec  (  0.0%)
Orbital Orthonormalization  ....       0.000 sec  (  0.0%)
DIIS solution               ....       3.605 sec  (  0.1%)
SOSCF solution              ....       2.044 sec  (  0.0%)

Maximum memory used throughout the entire SCF-calculation: 741.0 MB

------------------------------------------------------------------------------
                                ORCA  MP2 
------------------------------------------------------------------------------

Freezing NCore=48 chemical core electrons

-------------
RI-MP2 ENERGY
-------------
Dimension of the basis                    ...  828
Memory devoted to MP2                     ...  256 MB   
Data format for buffers                   ... DOUBLE
Compression type for matrix containers    ... UNCOMPRESSED
Overall scaling of the MP2 energy         ...   1.000e+00
Calculating two index integrals           ... done (    0.039 sec)
Cholesky decomposition of V**-1           ... done (    0.459 sec)

-----------------
RI-TRANSFORMATION (AUX index driven)
-----------------

Dimension of the orbital-basis         ... 828
Dimension of the aux-basis             ... 2141
Transformation of internal/external MOs...   24-  76 to   77- 827
Number Format for Storage              ... Double (8 Byte)
Integral mode                          ... Direct

First Phase: integral generation and transformation of MO indices
  Aux angular momentum 0               ... done (    4.286 sec)
  Aux angular momentum 1               ... done (    7.264 sec)
  Aux angular momentum 2               ... done (    9.606 sec)
  Aux angular momentum 3               ... done (    7.790 sec)
  Aux angular momentum 4               ... done (    2.690 sec)
Closing buffer VIA ( 0.63 GB; CompressionRatio= 1.00)
  Phase 1 completed in    32.091 sec
Second Phase: sorting and transformation of aux index

IA-Transformation
Memory available                       ... 157 MB 
Max. # MO pairs treated in a batch     ... 11    
# of internal orbitals                 ... 53
# batches for internal orbitals        ... 5
Closing buffer IAV ( 0.63 GB; CompressionRatio= 1.00)
(ia|v) transformation done in    27.576 sec

  Phase 2 completed in    27.584 sec
RI-Integral transformation completed in    59.850 sec
Opening buffers                              ... done

Starting loop over batches of integrals:

Operator 0  - window                       ... ( 24- 76)x( 77-827)
Operator 0  - Memory available             ...   256 MB
Operator 0  - Memory needed per MO         ...  12.3 MB
Operator 0  - Number of orbitals per batch ... 13
Operator 0  - Number of batches            ... 5

OPERATOR  0   PASS   0:  MOs    24 ...   36
  Reading integrals       ... ok
  Internal MO  26
  Internal MO  29
  Internal MO  32
  Internal MO  35
OPERATOR  0   PASS   1:  MOs    37 ...   49
  Reading integrals       ... ok
  Internal MO  38
  Internal MO  41
  Internal MO  44
  Internal MO  47
OPERATOR  0   PASS   2:  MOs    50 ...   62
  Reading integrals       ... ok
  Internal MO  50
  Internal MO  53
  Internal MO  56
  Internal MO  59
  Internal MO  62
OPERATOR  0   PASS   3:  MOs    63 ...   75
  Reading integrals       ... ok
  Internal MO  65
  Internal MO  68
  Internal MO  71
  Internal MO  74
OPERATOR  0   PASS   4:  MOs    76 ...   76
  Reading integrals       ... ok
Time spent in pair loops =    78.755 sec
Deleting buffer (Ka|jb)[aa] ...done

-----------------------------------------------
 RI-MP2 CORRELATION ENERGY:     -3.523293682 Eh
-----------------------------------------------


-------
TIMINGS
-------

Total time                :  139.280 sec
Integral trafo            :   59.871 sec ( 43.0%)
I/O of integrals          :    5.559 sec (  4.0%)
K(i,j) Operators          :   47.237 sec ( 33.9%)
T(i,j) pair energies      :    7.366 sec (  5.3%)
V-calculation             :    0.039 sec (  0.0%)
V**(-1/2)                 :    0.459 sec (  0.3%)
Gamma(ia|P)               :    0.000 sec (  0.0%)
Gamma-Trafo               :    0.000 sec (  0.0%)
D(virtual)                :    0.000 sec (  0.0%)
D(internal)               :    0.000 sec (  0.0%)
W(virtual)                :    0.000 sec (  0.0%)
W(internal)               :    0.000 sec (  0.0%)
L(virtual)                :    0.000 sec (  0.0%)
L(internal)               :    0.000 sec (  0.0%)
G(D)                      :    0.000 sec (  0.0%)
G(Z)                      :    0.000 sec (  0.0%)
Z-Vector Solution         :    0.000 sec (  0.0%)
3-Index Derivative        :    0.000 sec (  0.0%)
2-Index Derivative        :    0.000 sec (  0.0%)
Separable Gradient        :    0.000 sec (  0.0%)


---------------------------------------
MP2 TOTAL ENERGY:    -1274.438534214 Eh
---------------------------------------

Maximum memory used throughout the entire MP2-calculation: 304.6 MB

-------------------------   --------------------
FINAL SINGLE POINT ENERGY     -1274.438534214182
-------------------------   --------------------


                            ***************************************
                            *     ORCA property calculations      *
                            ***************************************


  WARNING: The energy has been calculated at the MP2 level but the densities
           used in the property calculations are still SCF densities
           MP2 response densities have not been calculated 
           use %mp2 Density relaxed end
           or  %mp2 Density unrelaxed end

                                    ---------------------
                                    Active property flags
                                    ---------------------
   (+) Dipole Moment


------------------------------------------------------------------------------
                       ORCA ELECTRIC PROPERTIES CALCULATION
------------------------------------------------------------------------------

Dipole Moment Calculation                       ... on
Quadrupole Moment Calculation                   ... off
Polarizability Calculation                      ... off
GBWName                                         ... qm_input.solv.gbw
Electron density file                           ... qm_input.solv.scfp
The origin for moment calculation is the CENTER OF MASS  = (27.098922, -8.815684 -7.228740)

-------------
DIPOLE MOMENT
-------------
                                X             Y             Z
Electronic contribution:     -3.47480     -12.84892      -8.03713
Nuclear contribution   :      4.17000      15.90870      10.77986
                        -----------------------------------------
Total Dipole Moment    :      0.69519       3.05977       2.74273
                        -----------------------------------------
Magnitude (a.u.)       :      4.16750
Magnitude (Debye)      :     10.59294



--------------------
Rotational spectrum 
--------------------
 
Rotational constants in cm-1:     0.011557     0.009113     0.006104 
Rotational constants in MHz :   346.475356   273.187909   182.993458 

 Dipole components along the rotational axes: 
x,y,z [a.u.] :     2.570493     2.421325     2.213099 
x,y,z [Debye]:     6.533674     6.154520     5.625251 

 

Timings for individual modules:

Sum of individual times         ...     6393.087 sec (= 106.551 min)
GTO integral calculation        ...      211.862 sec (=   3.531 min)   3.3 %
SCF iterations                  ...     6040.574 sec (= 100.676 min)  94.5 %
MP2 module                      ...      140.651 sec (=   2.344 min)   2.2 %
                             ****ORCA TERMINATED NORMALLY****
TOTAL RUN TIME: 0 days 1 hours 46 minutes 35 seconds 291 msec
