
                                        *****************
                                        * O   R   C   A *
                                        *****************

                                            #,                                       
                                            ###                                      
                                            ####                                     
                                            #####                                    
                                            ######                                   
                                           ########,                                 
                                     ,,################,,,,,                         
                               ,,#################################,,                 
                          ,,##########################################,,             
                       ,#########################################, ''#####,          
                    ,#############################################,,   '####,        
                  ,##################################################,,,,####,       
                ,###########''''           ''''###############################       
              ,#####''   ,,,,##########,,,,          '''####'''          '####       
            ,##' ,,,,###########################,,,                        '##       
           ' ,,###''''                  '''############,,,                           
         ,,##''                                '''############,,,,        ,,,,,,###''
      ,#''                                            '''#######################'''  
     '                                                          ''''####''''         
             ,#######,   #######,   ,#######,      ##                                
            ,#'     '#,  ##    ##  ,#'     '#,    #''#        ######   ,####,        
            ##       ##  ##   ,#'  ##            #'  '#       #        #'  '#        
            ##       ##  #######   ##           ,######,      #####,   #    #        
            '#,     ,#'  ##    ##  '#,     ,#' ,#      #,         ##   #,  ,#        
             '#######'   ##     ##  '#######'  #'      '#     #####' # '####'        



                  #######################################################
                  #                        -***-                        #
                  #          Department of theory and spectroscopy      #
                  #    Directorship and core code : Frank Neese         #
                  #        Max Planck Institute fuer Kohlenforschung    #
                  #                Kaiser Wilhelm Platz 1               #
                  #                 D-45470 Muelheim/Ruhr               #
                  #                      Germany                        #
                  #                                                     #
                  #                  All rights reserved                #
                  #                        -***-                        #
                  #######################################################


                         Program Version 5.0.0 -  RELEASE  -
                                (SVN: $Rev: 19529$)
                ($Date: 2021-06-28 11:36:33 +0200 (Mo, 28 Jun 2021) $)


 With contributions from (in alphabetic order):
   Daniel Aravena         : Magnetic Suceptibility
   Michael Atanasov       : Ab Initio Ligand Field Theory (pilot matlab implementation)
   Alexander A. Auer      : GIAO ZORA, VPT2 properties, NMR spectrum
   Ute Becker             : Parallelization
   Giovanni Bistoni       : ED, misc. LED, open-shell LED, HFLD
   Martin Brehm           : Molecular dynamics
   Dmytro Bykov           : SCF Hessian
   Vijay G. Chilkuri      : MRCI spin determinant printing, contributions to CSF-ICE
   Dipayan Datta          : RHF DLPNO-CCSD density
   Achintya Kumar Dutta   : EOM-CC, STEOM-CC
   Dmitry Ganyushin       : Spin-Orbit,Spin-Spin,Magnetic field MRCI
   Miquel Garcia          : C-PCM Hessian, Gaussian charge scheme
   Yang Guo               : DLPNO-NEVPT2, F12-NEVPT2, CIM, IAO-localization
   Andreas Hansen         : Spin unrestricted coupled pair/coupled cluster methods
   Benjamin Helmich-Paris : MC-RPA, TRAH-SCF, COSX integrals
   Lee Huntington         : MR-EOM, pCC
   Robert Izsak           : Overlap fitted RIJCOSX, COSX-SCS-MP3, EOM
   Marcus Kettner         : VPT2
   Christian Kollmar      : KDIIS, OOCD, Brueckner-CCSD(T), CCSD density, CASPT2, CASPT2-K
   Simone Kossmann        : Meta GGA functionals, TD-DFT gradient, OOMP2, MP2 Hessian
   Martin Krupicka        : Initial AUTO-CI
   Lucas Lang             : DCDCAS
   Marvin Lechner         : AUTO-CI (C++ implementation), FIC-MRCC
   Dagmar Lenk            : GEPOL surface, SMD
   Dimitrios Liakos       : Extrapolation schemes; Compound Job, initial MDCI parallelization
   Dimitrios Manganas     : Further ROCIS development; embedding schemes
   Dimitrios Pantazis     : SARC Basis sets
   Anastasios Papadopoulos: AUTO-CI, single reference methods and gradients
   Taras Petrenko         : DFT Hessian,TD-DFT gradient, ASA, ECA, R-Raman, ABS, FL, XAS/XES, NRVS
   Peter Pinski           : DLPNO-MP2, DLPNO-MP2 Gradient
   Christoph Reimann      : Effective Core Potentials
   Marius Retegan         : Local ZFS, SOC
   Christoph Riplinger    : Optimizer, TS searches, QM/MM, DLPNO-CCSD(T), (RO)-DLPNO pert. Triples
   Tobias Risthaus        : Range-separated hybrids, TD-DFT gradient, RPA, STAB
   Michael Roemelt        : Original ROCIS implementation
   Masaaki Saitow         : Open-shell DLPNO-CCSD energy and density
   Barbara Sandhoefer     : DKH picture change effects
   Avijit Sen             : IP-ROCIS
   Kantharuban Sivalingam : CASSCF convergence, NEVPT2, FIC-MRCI
   Bernardo de Souza      : ESD, SOC TD-DFT
   Georgi Stoychev        : AutoAux, RI-MP2 NMR
   Willem Van den Heuvel  : Paramagnetic NMR
   Boris Wezisla          : Elementary symmetry handling
   Frank Wennmohs         : Technical directorship


 We gratefully acknowledge several colleagues who have allowed us to
 interface, adapt or use parts of their codes:
   Stefan Grimme, W. Hujo, H. Kruse, P. Pracht,  : VdW corrections, initial TS optimization,
                  C. Bannwarth, S. Ehlert          DFT functionals, gCP, sTDA/sTD-DF
   Ed Valeev, F. Pavosevic, A. Kumar             : LibInt (2-el integral package), F12 methods
   Garnet Chan, S. Sharma, J. Yang, R. Olivares  : DMRG
   Ulf Ekstrom                                   : XCFun DFT Library
   Mihaly Kallay                                 : mrcc  (arbitrary order and MRCC methods)
   Jiri Pittner, Ondrej Demel                    : Mk-CCSD
   Frank Weinhold                                : gennbo (NPA and NBO analysis)
   Christopher J. Cramer and Donald G. Truhlar   : smd solvation model
   Lars Goerigk                                  : TD-DFT with DH, B97 family of functionals
   V. Asgeirsson, H. Jonsson                     : NEB implementation
   FAccTs GmbH                                   : IRC, NEB, NEB-TS, DLPNO-Multilevel, CI-OPT
                                                   MM, QMMM, 2- and 3-layer-ONIOM, Crystal-QMMM,
                                                   LR-CPCM, SF, NACMEs, symmetry and pop. for TD-DFT,
                                                   nearIR, NL-DFT gradient (VV10), updates on ESD,
                                                   ML-optimized integration grids
   S Lehtola, MJT Oliveira, MAL Marques          : LibXC Library
   Liviu Ungur et al                             : ANISO software


 Your calculation uses the libint2 library for the computation of 2-el integrals
 For citations please refer to: http://libint.valeyev.net

 Your ORCA version has been built with support for libXC version: 5.1.0
 For citations please refer to: https://tddft.org/programs/libxc/

 This ORCA versions uses:
   CBLAS   interface :  Fast vector & matrix operations
   LAPACKE interface :  Fast linear algebra routines
   SCALAPACK package :  Parallel linear algebra routines
   Shared memory     :  Shared parallel matrices
   BLAS/LAPACK       :  OpenBLAS 0.3.15  USE64BITINT DYNAMIC_ARCH NO_AFFINITY SkylakeX SINGLE_THREADED
        Core in use  :  SkylakeX
   Copyright (c) 2011-2014, The OpenBLAS Project


================================================================================

----- Orbital basis set information -----
Your calculation utilizes the basis: cc-pVTZ 
       H, B-Ne : Obtained from the ccRepo (grant-hill.group.shef.ac.uk/ccrepo) Feb. 2017
                 T. H. Dunning, Jr., J. Chem. Phys. 90, 1007 (1989)
            He : Obtained from the ccRepo (grant-hill.group.shef.ac.uk/ccrepo) Feb. 2017
                 D. E. Woon, T. H. Dunning, Jr., J. Chem. Phys. 100, 2975 (1994)
  Li-Be, Na-Mg : Obtained from the ccRepo (grant-hill.group.shef.ac.uk/ccrepo) Feb. 2017
                 B. P. Prascher, D. E. Woon, K. A. Peterson, T. H. Dunning, Jr., A. K. Wilson, Theor. Chem. Acc. 128, 69 (2011)
         Al-Ar : Obtained from the ccRepo (grant-hill.group.shef.ac.uk/ccrepo) Feb. 2017
                 D. E. Woon, T. H. Dunning, Jr., J. Chem. Phys. 98, 1358 (1993)
            Ca : Obtained from the Peterson Research Group Website (tyr0.chem.wsu.edu/~kipeters) Feb. 2017
                 J. Koput, K. A. Peterson, J. Phys. Chem. 106, 9595 (2002)
         Sc-Zn : Obtained from the ccRepo (grant-hill.group.shef.ac.uk/ccrepo) Feb. 2017
                 N. B. Balabanov, K. A. Peterson, J. Chem. Phys. 123, 064107 (2005)
                 N. B. Balabanov, K. A. Peterson, J. Chem. Phys. 125, 074110 (2006)
         Ga-Kr : Obtained from the ccRepo (grant-hill.group.shef.ac.uk/ccrepo) Feb. 2017
                 A. K. Wilson, D. E. Woon, K. A. Peterson, T. H. Dunning, Jr., J. Chem. Phys. 110, 7667 (1999)
             Y : Obtained from the ccRepo (grant-hill.group.shef.ac.uk/ccrepo) Feb. 2017
                 K. A. Peterson, D. Figgen, M. Dolg, H. Stoll, J. Chem. Phys. 126, 124101 (2007)
        Ag, Au : Obtained from the Peterson Research Group Website (tyr0.chem.wsu.edu/~kipeters) Feb. 2017
                 K. A. Peterson, C. Puzzarini, Theor. Chem. Acc. 114, 283 (2005)

----- AuxC basis set information -----
Your calculation utilizes the auxiliary basis: cc-pVTZ/C 
  Obtained from the EMSL Basis Set Exchange (bse.pnl.gov) Feb. 2017
  H-He, B-F, Al-Ar, Ga-Kr : F. Weigend, A. Kohn, C. Hattig, J. Chem. Phys. 116, 3175 (2002)
             Li-Be, Na-Mg : C. Haettig, Phys. Chem. Chem. Phys. 7, 59 (2005)
                       Ne : C. Haettig, Phys. Chem. Chem. Phys. 7, 59 (2005)
                            F. Weigend, A. Kohn, C. Hattig, J. Chem. Phys. 116, 3175 (2002)
                    Sc-Zn : J. G. Hill, J. A. Platts, J. Chem. Phys. 128, 044104 (2008)

================================================================================
                                        WARNINGS
                       Please study these warnings very carefully!
================================================================================


WARNING: No MP2 level density has been requested!
         To caclulate MP2 level properties use
         %mp2 Density relaxed end
         or
         %mp2 Density unrelaxed end

WARNING: Post HF methods need fully converged wavefunctions
  ===> : Setting SCFConvForced true
         You can overwrite this default with %scf ConvForced false 


INFO   : the flag for use of the SHARK integral package has been found!

================================================================================
                                       INPUT FILE
================================================================================
NAME = qm_input.vacu
|  1> ! RI-MP2 cc-pVTZ cc-pVTZ/c TightSCF KeepDens NoKeepInts
|  2> 
|  3> *xyz  0  1
|  4>     C    15.4780147   -0.7178760   -1.9264236
|  5>     C    14.8175826   -0.9571280   -3.2548860
|  6>     O    15.5140097   -2.0288841   -3.9383624
|  7>     C    14.7752201   -2.7884138   -4.7965231
|  8>     O    13.6806692   -2.4553634   -5.2426555
|  9>     C    15.1387833   -4.1837656   -4.6939789
| 10>     C    16.3601994   -4.5994613   -4.4560495
| 11>     C    17.5713852   -3.7723916   -4.4146994
| 12>     N    16.6058448   -5.9490888   -4.5615657
| 13>     C    15.7514907   -6.8813003   -4.9147512
| 14>     S    16.1885950   -8.4500311   -5.1621537
| 15>     N    14.4803984   -6.4506883   -5.2005861
| 16>     C    13.9767183   -5.1185719   -4.8421518
| 17>     C    13.0984769   -5.0766608   -3.6144666
| 18>     C    13.7048581   -5.4935961   -2.4044290
| 19>     C    12.9447430   -5.5150744   -1.2190997
| 20>     C    11.5773396   -5.1762091   -1.3239202
| 21>     C    11.0223241   -4.8341490   -2.5068818
| 22>     O     9.8165507   -4.3034929   -2.6427536
| 23>     C    11.7633428   -4.8578977   -3.6537282
| 24>     H    14.8370048   -0.1088502   -1.2772830
| 25>     H    16.4739902   -0.2645893   -2.0023121
| 26>     H    15.5596769   -1.6249579   -1.3150943
| 27>     H    13.7768736   -1.2910250   -3.1620042
| 28>     H    14.9825264   -0.1089314   -3.9305694
| 29>     H    17.4453078   -2.9128929   -5.0844467
| 30>     H    18.3971508   -4.3809301   -4.8032639
| 31>     H    17.6785390   -3.4651849   -3.3671634
| 32>     H    17.4509332   -6.2855989   -4.1159714
| 33>     H    13.9789006   -7.2452348   -5.5789540
| 34>     H    13.2954026   -4.7987918   -5.6401156
| 35>     H    14.7807238   -5.6411805   -2.4162393
| 36>     H    13.4584300   -5.8479539   -0.3220418
| 37>     H    11.0410080   -5.1624123   -0.3796988
| 38>     H     9.5145230   -4.1355870   -1.7331845
| 39>     H    11.3220220   -4.5906486   -4.6093502
| 40> *
| 41> 
| 42>                          ****END OF INPUT****
================================================================================

                       ****************************
                       * Single Point Calculation *
                       ****************************

---------------------------------
CARTESIAN COORDINATES (ANGSTROEM)
---------------------------------
  C     15.478015   -0.717876   -1.926424
  C     14.817583   -0.957128   -3.254886
  O     15.514010   -2.028884   -3.938362
  C     14.775220   -2.788414   -4.796523
  O     13.680669   -2.455363   -5.242655
  C     15.138783   -4.183766   -4.693979
  C     16.360199   -4.599461   -4.456049
  C     17.571385   -3.772392   -4.414699
  N     16.605845   -5.949089   -4.561566
  C     15.751491   -6.881300   -4.914751
  S     16.188595   -8.450031   -5.162154
  N     14.480398   -6.450688   -5.200586
  C     13.976718   -5.118572   -4.842152
  C     13.098477   -5.076661   -3.614467
  C     13.704858   -5.493596   -2.404429
  C     12.944743   -5.515074   -1.219100
  C     11.577340   -5.176209   -1.323920
  C     11.022324   -4.834149   -2.506882
  O      9.816551   -4.303493   -2.642754
  C     11.763343   -4.857898   -3.653728
  H     14.837005   -0.108850   -1.277283
  H     16.473990   -0.264589   -2.002312
  H     15.559677   -1.624958   -1.315094
  H     13.776874   -1.291025   -3.162004
  H     14.982526   -0.108931   -3.930569
  H     17.445308   -2.912893   -5.084447
  H     18.397151   -4.380930   -4.803264
  H     17.678539   -3.465185   -3.367163
  H     17.450933   -6.285599   -4.115971
  H     13.978901   -7.245235   -5.578954
  H     13.295403   -4.798792   -5.640116
  H     14.780724   -5.641180   -2.416239
  H     13.458430   -5.847954   -0.322042
  H     11.041008   -5.162412   -0.379699
  H      9.514523   -4.135587   -1.733184
  H     11.322022   -4.590649   -4.609350

----------------------------
CARTESIAN COORDINATES (A.U.)
----------------------------
  NO LB      ZA    FRAG     MASS         X           Y           Z
   0 C     6.0000    0    12.011   29.249209   -1.356589   -3.640413
   1 C     6.0000    0    12.011   28.001173   -1.808710   -6.150843
   2 O     8.0000    0    15.999   29.317230   -3.834035   -7.442426
   3 C     6.0000    0    12.011   27.921120   -5.269338   -9.064115
   4 O     8.0000    0    15.999   25.852718   -4.639964   -9.907183
   5 C     6.0000    0    12.011   28.608154   -7.906171   -8.870335
   6 C     6.0000    0    12.011   30.916296   -8.691722   -8.420713
   7 C     6.0000    0    12.011   33.205106   -7.128787   -8.342573
   8 N     7.0000    0    14.007   31.380499  -11.242149   -8.620110
   9 C     6.0000    0    12.011   29.766004  -13.003773   -9.287534
  10 S    16.0000    0    32.060   30.592011  -15.968245   -9.755057
  11 N     7.0000    0    14.007   27.363987  -12.190034   -9.827683
  12 C     6.0000    0    12.011   26.412170   -9.672699   -9.150341
  13 C     6.0000    0    12.011   24.752534   -9.593499   -6.830352
  14 C     6.0000    0    12.011   25.898429  -10.381392   -4.543712
  15 C     6.0000    0    12.011   24.462019  -10.421980   -2.303765
  16 C     6.0000    0    12.011   21.878001   -9.781618   -2.501847
  17 C     6.0000    0    12.011   20.829174   -9.135218   -4.737320
  18 O     8.0000    0    15.999   18.550592   -8.132423   -4.994081
  19 C     6.0000    0    12.011   22.229496   -9.180096   -6.904546
  20 H     1.0000    0     1.008   28.037876   -0.205697   -2.413715
  21 H     1.0000    0     1.008   31.131330   -0.500001   -3.783822
  22 H     1.0000    0     1.008   29.403528   -3.070725   -2.485168
  23 H     1.0000    0     1.008   26.034518   -2.439684   -5.975322
  24 H     1.0000    0     1.008   28.312872   -0.205851   -7.427700
  25 H     1.0000    0     1.008   32.966854   -5.504570   -9.608212
  26 H     1.0000    0     1.008   34.765577   -8.278758   -9.076853
  27 H     1.0000    0     1.008   33.407597   -6.548250   -6.363017
  28 H     1.0000    0     1.008   32.977485  -11.878061   -7.778059
  29 H     1.0000    0     1.008   26.416294  -13.691510  -10.542695
  30 H     1.0000    0     1.008   25.124670   -9.068402  -10.658274
  31 H     1.0000    0     1.008   27.931520  -10.660286   -4.566031
  32 H     1.0000    0     1.008   25.432747  -11.051031   -0.608571
  33 H     1.0000    0     1.008   20.864481   -9.755545   -0.717527
  34 H     1.0000    0     1.008   17.979843   -7.815127   -3.275244
  35 H     1.0000    0     1.008   21.395521   -8.675069   -8.710410

--------------------------------
INTERNAL COORDINATES (ANGSTROEM)
--------------------------------
 C      0   0   0     0.000000000000     0.00000000     0.00000000
 C      1   0   0     1.502738974815     0.00000000     0.00000000
 O      2   1   0     1.449417756500   108.87014798     0.00000000
 C      3   2   1     1.363501091043   116.63734318   150.78113880
 O      4   3   2     1.228005846876   124.09205062    16.75717960
 C      4   3   2     1.445579523621   110.90208017   219.83889591
 C      6   4   3     1.311972028559   123.56235041   325.21202188
 C      7   6   4     1.467216807956   126.51438058   352.15999842
 N      7   6   4     1.375852361178   117.58846271   188.57253401
 C      9   7   6     1.312889639813   126.93858190     2.03784326
 S     10   9   7     1.647174698978   122.95301109   173.38839686
 N     10   9   7     1.372153023435   115.85058688   359.69006615
 C     12  10   9     1.468571718951   123.47221950   345.57691749
 C     13  12  10     1.510058094007   115.02900450   258.95729424
 C     14  13  12     1.416235925795   115.94105674    61.36860601
 C     15  14  13     1.408276191682   119.50705540   181.52024281
 C     16  15  14     1.412660287223   117.15147289     3.14190394
 C     17  16  15     1.350720350156   121.56541380   359.42219129
 O     18  17  16     1.324366465390   124.43221821   191.34644706
 C     14  13  12     1.353507233870   123.68333430   251.18181248
 H      1   2   3     1.096900011638   110.77709279   194.72073090
 H      1   2   3     1.096902499509   113.80842450    70.15505877
 H      1   2   3     1.096900087180   113.18802163   306.04299387
 H      2   1   3     1.096899930742   112.99055434   117.11614955
 H      2   1   3     1.096901083255   110.81525991   248.51244784
 H      8   7   6     1.096902444135   109.24494739   330.76354306
 H      8   7   6     1.096900315793   107.38176467   214.16508686
 H      8   7   6     1.096899979340   105.39249845    91.29112321
 H      9   7   6     1.012900652290   116.17501248   197.76141857
 H     12  10   9     1.012900020642   106.87526779   172.13715940
 H     13  12  10     1.096903196063   107.45266570   145.14477853
 H     15  14  13     1.086005360367   117.05735679    10.36160401
 H     16  15  14     1.085999986852   116.39907060   179.69668424
 H     17  16  15     1.085999994966   114.61833573   182.62962952
 H     19  18  17     0.973000036227   104.82404720     6.55951361
 H     20  14  13     1.086001628382   117.78497745   353.04418905

---------------------------
INTERNAL COORDINATES (A.U.)
---------------------------
 C      0   0   0     0.000000000000     0.00000000     0.00000000
 C      1   0   0     2.839765113170     0.00000000     0.00000000
 O      2   1   0     2.739002613428   108.87014798     0.00000000
 C      3   2   1     2.576643645374   116.63734318   150.78113880
 O      4   3   2     2.320594741449   124.09205062    16.75717960
 C      4   3   2     2.731749404447   110.90208017   219.83889591
 C      6   4   3     2.479267829342   123.56235041   325.21202188
 C      7   6   4     2.772637946124   126.51438058   352.15999842
 N      7   6   4     2.599984163336   117.58846271   188.57253401
 C      9   7   6     2.481001863310   126.93858190     2.03784326
 S     10   9   7     3.112709075793   122.95301109   173.38839686
 N     10   9   7     2.592993428124   115.85058688   359.69006615
 C     12  10   9     2.775198356839   123.47221950   345.57691749
 C     13  12  10     2.853596243984   115.02900450   258.95729424
 C     14  13  12     2.676298040774   115.94105674    61.36860601
 C     15  14  13     2.661256323200   119.50705540   181.52024281
 C     16  15  14     2.669541063117   117.15147289     3.14190394
 C     17  16  15     2.552491545310   121.56541380   359.42219129
 O     18  17  16     2.502689920537   124.43221821   191.34644706
 C     14  13  12     2.557757992296   123.68333430   251.18181248
 H      1   2   3     2.072840618291   110.77709279   194.72073090
 H      1   2   3     2.072845319686   113.80842450    70.15505877
 H      1   2   3     2.072840761044   113.18802163   306.04299387
 H      2   1   3     2.072840465419   112.99055434   117.11614955
 H      2   1   3     2.072842643353   110.81525991   248.51244784
 H      8   7   6     2.072845215044   109.24494739   330.76354306
 H      8   7   6     2.072841193060   107.38176467   214.16508686
 H      8   7   6     2.072840557256   105.39249845    91.29112321
 H      9   7   6     1.914104833698   116.17501248   197.76141857
 H     12  10   9     1.914103640057   106.87526779   172.13715940
 H     13  12  10     2.072846635982   107.45266570   145.14477853
 H     15  14  13     2.052252711064   117.05735679    10.36160401
 H     16  15  14     2.052242556592   116.39907060   179.69668424
 H     17  16  15     2.052242571926   114.61833573   182.62962952
 H     19  18  17     1.838703596764   104.82404720     6.55951361
 H     20  14  13     2.052245658634   117.78497745   353.04418905

---------------------
BASIS SET INFORMATION
---------------------
There are 5 groups of distinct atoms

 Group   1 Type C   : 18s5p2d1f contracted to 4s3p2d1f pattern {8811/311/11/1}
 Group   2 Type O   : 18s5p2d1f contracted to 4s3p2d1f pattern {8811/311/11/1}
 Group   3 Type N   : 18s5p2d1f contracted to 4s3p2d1f pattern {8811/311/11/1}
 Group   4 Type S   : 41s16p2d1f contracted to 5s4p2d1f pattern {13131311/7711/11/1}
 Group   5 Type H   : 5s2p1d contracted to 3s2p1d pattern {311/11/1}

Atom   0C    basis set group =>   1
Atom   1C    basis set group =>   1
Atom   2O    basis set group =>   2
Atom   3C    basis set group =>   1
Atom   4O    basis set group =>   2
Atom   5C    basis set group =>   1
Atom   6C    basis set group =>   1
Atom   7C    basis set group =>   1
Atom   8N    basis set group =>   3
Atom   9C    basis set group =>   1
Atom  10S    basis set group =>   4
Atom  11N    basis set group =>   3
Atom  12C    basis set group =>   1
Atom  13C    basis set group =>   1
Atom  14C    basis set group =>   1
Atom  15C    basis set group =>   1
Atom  16C    basis set group =>   1
Atom  17C    basis set group =>   1
Atom  18O    basis set group =>   2
Atom  19C    basis set group =>   1
Atom  20H    basis set group =>   5
Atom  21H    basis set group =>   5
Atom  22H    basis set group =>   5
Atom  23H    basis set group =>   5
Atom  24H    basis set group =>   5
Atom  25H    basis set group =>   5
Atom  26H    basis set group =>   5
Atom  27H    basis set group =>   5
Atom  28H    basis set group =>   5
Atom  29H    basis set group =>   5
Atom  30H    basis set group =>   5
Atom  31H    basis set group =>   5
Atom  32H    basis set group =>   5
Atom  33H    basis set group =>   5
Atom  34H    basis set group =>   5
Atom  35H    basis set group =>   5
---------------------------------
AUXILIARY/C BASIS SET INFORMATION
---------------------------------
There are 5 groups of distinct atoms

 Group   1 Type C   : 8s6p5d3f1g contracted to 8s6p5d3f1g pattern {11111111/111111/11111/111/1}
 Group   2 Type O   : 8s6p5d3f1g contracted to 8s6p5d3f1g pattern {11111111/111111/11111/111/1}
 Group   3 Type N   : 8s6p5d3f1g contracted to 8s6p5d3f1g pattern {11111111/111111/11111/111/1}
 Group   4 Type S   : 10s8p7d5f2g contracted to 10s8p7d5f2g pattern {1111111111/11111111/1111111/11111/11}
 Group   5 Type H   : 4s3p2d1f contracted to 4s3p2d1f pattern {1111/111/11/1}

Atom   0C    basis set group =>   1
Atom   1C    basis set group =>   1
Atom   2O    basis set group =>   2
Atom   3C    basis set group =>   1
Atom   4O    basis set group =>   2
Atom   5C    basis set group =>   1
Atom   6C    basis set group =>   1
Atom   7C    basis set group =>   1
Atom   8N    basis set group =>   3
Atom   9C    basis set group =>   1
Atom  10S    basis set group =>   4
Atom  11N    basis set group =>   3
Atom  12C    basis set group =>   1
Atom  13C    basis set group =>   1
Atom  14C    basis set group =>   1
Atom  15C    basis set group =>   1
Atom  16C    basis set group =>   1
Atom  17C    basis set group =>   1
Atom  18O    basis set group =>   2
Atom  19C    basis set group =>   1
Atom  20H    basis set group =>   5
Atom  21H    basis set group =>   5
Atom  22H    basis set group =>   5
Atom  23H    basis set group =>   5
Atom  24H    basis set group =>   5
Atom  25H    basis set group =>   5
Atom  26H    basis set group =>   5
Atom  27H    basis set group =>   5
Atom  28H    basis set group =>   5
Atom  29H    basis set group =>   5
Atom  30H    basis set group =>   5
Atom  31H    basis set group =>   5
Atom  32H    basis set group =>   5
Atom  33H    basis set group =>   5
Atom  34H    basis set group =>   5
Atom  35H    basis set group =>   5
------------------------------------------------------------------------------
                           ORCA GTO INTEGRAL CALCULATION
------------------------------------------------------------------------------
------------------------------------------------------------------------------
                   ___                                                        
                  /   \      - P O W E R E D   B Y -                         
                 /     \                                                     
                 |  |  |   _    _      __       _____    __    __             
                 |  |  |  | |  | |    /  \     |  _  \  |  |  /  |          
                  \  \/   | |  | |   /    \    | | | |  |  | /  /          
                 / \  \   | |__| |  /  /\  \   | |_| |  |  |/  /          
                |  |  |   |  __  | /  /__\  \  |    /   |      \           
                |  |  |   | |  | | |   __   |  |    \   |  |\   \          
                \     /   | |  | | |  |  |  |  | |\  \  |  | \   \       
                 \___/    |_|  |_| |__|  |__|  |_| \__\ |__|  \__/        
                                                                              
                      - O R C A' S   B I G   F R I E N D -                    
                                      &                                       
                       - I N T E G R A L  F E E D E R -                       
                                                                              
 v1 FN, 2020, v2 2021                                                         
------------------------------------------------------------------------------


Reading SHARK input file qm_input.vacu.SHARKINP.tmp ... ok
----------------------
SHARK INTEGRAL PACKAGE
----------------------

Number of atoms                             ...     36
Number of basis functions                   ...    828
Number of shells                            ...    298
Maximum angular momentum                    ...      3
Integral batch strategy                     ... SHARK/LIBINT Hybrid
RI-J (if used) integral strategy            ... SPLIT-RIJ (Revised 2003 algorithm where possible)
Printlevel                                  ...      1
Contraction scheme used                     ... SEGMENTED contraction
Coulomb Range Separation                    ... NOT USED
Exchange Range Separation                   ... NOT USED
Finite Nucleus Model                        ... NOT USED
Auxiliary Coulomb fitting basis             ... NOT available
Auxiliary J/K fitting basis                 ... NOT available
Auxiliary Correlation fitting basis         ... AVAILABLE
   # of basis functions in Aux-C            ...   2141
   # of shells in Aux-C                     ...    629
   Maximum angular momentum in Aux-C        ...      4
Auxiliary 'external' fitting basis          ... NOT available
Integral threshold                          ...     2.500000e-11
Primitive cut-off                           ...     2.500000e-12
Primitive pair pre-selection threshold      ...     2.500000e-12

Calculating pre-screening integrals         ... done (  0.6 sec) Dimension = 298
Organizing shell pair data                  ... done (  0.4 sec)
Shell pair information
Total number of shell pairs                 ...     44551
Shell pairs after pre-screening             ...     33478
Total number of primitive shell pairs       ...    234348
Primitive shell pairs kept                  ...     96273
          la=0 lb=0:   6690 shell pairs
          la=1 lb=0:   9305 shell pairs
          la=1 lb=1:   3266 shell pairs
          la=2 lb=0:   5350 shell pairs
          la=2 lb=1:   3667 shell pairs
          la=2 lb=2:   1049 shell pairs
          la=3 lb=0:   1937 shell pairs
          la=3 lb=1:   1325 shell pairs
          la=3 lb=2:    742 shell pairs
          la=3 lb=3:    147 shell pairs

Calculating one electron integrals          ... done (  0.4 sec)
Calculating RI/C V-Matrix + Cholesky decomp.... done (  0.4 sec)
Calculating Nuclear repulsion               ... done (  0.0 sec) ENN=   1723.916134642056 Eh

SHARK setup successfully completed in   1.9 seconds

Maximum memory used throughout the entire GTOINT-calculation: 498.6 MB
-------------------------------------------------------------------------------
                                 ORCA SCF
-------------------------------------------------------------------------------

------------
SCF SETTINGS
------------
Hamiltonian:
 Ab initio Hamiltonian  Method          .... Hartree-Fock(GTOs)


General Settings:
 Integral files         IntName         .... qm_input.vacu
 Hartree-Fock type      HFTyp           .... RHF
 Total Charge           Charge          ....    0
 Multiplicity           Mult            ....    1
 Number of Electrons    NEL             ....  154
 Basis Dimension        Dim             ....  828
 Nuclear Repulsion      ENuc            ....   1723.9161346421 Eh

Convergence Acceleration:
 DIIS                   CNVDIIS         .... on
   Start iteration      DIISMaxIt       ....    12
   Startup error        DIISStart       ....  0.200000
   # of expansion vecs  DIISMaxEq       ....     5
   Bias factor          DIISBfac        ....   1.050
   Max. coefficient     DIISMaxC        ....  10.000
 Trust-Rad. Augm. Hess. CNVTRAH         .... auto
   Auto Start mean grad. ratio tolernc. ....  1.125000
   Auto Start start iteration           ....    20
   Auto Start num. interpolation iter.  ....    10
   Max. Number of Micro iterations      ....    16
   Max. Number of Macro iterations      .... Maxiter - #DIIS iter
   Number of Davidson start vectors     ....     2
   Converg. threshold I  (grad. norm)   ....   1.000e-05
   Converg. threshold II (energy diff.) ....   1.000e-08
   Grad. Scal. Fac. for Micro threshold ....   0.100
   Minimum threshold for Micro iter.    ....   0.010
   NR start threshold (gradient norm)   ....   0.001
   Initial trust radius                 ....   0.400
   Minimum AH scaling param. (alpha)    ....   1.000
   Maximum AH scaling param. (alpha)    .... 1000.000
   Orbital update algorithm             .... Taylor
   White noise on init. David. guess    .... on
   Maximum white noise                  ....   0.010
   Quad. conv. algorithm                .... NR
 SOSCF                  CNVSOSCF        .... on
   Start iteration      SOSCFMaxIt      ....   150
   Startup grad/error   SOSCFStart      ....  0.003300
 Level Shifting         CNVShift        .... on
   Level shift para.    LevelShift      ....    0.2500
   Turn off err/grad.   ShiftErr        ....    0.0010
 Zerner damping         CNVZerner       .... off
 Static damping         CNVDamp         .... on
   Fraction old density DampFac         ....    0.7000
   Max. Damping (<1)    DampMax         ....    0.9800
   Min. Damping (>=0)   DampMin         ....    0.0000
   Turn off err/grad.   DampErr         ....    0.1000
 Fernandez-Rico         CNVRico         .... off

SCF Procedure:
 Maximum # iterations   MaxIter         ....   125
 SCF integral mode      SCFMode         .... Direct
   Integral package                     .... SHARK and LIBINT hybrid scheme
 Reset frequency        DirectResetFreq ....    20
 Integral Threshold     Thresh          ....  2.500e-11 Eh
 Primitive CutOff       TCut            ....  2.500e-12 Eh

Convergence Tolerance:
 Convergence Check Mode ConvCheckMode   .... Total+1el-Energy
 Convergence forced     ConvForced      .... 1
 Energy Change          TolE            ....  1.000e-08 Eh
 1-El. energy change                    ....  1.000e-05 Eh
 Orbital Gradient       TolG            ....  1.000e-05
 Orbital Rotation angle TolX            ....  1.000e-05
 DIIS Error             TolErr          ....  5.000e-07


Diagonalization of the overlap matrix:
Smallest eigenvalue                        ... 3.935e-05
Time for diagonalization                   ...    0.144 sec
Threshold for overlap eigenvalues          ... 1.000e-08
Number of eigenvalues below threshold      ... 0
Time for construction of square roots      ...    0.062 sec
Total time needed                          ...    0.207 sec

Time for model grid setup =    1.465 sec

------------------------------
INITIAL GUESS: MODEL POTENTIAL
------------------------------
Loading Hartree-Fock densities                     ... done
Calculating cut-offs                               ... done
Initializing the effective Hamiltonian             ... done
Setting up the integral package (SHARK)            ... done
Starting the Coulomb interaction                   ... done (   4.6 sec)
Reading the grid                                   ... done
Mapping shells                                     ... done
Starting the XC term evaluation                    ... done (   1.6 sec)
Transforming the Hamiltonian                       ... done (   0.1 sec)
Diagonalizing the Hamiltonian                      ... done (   0.1 sec)
Back transforming the eigenvectors                 ... done (   0.0 sec)
Now organizing SCF variables                       ... done
                      ------------------
                      INITIAL GUESS DONE (   7.9 sec)
                      ------------------
--------------
SCF ITERATIONS
--------------
ITER       Energy         Delta-E        Max-DP      RMS-DP      [F,P]     Damp
               ***  Starting incremental Fock matrix formation  ***
  0  -1269.9400850450   0.000000000000 0.04948419  0.00049476  0.3035072 0.7000
  1  -1270.2194376943  -0.279352649368 0.04170323  0.00041662  0.1800742 0.7000
                               ***Turning on DIIS***
  2  -1270.3934339979  -0.173996303516 0.02587434  0.00027489  0.1096623 0.7000
  3  -1272.6801820807  -2.286748082813 0.06316411  0.00055414  0.0827788 0.0000
  4  -1270.6984413081   1.981740772593 0.01173844  0.00011491  0.0079628 0.0000
  5  -1270.7798928758  -0.081451567747 0.00624886  0.00005775  0.0047856 0.0000
                      *** Initiating the SOSCF procedure ***
                           *** Shutting down DIIS ***
                      *** Re-Reading the Fockian *** 
                      *** Removing any level shift *** 
ITER      Energy       Delta-E        Grad      Rot      Max-DP    RMS-DP
  6  -1270.75650044   0.0233924401  0.001659  0.001659  0.002425  0.000029
               *** Restarting incremental Fock matrix formation ***
  7  -1270.77022083  -0.0137203967  0.000763  0.001674  0.001969  0.000019
  8  -1270.77027109  -0.0000502623  0.000468  0.001944  0.001484  0.000020
  9  -1270.77029099  -0.0000198910  0.000196  0.000318  0.000393  0.000005
 10  -1270.77029349  -0.0000025084  0.000048  0.000126  0.000136  0.000002
 11  -1270.77029376  -0.0000002609  0.000018  0.000104  0.000081  0.000001
 12  -1270.77029382  -0.0000000683  0.000008  0.000022  0.000033  0.000000
                  ***Gradient check signals convergence***
              ***Rediagonalizing the Fockian in SOSCF/NRSCF***

               *****************************************************
               *                     SUCCESS                       *
               *           SCF CONVERGED AFTER  13 CYCLES          *
               *****************************************************


----------------
TOTAL SCF ENERGY
----------------

Total Energy       :        -1270.77029383 Eh          -34579.41768 eV

Components:
Nuclear Repulsion  :         1723.91613464 Eh           46910.14289 eV
Electronic Energy  :        -2994.68642847 Eh          -81489.56057 eV
One Electron Energy:        -5168.82576676 Eh         -140650.89967 eV
Two Electron Energy:         2174.13933829 Eh           59161.33910 eV

Virial components:
Potential Energy   :        -2541.08516506 Eh          -69146.44268 eV
Kinetic Energy     :         1270.31487123 Eh           34567.02500 eV
Virial Ratio       :            2.00035851


---------------
SCF CONVERGENCE
---------------

  Last Energy change         ...   -4.0563e-09  Tolerance :   1.0000e-08
  Last MAX-Density change    ...    7.0862e-06  Tolerance :   1.0000e-07
  Last RMS-Density change    ...    1.1774e-07  Tolerance :   5.0000e-09
  Last Orbital Gradient      ...    2.4283e-06  Tolerance :   1.0000e-05
  Last Orbital Rotation      ...    7.6358e-06  Tolerance :   1.0000e-05

             **** THE GBW FILE WAS UPDATED (qm_input.vacu.gbw) ****
             **** DENSITY qm_input.vacu.scfp WAS UPDATED ****
             **** ENERGY FILE WAS UPDATED (qm_input.vacu.en.tmp) ****
             **** THE GBW FILE WAS UPDATED (qm_input.vacu.gbw) ****
             **** DENSITY qm_input.vacu.scfp WAS UPDATED ****
----------------
ORBITAL ENERGIES
----------------

  NO   OCC          E(Eh)            E(eV) 
   0   2.0000     -91.881925     -2500.2343 
   1   2.0000     -20.598126      -560.5035 
   2   2.0000     -20.595853      -560.4416 
   3   2.0000     -20.549571      -559.1822 
   4   2.0000     -15.622806      -425.1182 
   5   2.0000     -15.597979      -424.4426 
   6   2.0000     -11.389016      -309.9109 
   7   2.0000     -11.369759      -309.3869 
   8   2.0000     -11.313344      -307.8517 
   9   2.0000     -11.299169      -307.4660 
  10   2.0000     -11.298805      -307.4561 
  11   2.0000     -11.298057      -307.4358 
  12   2.0000     -11.253398      -306.2205 
  13   2.0000     -11.252412      -306.1937 
  14   2.0000     -11.243594      -305.9538 
  15   2.0000     -11.243487      -305.9508 
  16   2.0000     -11.235300      -305.7281 
  17   2.0000     -11.234415      -305.7040 
  18   2.0000     -11.232420      -305.6497 
  19   2.0000     -11.223722      -305.4130 
  20   2.0000      -8.887580      -241.8434 
  21   2.0000      -6.569245      -178.7582 
  22   2.0000      -6.567136      -178.7009 
  23   2.0000      -6.566597      -178.6862 
  24   2.0000      -1.454879       -39.5893 
  25   2.0000      -1.431765       -38.9603 
  26   2.0000      -1.360643       -37.0250 
  27   2.0000      -1.357279       -36.9334 
  28   2.0000      -1.238707       -33.7069 
  29   2.0000      -1.168974       -31.8094 
  30   2.0000      -1.140252       -31.0278 
  31   2.0000      -1.056166       -28.7397 
  32   2.0000      -1.048726       -28.5373 
  33   2.0000      -1.021928       -27.8081 
  34   2.0000      -1.006019       -27.3752 
  35   2.0000      -0.986794       -26.8520 
  36   2.0000      -0.928425       -25.2637 
  37   2.0000      -0.893652       -24.3175 
  38   2.0000      -0.854971       -23.2649 
  39   2.0000      -0.846582       -23.0367 
  40   2.0000      -0.835780       -22.7427 
  41   2.0000      -0.823141       -22.3988 
  42   2.0000      -0.759422       -20.6649 
  43   2.0000      -0.741543       -20.1784 
  44   2.0000      -0.733795       -19.9676 
  45   2.0000      -0.700284       -19.0557 
  46   2.0000      -0.695315       -18.9205 
  47   2.0000      -0.685978       -18.6664 
  48   2.0000      -0.670124       -18.2350 
  49   2.0000      -0.661253       -17.9936 
  50   2.0000      -0.654284       -17.8040 
  51   2.0000      -0.646602       -17.5949 
  52   2.0000      -0.635416       -17.2905 
  53   2.0000      -0.621958       -16.9243 
  54   2.0000      -0.614711       -16.7271 
  55   2.0000      -0.606533       -16.5046 
  56   2.0000      -0.599428       -16.3113 
  57   2.0000      -0.580876       -15.8064 
  58   2.0000      -0.580200       -15.7880 
  59   2.0000      -0.570022       -15.5111 
  60   2.0000      -0.560343       -15.2477 
  61   2.0000      -0.554536       -15.0897 
  62   2.0000      -0.537522       -14.6267 
  63   2.0000      -0.524979       -14.2854 
  64   2.0000      -0.517630       -14.0854 
  65   2.0000      -0.512204       -13.9378 
  66   2.0000      -0.505177       -13.7466 
  67   2.0000      -0.500201       -13.6112 
  68   2.0000      -0.483379       -13.1534 
  69   2.0000      -0.463439       -12.6108 
  70   2.0000      -0.458626       -12.4798 
  71   2.0000      -0.451754       -12.2928 
  72   2.0000      -0.359003        -9.7690 
  73   2.0000      -0.351515        -9.5652 
  74   2.0000      -0.326215        -8.8768 
  75   2.0000      -0.321645        -8.7524 
  76   2.0000      -0.309258        -8.4153 
  77   0.0000       0.076726         2.0878 
  78   0.0000       0.112283         3.0554 
  79   0.0000       0.122979         3.3464 
  80   0.0000       0.129454         3.5226 
  81   0.0000       0.136793         3.7223 
  82   0.0000       0.138983         3.7819 
  83   0.0000       0.152041         4.1372 
  84   0.0000       0.156662         4.2630 
  85   0.0000       0.160031         4.3547 
  86   0.0000       0.171032         4.6540 
  87   0.0000       0.178231         4.8499 
  88   0.0000       0.185735         5.0541 
  89   0.0000       0.191426         5.2090 
  90   0.0000       0.199823         5.4375 
  91   0.0000       0.206865         5.6291 
  92   0.0000       0.212523         5.7830 
  93   0.0000       0.219617         5.9761 
  94   0.0000       0.221781         6.0350 
  95   0.0000       0.228901         6.2287 
  96   0.0000       0.241293         6.5659 
  97   0.0000       0.251281         6.8377 
  98   0.0000       0.252593         6.8734 
  99   0.0000       0.275836         7.5059 
 100   0.0000       0.280446         7.6313 
 101   0.0000       0.312715         8.5094 
 102   0.0000       0.318000         8.6532 
 103   0.0000       0.326318         8.8796 
 104   0.0000       0.332613         9.0508 
 105   0.0000       0.334568         9.1041 
 106   0.0000       0.341327         9.2880 
 107   0.0000       0.351174         9.5559 
 108   0.0000       0.354735         9.6528 
 109   0.0000       0.363129         9.8812 
 110   0.0000       0.369377        10.0513 
 111   0.0000       0.381504        10.3813 
 112   0.0000       0.386138        10.5074 
 113   0.0000       0.400526        10.8989 
 114   0.0000       0.404562        11.0087 
 115   0.0000       0.415866        11.3163 
 116   0.0000       0.418144        11.3783 
 117   0.0000       0.431258        11.7351 
 118   0.0000       0.432581        11.7711 
 119   0.0000       0.441018        12.0007 
 120   0.0000       0.448715        12.2102 
 121   0.0000       0.450046        12.2464 
 122   0.0000       0.453757        12.3474 
 123   0.0000       0.462511        12.5856 
 124   0.0000       0.472768        12.8647 
 125   0.0000       0.474325        12.9070 
 126   0.0000       0.480106        13.0643 
 127   0.0000       0.485283        13.2052 
 128   0.0000       0.492727        13.4078 
 129   0.0000       0.495991        13.4966 
 130   0.0000       0.501435        13.6447 
 131   0.0000       0.505103        13.7445 
 132   0.0000       0.513755        13.9800 
 133   0.0000       0.522564        14.2197 
 134   0.0000       0.526183        14.3182 
 135   0.0000       0.532400        14.4873 
 136   0.0000       0.536882        14.6093 
 137   0.0000       0.540321        14.7029 
 138   0.0000       0.542995        14.7756 
 139   0.0000       0.543960        14.8019 
 140   0.0000       0.557515        15.1708 
 141   0.0000       0.560959        15.2645 
 142   0.0000       0.565288        15.3823 
 143   0.0000       0.573295        15.6002 
 144   0.0000       0.578607        15.7447 
 145   0.0000       0.584168        15.8960 
 146   0.0000       0.585515        15.9327 
 147   0.0000       0.593605        16.1528 
 148   0.0000       0.598716        16.2919 
 149   0.0000       0.603559        16.4237 
 150   0.0000       0.605945        16.4886 
 151   0.0000       0.608494        16.5580 
 152   0.0000       0.612118        16.6566 
 153   0.0000       0.621937        16.9238 
 154   0.0000       0.624686        16.9986 
 155   0.0000       0.633206        17.2304 
 156   0.0000       0.638848        17.3839 
 157   0.0000       0.639548        17.4030 
 158   0.0000       0.642141        17.4736 
 159   0.0000       0.643724        17.5166 
 160   0.0000       0.651528        17.7290 
 161   0.0000       0.652823        17.7642 
 162   0.0000       0.660397        17.9703 
 163   0.0000       0.664564        18.0837 
 164   0.0000       0.668105        18.1801 
 165   0.0000       0.676281        18.4025 
 166   0.0000       0.678667        18.4675 
 167   0.0000       0.684767        18.6334 
 168   0.0000       0.688936        18.7469 
 169   0.0000       0.694949        18.9105 
 170   0.0000       0.703616        19.1464 
 171   0.0000       0.707776        19.2596 
 172   0.0000       0.720113        19.5953 
 173   0.0000       0.723122        19.6772 
 174   0.0000       0.728851        19.8331 
 175   0.0000       0.731470        19.9043 
 176   0.0000       0.736020        20.0281 
 177   0.0000       0.743649        20.2357 
 178   0.0000       0.750377        20.4188 
 179   0.0000       0.758103        20.6290 
 180   0.0000       0.765585        20.8326 
 181   0.0000       0.772346        21.0166 
 182   0.0000       0.777532        21.1577 
 183   0.0000       0.779843        21.2206 
 184   0.0000       0.802050        21.8249 
 185   0.0000       0.805764        21.9259 
 186   0.0000       0.816243        22.2111 
 187   0.0000       0.825449        22.4616 
 188   0.0000       0.828032        22.5319 
 189   0.0000       0.838467        22.8158 
 190   0.0000       0.843669        22.9574 
 191   0.0000       0.849238        23.1089 
 192   0.0000       0.856631        23.3101 
 193   0.0000       0.870168        23.6785 
 194   0.0000       0.874325        23.7916 
 195   0.0000       0.878801        23.9134 
 196   0.0000       0.887092        24.1390 
 197   0.0000       0.896194        24.3867 
 198   0.0000       0.906247        24.6602 
 199   0.0000       0.911427        24.8012 
 200   0.0000       0.916262        24.9328 
 201   0.0000       0.930498        25.3201 
 202   0.0000       0.939607        25.5680 
 203   0.0000       0.943725        25.6801 
 204   0.0000       0.951387        25.8885 
 205   0.0000       0.957945        26.0670 
 206   0.0000       0.963448        26.2168 
 207   0.0000       0.969546        26.3827 
 208   0.0000       0.979183        26.6449 
 209   0.0000       0.984691        26.7948 
 210   0.0000       0.990137        26.9430 
 211   0.0000       0.992540        27.0084 
 212   0.0000       1.005366        27.3574 
 213   0.0000       1.014648        27.6100 
 214   0.0000       1.026170        27.9235 
 215   0.0000       1.028830        27.9959 
 216   0.0000       1.038700        28.2645 
 217   0.0000       1.042638        28.3716 
 218   0.0000       1.053692        28.6724 
 219   0.0000       1.057780        28.7837 
 220   0.0000       1.060246        28.8508 
 221   0.0000       1.068033        29.0627 
 222   0.0000       1.071385        29.1539 
 223   0.0000       1.076921        29.3045 
 224   0.0000       1.079759        29.3817 
 225   0.0000       1.090361        29.6702 
 226   0.0000       1.100556        29.9476 
 227   0.0000       1.111750        30.2523 
 228   0.0000       1.112418        30.2704 
 229   0.0000       1.116275        30.3754 
 230   0.0000       1.120999        30.5039 
 231   0.0000       1.137582        30.9552 
 232   0.0000       1.147982        31.2382 
 233   0.0000       1.151354        31.3299 
 234   0.0000       1.163715        31.6663 
 235   0.0000       1.169355        31.8198 
 236   0.0000       1.178431        32.0667 
 237   0.0000       1.183352        32.2006 
 238   0.0000       1.193926        32.4884 
 239   0.0000       1.204480        32.7756 
 240   0.0000       1.207048        32.8454 
 241   0.0000       1.212591        32.9963 
 242   0.0000       1.216818        33.1113 
 243   0.0000       1.226513        33.3751 
 244   0.0000       1.227720        33.4080 
 245   0.0000       1.231800        33.5190 
 246   0.0000       1.238474        33.7006 
 247   0.0000       1.250322        34.0230 
 248   0.0000       1.260606        34.3028 
 249   0.0000       1.264213        34.4010 
 250   0.0000       1.266088        34.4520 
 251   0.0000       1.271105        34.5885 
 252   0.0000       1.275307        34.7029 
 253   0.0000       1.286257        35.0008 
 254   0.0000       1.290635        35.1200 
 255   0.0000       1.303524        35.4707 
 256   0.0000       1.305079        35.5130 
 257   0.0000       1.321488        35.9595 
 258   0.0000       1.324381        36.0382 
 259   0.0000       1.329219        36.1699 
 260   0.0000       1.339708        36.4553 
 261   0.0000       1.348489        36.6943 
 262   0.0000       1.357288        36.9337 
 263   0.0000       1.361758        37.0553 
 264   0.0000       1.364367        37.1263 
 265   0.0000       1.380667        37.5699 
 266   0.0000       1.384341        37.6698 
 267   0.0000       1.396866        38.0106 
 268   0.0000       1.404137        38.2085 
 269   0.0000       1.419546        38.6278 
 270   0.0000       1.421808        38.6894 
 271   0.0000       1.440398        39.1952 
 272   0.0000       1.449282        39.4370 
 273   0.0000       1.452243        39.5175 
 274   0.0000       1.460950        39.7545 
 275   0.0000       1.478427        40.2300 
 276   0.0000       1.482332        40.3363 
 277   0.0000       1.488678        40.5090 
 278   0.0000       1.495505        40.6948 
 279   0.0000       1.501109        40.8473 
 280   0.0000       1.507607        41.0241 
 281   0.0000       1.511041        41.1175 
 282   0.0000       1.521205        41.3941 
 283   0.0000       1.531356        41.6703 
 284   0.0000       1.538053        41.8525 
 285   0.0000       1.542903        41.9845 
 286   0.0000       1.547021        42.0966 
 287   0.0000       1.551659        42.2228 
 288   0.0000       1.554008        42.2867 
 289   0.0000       1.567532        42.6547 
 290   0.0000       1.575778        42.8791 
 291   0.0000       1.581171        43.0258 
 292   0.0000       1.583402        43.0865 
 293   0.0000       1.592059        43.3221 
 294   0.0000       1.598502        43.4974 
 295   0.0000       1.604353        43.6567 
 296   0.0000       1.614317        43.9278 
 297   0.0000       1.618118        44.0312 
 298   0.0000       1.626152        44.2498 
 299   0.0000       1.626698        44.2647 
 300   0.0000       1.638272        44.5797 
 301   0.0000       1.643651        44.7260 
 302   0.0000       1.646832        44.8126 
 303   0.0000       1.657929        45.1145 
 304   0.0000       1.659399        45.1546 
 305   0.0000       1.676308        45.6147 
 306   0.0000       1.688551        45.9478 
 307   0.0000       1.699759        46.2528 
 308   0.0000       1.707475        46.4628 
 309   0.0000       1.714281        46.6479 
 310   0.0000       1.726809        46.9889 
 311   0.0000       1.737540        47.2809 
 312   0.0000       1.748825        47.5879 
 313   0.0000       1.753934        47.7270 
 314   0.0000       1.760528        47.9064 
 315   0.0000       1.774302        48.2812 
 316   0.0000       1.776056        48.3289 
 317   0.0000       1.781083        48.4657 
 318   0.0000       1.805375        49.1267 
 319   0.0000       1.806071        49.1457 
 320   0.0000       1.814285        49.3692 
 321   0.0000       1.825799        49.6825 
 322   0.0000       1.829534        49.7841 
 323   0.0000       1.842593        50.1395 
 324   0.0000       1.872202        50.9452 
 325   0.0000       1.878449        51.1152 
 326   0.0000       1.897008        51.6202 
 327   0.0000       1.904463        51.8231 
 328   0.0000       1.916268        52.1443 
 329   0.0000       1.928784        52.4849 
 330   0.0000       1.937920        52.7335 
 331   0.0000       1.951835        53.1121 
 332   0.0000       1.956461        53.2380 
 333   0.0000       1.972192        53.6661 
 334   0.0000       1.987494        54.0825 
 335   0.0000       1.993625        54.2493 
 336   0.0000       2.013514        54.7905 
 337   0.0000       2.022703        55.0405 
 338   0.0000       2.026030        55.1311 
 339   0.0000       2.032995        55.3206 
 340   0.0000       2.039350        55.4935 
 341   0.0000       2.047022        55.7023 
 342   0.0000       2.064752        56.1848 
 343   0.0000       2.074294        56.4444 
 344   0.0000       2.088549        56.8323 
 345   0.0000       2.100522        57.1581 
 346   0.0000       2.124239        57.8035 
 347   0.0000       2.138385        58.1884 
 348   0.0000       2.140957        58.2584 
 349   0.0000       2.162225        58.8371 
 350   0.0000       2.179860        59.3170 
 351   0.0000       2.191018        59.6206 
 352   0.0000       2.221179        60.4414 
 353   0.0000       2.230810        60.7034 
 354   0.0000       2.249187        61.2035 
 355   0.0000       2.256089        61.3913 
 356   0.0000       2.264516        61.6206 
 357   0.0000       2.288111        62.2627 
 358   0.0000       2.294651        62.4406 
 359   0.0000       2.312363        62.9226 
 360   0.0000       2.319480        63.1163 
 361   0.0000       2.333035        63.4851 
 362   0.0000       2.345093        63.8132 
 363   0.0000       2.363539        64.3152 
 364   0.0000       2.372915        64.5703 
 365   0.0000       2.386454        64.9387 
 366   0.0000       2.393623        65.1338 
 367   0.0000       2.402534        65.3763 
 368   0.0000       2.414202        65.6938 
 369   0.0000       2.433147        66.2093 
 370   0.0000       2.450901        66.6924 
 371   0.0000       2.456164        66.8356 
 372   0.0000       2.476457        67.3878 
 373   0.0000       2.482202        67.5441 
 374   0.0000       2.498556        67.9892 
 375   0.0000       2.514717        68.4289 
 376   0.0000       2.535244        68.9875 
 377   0.0000       2.543759        69.2192 
 378   0.0000       2.556840        69.5751 
 379   0.0000       2.578877        70.1748 
 380   0.0000       2.586234        70.3750 
 381   0.0000       2.592826        70.5544 
 382   0.0000       2.602005        70.8041 
 383   0.0000       2.613226        71.1095 
 384   0.0000       2.628929        71.5368 
 385   0.0000       2.644324        71.9557 
 386   0.0000       2.651830        72.1600 
 387   0.0000       2.667637        72.5901 
 388   0.0000       2.684561        73.0506 
 389   0.0000       2.688137        73.1479 
 390   0.0000       2.693051        73.2816 
 391   0.0000       2.708312        73.6969 
 392   0.0000       2.713835        73.8472 
 393   0.0000       2.720165        74.0195 
 394   0.0000       2.726297        74.1863 
 395   0.0000       2.744169        74.6726 
 396   0.0000       2.752309        74.8941 
 397   0.0000       2.757430        75.0335 
 398   0.0000       2.766427        75.2783 
 399   0.0000       2.772181        75.4349 
 400   0.0000       2.782663        75.7201 
 401   0.0000       2.787830        75.8607 
 402   0.0000       2.795474        76.0687 
 403   0.0000       2.810556        76.4791 
 404   0.0000       2.826094        76.9019 
 405   0.0000       2.832892        77.0869 
 406   0.0000       2.850725        77.5722 
 407   0.0000       2.869058        78.0710 
 408   0.0000       2.874966        78.2318 
 409   0.0000       2.880477        78.3818 
 410   0.0000       2.886064        78.5338 
 411   0.0000       2.891835        78.6908 
 412   0.0000       2.900812        78.9351 
 413   0.0000       2.909585        79.1738 
 414   0.0000       2.914868        79.3176 
 415   0.0000       2.920363        79.4671 
 416   0.0000       2.928876        79.6988 
 417   0.0000       2.939709        79.9936 
 418   0.0000       2.959878        80.5424 
 419   0.0000       2.969638        80.8080 
 420   0.0000       2.979981        81.0894 
 421   0.0000       2.987372        81.2905 
 422   0.0000       3.002072        81.6905 
 423   0.0000       3.009931        81.9044 
 424   0.0000       3.022237        82.2392 
 425   0.0000       3.030579        82.4662 
 426   0.0000       3.041569        82.7653 
 427   0.0000       3.044707        82.8507 
 428   0.0000       3.051000        83.0219 
 429   0.0000       3.057194        83.1905 
 430   0.0000       3.065020        83.4034 
 431   0.0000       3.069231        83.5180 
 432   0.0000       3.072200        83.5988 
 433   0.0000       3.077345        83.7388 
 434   0.0000       3.085186        83.9522 
 435   0.0000       3.092007        84.1378 
 436   0.0000       3.097441        84.2857 
 437   0.0000       3.108092        84.5755 
 438   0.0000       3.111466        84.6673 
 439   0.0000       3.116063        84.7924 
 440   0.0000       3.124730        85.0282 
 441   0.0000       3.127753        85.1105 
 442   0.0000       3.146186        85.6121 
 443   0.0000       3.154437        85.8366 
 444   0.0000       3.162559        86.0576 
 445   0.0000       3.166777        86.1724 
 446   0.0000       3.169674        86.2512 
 447   0.0000       3.178230        86.4840 
 448   0.0000       3.196285        86.9753 
 449   0.0000       3.200967        87.1027 
 450   0.0000       3.207969        87.2933 
 451   0.0000       3.210553        87.3636 
 452   0.0000       3.220928        87.6459 
 453   0.0000       3.231221        87.9260 
 454   0.0000       3.235291        88.0367 
 455   0.0000       3.241097        88.1947 
 456   0.0000       3.245148        88.3050 
 457   0.0000       3.254944        88.5715 
 458   0.0000       3.263769        88.8117 
 459   0.0000       3.272502        89.0493 
 460   0.0000       3.275414        89.1285 
 461   0.0000       3.282368        89.3178 
 462   0.0000       3.297715        89.7354 
 463   0.0000       3.307079        89.9902 
 464   0.0000       3.312674        90.1425 
 465   0.0000       3.313137        90.1550 
 466   0.0000       3.325979        90.5045 
 467   0.0000       3.329852        90.6099 
 468   0.0000       3.335963        90.7762 
 469   0.0000       3.337636        90.8217 
 470   0.0000       3.345830        91.0447 
 471   0.0000       3.347294        91.0845 
 472   0.0000       3.355597        91.3104 
 473   0.0000       3.359949        91.4289 
 474   0.0000       3.362861        91.5081 
 475   0.0000       3.371335        91.7387 
 476   0.0000       3.376170        91.8703 
 477   0.0000       3.388873        92.2159 
 478   0.0000       3.398191        92.4695 
 479   0.0000       3.402780        92.5944 
 480   0.0000       3.403555        92.6154 
 481   0.0000       3.408628        92.7535 
 482   0.0000       3.417276        92.9888 
 483   0.0000       3.423421        93.1560 
 484   0.0000       3.427081        93.2556 
 485   0.0000       3.432704        93.4086 
 486   0.0000       3.440533        93.6217 
 487   0.0000       3.444086        93.7183 
 488   0.0000       3.446077        93.7725 
 489   0.0000       3.454678        94.0066 
 490   0.0000       3.459317        94.1328 
 491   0.0000       3.466775        94.3357 
 492   0.0000       3.473422        94.5166 
 493   0.0000       3.478578        94.6569 
 494   0.0000       3.486281        94.8665 
 495   0.0000       3.497619        95.1751 
 496   0.0000       3.503517        95.3355 
 497   0.0000       3.509726        95.5045 
 498   0.0000       3.517867        95.7260 
 499   0.0000       3.523343        95.8750 
 500   0.0000       3.532019        96.1111 
 501   0.0000       3.533116        96.1410 
 502   0.0000       3.541874        96.3793 
 503   0.0000       3.555018        96.7370 
 504   0.0000       3.561151        96.9038 
 505   0.0000       3.566424        97.0473 
 506   0.0000       3.580357        97.4265 
 507   0.0000       3.589621        97.6786 
 508   0.0000       3.597463        97.8919 
 509   0.0000       3.607364        98.1614 
 510   0.0000       3.613612        98.3314 
 511   0.0000       3.619436        98.4899 
 512   0.0000       3.624882        98.6381 
 513   0.0000       3.631993        98.8315 
 514   0.0000       3.642210        99.1096 
 515   0.0000       3.645405        99.1965 
 516   0.0000       3.651756        99.3693 
 517   0.0000       3.655258        99.4646 
 518   0.0000       3.658606        99.5557 
 519   0.0000       3.665807        99.7517 
 520   0.0000       3.674953       100.0005 
 521   0.0000       3.675853       100.0251 
 522   0.0000       3.688824       100.3780 
 523   0.0000       3.691675       100.4556 
 524   0.0000       3.699917       100.6799 
 525   0.0000       3.707205       100.8782 
 526   0.0000       3.711575       100.9971 
 527   0.0000       3.714032       101.0639 
 528   0.0000       3.722093       101.2833 
 529   0.0000       3.730464       101.5111 
 530   0.0000       3.732619       101.5697 
 531   0.0000       3.741102       101.8006 
 532   0.0000       3.747678       101.9795 
 533   0.0000       3.751494       102.0833 
 534   0.0000       3.757826       102.2556 
 535   0.0000       3.764623       102.4406 
 536   0.0000       3.772301       102.6495 
 537   0.0000       3.780998       102.8862 
 538   0.0000       3.786337       103.0315 
 539   0.0000       3.797247       103.3284 
 540   0.0000       3.797843       103.3446 
 541   0.0000       3.805380       103.5496 
 542   0.0000       3.812349       103.7393 
 543   0.0000       3.823877       104.0530 
 544   0.0000       3.827297       104.1461 
 545   0.0000       3.843258       104.5804 
 546   0.0000       3.848544       104.7242 
 547   0.0000       3.858139       104.9853 
 548   0.0000       3.860817       105.0582 
 549   0.0000       3.869649       105.2985 
 550   0.0000       3.879042       105.5541 
 551   0.0000       3.887011       105.7710 
 552   0.0000       3.902916       106.2037 
 553   0.0000       3.909025       106.3700 
 554   0.0000       3.916368       106.5698 
 555   0.0000       3.923208       106.7559 
 556   0.0000       3.934471       107.0624 
 557   0.0000       3.944303       107.3299 
 558   0.0000       3.944764       107.3425 
 559   0.0000       3.961788       107.8057 
 560   0.0000       3.963325       107.8475 
 561   0.0000       3.970464       108.0418 
 562   0.0000       3.982057       108.3573 
 563   0.0000       3.993595       108.6712 
 564   0.0000       4.001928       108.8980 
 565   0.0000       4.010390       109.1283 
 566   0.0000       4.019124       109.3659 
 567   0.0000       4.024546       109.5135 
 568   0.0000       4.030695       109.6808 
 569   0.0000       4.040097       109.9366 
 570   0.0000       4.044569       110.0583 
 571   0.0000       4.062271       110.5400 
 572   0.0000       4.070121       110.7536 
 573   0.0000       4.077156       110.9451 
 574   0.0000       4.091013       111.3221 
 575   0.0000       4.100692       111.5855 
 576   0.0000       4.102880       111.6450 
 577   0.0000       4.119460       112.0962 
 578   0.0000       4.121706       112.1573 
 579   0.0000       4.126977       112.3008 
 580   0.0000       4.134836       112.5146 
 581   0.0000       4.142990       112.7365 
 582   0.0000       4.149327       112.9089 
 583   0.0000       4.156036       113.0915 
 584   0.0000       4.157886       113.1418 
 585   0.0000       4.165481       113.3485 
 586   0.0000       4.178441       113.7012 
 587   0.0000       4.183606       113.8417 
 588   0.0000       4.187576       113.9497 
 589   0.0000       4.190373       114.0258 
 590   0.0000       4.196062       114.1806 
 591   0.0000       4.205037       114.4249 
 592   0.0000       4.215405       114.7070 
 593   0.0000       4.223655       114.9315 
 594   0.0000       4.235502       115.2539 
 595   0.0000       4.244512       115.4990 
 596   0.0000       4.248102       115.5967 
 597   0.0000       4.255452       115.7967 
 598   0.0000       4.263708       116.0214 
 599   0.0000       4.268597       116.1544 
 600   0.0000       4.277620       116.3999 
 601   0.0000       4.286959       116.6541 
 602   0.0000       4.288124       116.6858 
 603   0.0000       4.298689       116.9733 
 604   0.0000       4.309200       117.2593 
 605   0.0000       4.312776       117.3566 
 606   0.0000       4.321076       117.5824 
 607   0.0000       4.324787       117.6834 
 608   0.0000       4.331045       117.8537 
 609   0.0000       4.345754       118.2540 
 610   0.0000       4.360137       118.6454 
 611   0.0000       4.363900       118.7478 
 612   0.0000       4.372519       118.9823 
 613   0.0000       4.381159       119.2174 
 614   0.0000       4.384506       119.3085 
 615   0.0000       4.391776       119.5063 
 616   0.0000       4.400302       119.7383 
 617   0.0000       4.408203       119.9533 
 618   0.0000       4.411796       120.0511 
 619   0.0000       4.417783       120.2140 
 620   0.0000       4.426155       120.4418 
 621   0.0000       4.431870       120.5973 
 622   0.0000       4.443224       120.9063 
 623   0.0000       4.458867       121.3319 
 624   0.0000       4.466051       121.5274 
 625   0.0000       4.478474       121.8655 
 626   0.0000       4.487241       122.1040 
 627   0.0000       4.491794       122.2279 
 628   0.0000       4.508104       122.6717 
 629   0.0000       4.510186       122.7284 
 630   0.0000       4.520577       123.0111 
 631   0.0000       4.526121       123.1620 
 632   0.0000       4.530739       123.2877 
 633   0.0000       4.534880       123.4004 
 634   0.0000       4.550706       123.8310 
 635   0.0000       4.560272       124.0913 
 636   0.0000       4.564949       124.2186 
 637   0.0000       4.582270       124.6899 
 638   0.0000       4.586671       124.8097 
 639   0.0000       4.592792       124.9762 
 640   0.0000       4.599094       125.1477 
 641   0.0000       4.610012       125.4448 
 642   0.0000       4.619858       125.7127 
 643   0.0000       4.639382       126.2440 
 644   0.0000       4.642280       126.3229 
 645   0.0000       4.650373       126.5431 
 646   0.0000       4.659276       126.7853 
 647   0.0000       4.670358       127.0869 
 648   0.0000       4.673914       127.1837 
 649   0.0000       4.685916       127.5103 
 650   0.0000       4.691676       127.6670 
 651   0.0000       4.705607       128.0461 
 652   0.0000       4.709044       128.1396 
 653   0.0000       4.727268       128.6355 
 654   0.0000       4.732418       128.7757 
 655   0.0000       4.738338       128.9367 
 656   0.0000       4.763056       129.6093 
 657   0.0000       4.771453       129.8378 
 658   0.0000       4.785784       130.2278 
 659   0.0000       4.796515       130.5198 
 660   0.0000       4.801680       130.6604 
 661   0.0000       4.811501       130.9276 
 662   0.0000       4.838560       131.6639 
 663   0.0000       4.857376       132.1759 
 664   0.0000       4.864786       132.3776 
 665   0.0000       4.874861       132.6517 
 666   0.0000       4.905917       133.4968 
 667   0.0000       4.920809       133.9020 
 668   0.0000       4.931018       134.1798 
 669   0.0000       4.933369       134.2438 
 670   0.0000       4.944110       134.5361 
 671   0.0000       4.968997       135.2133 
 672   0.0000       4.982574       135.5827 
 673   0.0000       5.002896       136.1357 
 674   0.0000       5.032163       136.9321 
 675   0.0000       5.038903       137.1155 
 676   0.0000       5.043682       137.2456 
 677   0.0000       5.051948       137.4705 
 678   0.0000       5.061553       137.7318 
 679   0.0000       5.067246       137.8868 
 680   0.0000       5.082422       138.2997 
 681   0.0000       5.089594       138.4949 
 682   0.0000       5.099983       138.7776 
 683   0.0000       5.104927       138.9121 
 684   0.0000       5.124519       139.4452 
 685   0.0000       5.146645       140.0473 
 686   0.0000       5.152904       140.2176 
 687   0.0000       5.161142       140.4418 
 688   0.0000       5.168306       140.6368 
 689   0.0000       5.175823       140.8413 
 690   0.0000       5.183805       141.0585 
 691   0.0000       5.204692       141.6269 
 692   0.0000       5.205695       141.6542 
 693   0.0000       5.220287       142.0512 
 694   0.0000       5.241389       142.6254 
 695   0.0000       5.247918       142.8031 
 696   0.0000       5.254083       142.9709 
 697   0.0000       5.262741       143.2065 
 698   0.0000       5.275166       143.5446 
 699   0.0000       5.285693       143.8310 
 700   0.0000       5.298284       144.1736 
 701   0.0000       5.319977       144.7639 
 702   0.0000       5.338715       145.2738 
 703   0.0000       5.342604       145.3796 
 704   0.0000       5.369957       146.1240 
 705   0.0000       5.372333       146.1886 
 706   0.0000       5.388593       146.6311 
 707   0.0000       5.393395       146.7617 
 708   0.0000       5.406089       147.1072 
 709   0.0000       5.425561       147.6370 
 710   0.0000       5.455741       148.4583 
 711   0.0000       5.469223       148.8251 
 712   0.0000       5.485195       149.2597 
 713   0.0000       5.496984       149.5805 
 714   0.0000       5.516052       150.0994 
 715   0.0000       5.520879       150.2308 
 716   0.0000       5.543311       150.8412 
 717   0.0000       5.547500       150.9552 
 718   0.0000       5.565536       151.4459 
 719   0.0000       5.571504       151.6083 
 720   0.0000       5.581305       151.8750 
 721   0.0000       5.590750       152.1320 
 722   0.0000       5.594410       152.2316 
 723   0.0000       5.609952       152.6546 
 724   0.0000       5.632861       153.2779 
 725   0.0000       5.633556       153.2968 
 726   0.0000       5.636884       153.3874 
 727   0.0000       5.646970       153.6619 
 728   0.0000       5.653323       153.8347 
 729   0.0000       5.661382       154.0540 
 730   0.0000       5.674483       154.4105 
 731   0.0000       5.683328       154.6512 
 732   0.0000       5.711532       155.4187 
 733   0.0000       5.718810       155.6167 
 734   0.0000       5.729417       155.9054 
 735   0.0000       5.739736       156.1862 
 736   0.0000       5.759189       156.7155 
 737   0.0000       5.769692       157.0013 
 738   0.0000       5.781068       157.3109 
 739   0.0000       5.810714       158.1176 
 740   0.0000       5.821574       158.4131 
 741   0.0000       5.831130       158.6731 
 742   0.0000       5.846958       159.1038 
 743   0.0000       5.855797       159.3443 
 744   0.0000       5.864181       159.5725 
 745   0.0000       5.888761       160.2413 
 746   0.0000       5.897386       160.4760 
 747   0.0000       5.900728       160.5670 
 748   0.0000       5.931611       161.4073 
 749   0.0000       5.939207       161.6140 
 750   0.0000       5.975612       162.6047 
 751   0.0000       5.988187       162.9469 
 752   0.0000       6.011790       163.5891 
 753   0.0000       6.030851       164.1078 
 754   0.0000       6.053669       164.7287 
 755   0.0000       6.058070       164.8485 
 756   0.0000       6.118722       166.4989 
 757   0.0000       6.125533       166.6842 
 758   0.0000       6.139583       167.0665 
 759   0.0000       6.164392       167.7416 
 760   0.0000       6.174740       168.0232 
 761   0.0000       6.182417       168.2321 
 762   0.0000       6.199719       168.7029 
 763   0.0000       6.240530       169.8135 
 764   0.0000       6.269292       170.5961 
 765   0.0000       6.293850       171.2644 
 766   0.0000       6.301343       171.4683 
 767   0.0000       6.307291       171.6301 
 768   0.0000       6.377930       173.5523 
 769   0.0000       6.393334       173.9715 
 770   0.0000       6.417269       174.6228 
 771   0.0000       6.422294       174.7595 
 772   0.0000       6.431029       174.9972 
 773   0.0000       6.455752       175.6700 
 774   0.0000       6.464564       175.9097 
 775   0.0000       6.508950       177.1175 
 776   0.0000       6.539531       177.9497 
 777   0.0000       6.575998       178.9420 
 778   0.0000       6.601026       179.6231 
 779   0.0000       6.634379       180.5306 
 780   0.0000       6.666736       181.4111 
 781   0.0000       6.704765       182.4459 
 782   0.0000       6.741986       183.4588 
 783   0.0000       6.811225       185.3429 
 784   0.0000       6.851119       186.4284 
 785   0.0000       6.898246       187.7108 
 786   0.0000       6.931515       188.6161 
 787   0.0000       6.965073       189.5293 
 788   0.0000       6.984523       190.0585 
 789   0.0000       6.994528       190.3308 
 790   0.0000       7.092591       192.9992 
 791   0.0000       7.150006       194.5616 
 792   0.0000       7.185244       195.5204 
 793   0.0000       7.191293       195.6850 
 794   0.0000       7.234036       196.8481 
 795   0.0000       7.262102       197.6118 
 796   0.0000       7.285774       198.2560 
 797   0.0000       7.309718       198.9075 
 798   0.0000       7.366898       200.4635 
 799   0.0000       7.387602       201.0269 
 800   0.0000       7.410114       201.6395 
 801   0.0000       7.529565       204.8899 
 802   0.0000       7.585053       206.3998 
 803   0.0000       7.591983       206.5884 
 804   0.0000       7.670712       208.7307 
 805   0.0000       7.844223       213.4522 
 806   0.0000       7.853058       213.6926 
 807   0.0000       7.967789       216.8146 
 808   0.0000       7.972013       216.9295 
 809   0.0000       9.478219       257.9154 
 810   0.0000       9.880375       268.8587 
 811   0.0000      11.222611       305.3828 
 812   0.0000      11.763928       320.1127 
 813   0.0000      12.101360       329.2947 
 814   0.0000      12.980460       353.2163 
 815   0.0000      13.154445       357.9506 
 816   0.0000      13.186938       358.8348 
 817   0.0000      13.430427       365.4605 
 818   0.0000      13.543829       368.5463 
 819   0.0000      13.742480       373.9519 
 820   0.0000      13.913624       378.6090 
 821   0.0000      13.998495       380.9184 
 822   0.0000      14.174079       385.6963 
 823   0.0000      14.531177       395.4134 
 824   0.0000      14.727179       400.7469 
 825   0.0000      15.069566       410.0637 
 826   0.0000      15.786044       429.5601 
 827   0.0000      16.514345       449.3782 

                    ********************************
                    * MULLIKEN POPULATION ANALYSIS *
                    ********************************

-----------------------
MULLIKEN ATOMIC CHARGES
-----------------------
   0 C :   -0.280882
   1 C :    0.046724
   2 O :   -0.354223
   3 C :    0.400771
   4 O :   -0.423892
   5 C :   -0.072209
   6 C :    0.097269
   7 C :   -0.302692
   8 N :   -0.060492
   9 C :    0.180851
  10 S :   -0.465068
  11 N :   -0.208494
  12 C :    0.025914
  13 C :    0.073129
  14 C :   -0.234193
  15 C :   -0.160853
  16 C :   -0.282775
  17 C :    0.323129
  18 O :   -0.343625
  19 C :   -0.178526
  20 H :    0.100265
  21 H :    0.100977
  22 H :    0.095988
  23 H :    0.111472
  24 H :    0.098853
  25 H :    0.121855
  26 H :    0.106564
  27 H :    0.121004
  28 H :    0.181680
  29 H :    0.196716
  30 H :    0.156356
  31 H :    0.145598
  32 H :    0.166012
  33 H :    0.126895
  34 H :    0.238139
  35 H :    0.151763
Sum of atomic charges:    0.0000000

--------------------------------
MULLIKEN REDUCED ORBITAL CHARGES
--------------------------------
  0 C s       :     3.257044  s :     3.257044
      pz      :     0.921633  p :     2.945191
      px      :     0.998633
      py      :     1.024925
      dz2     :     0.015979  d :     0.073978
      dxz     :     0.013984
      dyz     :     0.017937
      dx2y2   :     0.011274
      dxy     :     0.014806
      f0      :     0.000915  f :     0.004669
      f+1     :     0.001186
      f-1     :     0.000558
      f+2     :     0.000528
      f-2     :     0.000636
      f+3     :     0.000054
      f-3     :     0.000792
  1 C s       :     3.182213  s :     3.182213
      pz      :     0.889488  p :     2.603920
      px      :     0.917516
      py      :     0.796916
      dz2     :     0.031288  d :     0.155431
      dxz     :     0.023839
      dyz     :     0.043746
      dx2y2   :     0.031904
      dxy     :     0.024653
      f0      :     0.001213  f :     0.011712
      f+1     :     0.001710
      f-1     :     0.002160
      f+2     :     0.001753
      f-2     :     0.001888
      f+3     :     0.001394
      f-3     :     0.001593
  2 O s       :     3.723077  s :     3.723077
      pz      :     1.518901  p :     4.594849
      px      :     1.603807
      py      :     1.472141
      dz2     :     0.005881  d :     0.034089
      dxz     :     0.008309
      dyz     :     0.004938
      dx2y2   :     0.004877
      dxy     :     0.010085
      f0      :     0.000299  f :     0.002207
      f+1     :     0.000177
      f-1     :     0.000408
      f+2     :     0.000314
      f-2     :     0.000610
      f+3     :     0.000235
      f-3     :     0.000164
  3 C s       :     3.096601  s :     3.096601
      pz      :     0.671939  p :     2.183199
      px      :     0.690852
      py      :     0.820407
      dz2     :     0.054882  d :     0.292623
[...]
 15 C s       :     2.705521  s :     2.705521
      pz      :     0.977245  p :     2.793166
      px      :     0.983355
      py      :     0.832566
      dz2     :     0.091439  d :     0.410078
      dxz     :     0.136574
      dyz     :     0.044388
      dx2y2   :     0.059014
      dxy     :     0.078663
      f0      :     0.008557  f :     0.041039
      f+1     :     0.007445
      f-1     :     0.003987
      f+2     :     0.006669
      f-2     :     0.005391
      f+3     :     0.004658
      f-3     :     0.004334
 16 C s       :     2.689749  s :     2.689749
      pz      :     0.972967  p :     2.872145
      px      :     0.977604
      py      :     0.921574
      dz2     :     0.098979  d :     0.402753
      dxz     :     0.145972
      dyz     :     0.042447
      dx2y2   :     0.058165
      dxy     :     0.057191
      f0      :     0.009919  f :     0.043757
      f+1     :     0.008742
      f-1     :     0.004636
      f+2     :     0.007056
      f-2     :     0.004519
      f+3     :     0.004293
      f-3     :     0.004593
 17 C s       :     2.675622  s :     2.675622
      pz      :     1.055284  p :     2.690113
      px      :     0.823490
      py      :     0.811339
      dz2     :     0.161096  d :     0.762577
      dxz     :     0.207169
      dyz     :     0.113659
      dx2y2   :     0.137349
      dxy     :     0.143305
      f0      :     0.024150  f :     0.114607
      f+1     :     0.015142
      f-1     :     0.009779
      f+2     :     0.014358
      f-2     :     0.016975
      f+3     :     0.020722
      f-3     :     0.013482
 18 O s       :     3.163760  s :     3.163760
      pz      :     1.404771  p :     4.320911
      px      :     1.356103
      py      :     1.560037
      dz2     :     0.020067  d :     0.080987
      dxz     :     0.021497
      dyz     :     0.005107
      dx2y2   :     0.017081
      dxy     :     0.017236
      f0      :     0.001327  f :     0.005851
      f+1     :     0.001119
      f-1     :     0.000414
      f+2     :     0.000529
      f-2     :     0.000551
      f+3     :     0.001044
      f-3     :     0.000865
 19 C s       :     2.677720  s :     2.677720
      pz      :     0.962108  p :     2.823675
      px      :     0.994367
      py      :     0.867200
      dz2     :     0.100657  d :     0.419774
      dxz     :     0.149219
      dyz     :     0.039866
      dx2y2   :     0.061755
      dxy     :     0.068277
      f0      :     0.010584  f :     0.047820
      f+1     :     0.009178
      f-1     :     0.004245
      f+2     :     0.008554
      f-2     :     0.004886
      f+3     :     0.005274
      f-3     :     0.005100
 20 H s       :     0.836621  s :     0.836621
      pz      :     0.051062  p :     0.153575
      px      :     0.048714
      py      :     0.053799
      dz2     :     0.006593  d :     0.027979
      dxz     :     0.005229
      dyz     :     0.004922
      dx2y2   :     0.006344
      dxy     :     0.004891
 21 H s       :     0.847979  s :     0.847979
      pz      :     0.036114  p :     0.149278
      px      :     0.066896
      py      :     0.046268
      dz2     :     0.002350  d :     0.027224
      dxz     :     0.007192
      dyz     :     0.001626
      dx2y2   :     0.008200
      dxy     :     0.007857
 22 H s       :     0.842068  s :     0.842068
      pz      :     0.048951  p :     0.153090
      px      :     0.040251
      py      :     0.063888
      dz2     :     0.006089  d :     0.028078
      dxz     :     0.002738
      dyz     :     0.007477
      dx2y2   :     0.004870
      dxy     :     0.006905
 23 H s       :     0.848934  s :     0.848934
      pz      :     0.035806  p :     0.147446
      px      :     0.078127
      py      :     0.033512
      dz2     :     0.002883  d :     0.027326
      dxz     :     0.008078
      dyz     :     0.001251
      dx2y2   :     0.007955
      dxy     :     0.007159
 24 H s       :     0.854373  s :     0.854373
      pz      :     0.052280  p :     0.146090
      px      :     0.035077
      py      :     0.058732
      dz2     :     0.006013  d :     0.027308
      dxz     :     0.003028
      dyz     :     0.007889
      dx2y2   :     0.004956
      dxy     :     0.005422
 25 H s       :     0.827717  s :     0.827717
      pz      :     0.049691  p :     0.149741
      px      :     0.037817
      py      :     0.062233
      dz2     :     0.006809  d :     0.027887
      dxz     :     0.002876
      dyz     :     0.007149
      dx2y2   :     0.004677
      dxy     :     0.006376
 26 H s       :     0.837291  s :     0.837291
      pz      :     0.042909  p :     0.148846
      px      :     0.057331
      py      :     0.048605
      dz2     :     0.004093  d :     0.027883
      dxz     :     0.005353
      dyz     :     0.003508
      dx2y2   :     0.008307
      dxy     :     0.006621
 27 H s       :     0.830170  s :     0.830170
      pz      :     0.070185  p :     0.152170
      px      :     0.039612
      py      :     0.042373
      dz2     :     0.009312  d :     0.027832
      dxz     :     0.007804
      dyz     :     0.008663
      dx2y2   :     0.000564
      dxy     :     0.001488
 28 H s       :     0.736021  s :     0.736021
      pz      :     0.093828  p :     0.246016
      px      :     0.101620
      py      :     0.050567
      dz2     :     0.011500  d :     0.060338
      dxz     :     0.015863
      dyz     :     0.005658
      dx2y2   :     0.014153
      dxy     :     0.013164
 29 H s       :     0.746800  s :     0.746800
      pz      :     0.093674  p :     0.265036
      px      :     0.066526
      py      :     0.104837
      dz2     :     0.010580  d :     0.062419
      dxz     :     0.007320
      dyz     :     0.015161
      dx2y2   :     0.014271
      dxy     :     0.015087
 30 H s       :     0.821228  s :     0.821228
      pz      :     0.061890  p :     0.152025
      px      :     0.051571
      py      :     0.038564
      dz2     :     0.008495  d :     0.029265
      dxz     :     0.007738
      dyz     :     0.004443
      dx2y2   :     0.004501
      dxy     :     0.004088
 31 H s       :     0.846644  s :     0.846644
      pz      :     0.034115  p :     0.159452
      px      :     0.078811
      py      :     0.046526
      dz2     :     0.002786  d :     0.027832
      dxz     :     0.008732
      dyz     :     0.000305
      dx2y2   :     0.007680
      dxy     :     0.008328
 32 H s       :     0.843529  s :     0.843529
      pz      :     0.065839  p :     0.153868
      px      :     0.043402
      py      :     0.044628
      dz2     :     0.008400  d :     0.026770
      dxz     :     0.007489
      dyz     :     0.005998
      dx2y2   :     0.002474
      dxy     :     0.002409
 33 H s       :     0.844149  s :     0.844149
      pz      :     0.065915  p :     0.159841
      px      :     0.045910
      py      :     0.048016
      dz2     :     0.008980  d :     0.027890
      dxz     :     0.007829
      dyz     :     0.006714
      dx2y2   :     0.002174
      dxy     :     0.002192
 34 H s       :     0.701067  s :     0.701067
      pz      :     0.166656  p :     0.342682
      px      :     0.079132
      py      :     0.096894
      dz2     :     0.033774  d :     0.098375
      dxz     :     0.025788
      dyz     :     0.029819
      dx2y2   :     0.004680
      dxy     :     0.004315
 35 H s       :     0.831424  s :     0.831424
      pz      :     0.067177  p :     0.152328
      px      :     0.038424
      py      :     0.046727
      dz2     :     0.009257  d :     0.027835
      dxz     :     0.007821
      dyz     :     0.006702
      dx2y2   :     0.002001
      dxy     :     0.002053


                      *****************************
                      * MAYER POPULATION ANALYSIS *
                      *****************************

  NA   - Mulliken gross atomic population
  ZA   - Total nuclear charge
  QA   - Mulliken gross atomic charge
  VA   - Mayer's total valence
  BVA  - Mayer's bonded valence
  FA   - Mayer's free valence

  ATOM       NA         ZA         QA         VA         BVA        FA
  0 C      6.2809     6.0000    -0.2809     3.8871     3.8871    -0.0000
  1 C      5.9533     6.0000     0.0467     3.8393     3.8393    -0.0000
  2 O      8.3542     8.0000    -0.3542     2.0349     2.0349     0.0000
  3 C      5.5992     6.0000     0.4008     4.1935     4.1935    -0.0000
  4 O      8.4239     8.0000    -0.4239     2.0871     2.0871     0.0000
  5 C      6.0722     6.0000    -0.0722     3.5605     3.5605    -0.0000
  6 C      5.9027     6.0000     0.0973     3.8027     3.8027     0.0000
  7 C      6.3027     6.0000    -0.3027     3.8928     3.8928     0.0000
  8 N      7.0605     7.0000    -0.0605     3.3109     3.3109     0.0000
  9 C      5.8191     6.0000     0.1809     4.1700     4.1700    -0.0000
 10 S     16.4651    16.0000    -0.4651     1.7358     1.7358     0.0000
 11 N      7.2085     7.0000    -0.2085     3.2117     3.2117     0.0000
 12 C      5.9741     6.0000     0.0259     3.9904     3.9904    -0.0000
 13 C      5.9269     6.0000     0.0731     3.7210     3.7210    -0.0000
 14 C      6.2342     6.0000    -0.2342     3.8654     3.8654     0.0000
 15 C      6.1609     6.0000    -0.1609     3.8277     3.8277    -0.0000
 16 C      6.2828     6.0000    -0.2828     3.7676     3.7676     0.0000
 17 C      5.6769     6.0000     0.3231     3.8513     3.8513     0.0000
 18 O      8.3436     8.0000    -0.3436     2.1255     2.1255    -0.0000
 19 C      6.1785     6.0000    -0.1785     3.8178     3.8178    -0.0000
 20 H      0.8997     1.0000     0.1003     0.9821     0.9821    -0.0000
 21 H      0.8990     1.0000     0.1010     0.9832     0.9832     0.0000
 22 H      0.9040     1.0000     0.0960     0.9839     0.9839    -0.0000
 23 H      0.8885     1.0000     0.1115     0.9877     0.9877     0.0000
 24 H      0.9011     1.0000     0.0989     0.9808     0.9808    -0.0000
 25 H      0.8781     1.0000     0.1219     0.9881     0.9881    -0.0000
 26 H      0.8934     1.0000     0.1066     0.9883     0.9883     0.0000
 27 H      0.8790     1.0000     0.1210     0.9808     0.9808     0.0000
 28 H      0.8183     1.0000     0.1817     1.0247     1.0247     0.0000
 29 H      0.8033     1.0000     0.1967     1.0196     1.0196     0.0000
 30 H      0.8436     1.0000     0.1564     0.9978     0.9978    -0.0000
 31 H      0.8544     1.0000     0.1456     0.9824     0.9824     0.0000
 32 H      0.8340     1.0000     0.1660     0.9763     0.9763    -0.0000
 33 H      0.8731     1.0000     0.1269     0.9895     0.9895    -0.0000
 34 H      0.7619     1.0000     0.2381     1.0094     1.0094    -0.0000
 35 H      0.8482     1.0000     0.1518     0.9896     0.9896     0.0000

  Mayer bond orders larger than 0.100000
B(  0-C ,  1-C ) :   0.9681 B(  0-C , 20-H ) :   0.9778 B(  0-C , 21-H ) :   0.9799 
B(  0-C , 22-H ) :   0.9742 B(  1-C ,  2-O ) :   0.8848 B(  1-C , 23-H ) :   0.9715 
B(  1-C , 24-H ) :   0.9868 B(  2-O ,  3-C ) :   1.1596 B(  3-C ,  4-O ) :   1.9941 
B(  3-C ,  5-C ) :   1.0158 B(  5-C ,  6-C ) :   1.6667 B(  5-C , 12-C ) :   0.9616 
B(  6-C ,  7-C ) :   0.9381 B(  6-C ,  8-N ) :   1.1249 B(  7-C , 25-H ) :   0.9736 
B(  7-C , 26-H ) :   0.9871 B(  7-C , 27-H ) :   0.9692 B(  8-N ,  9-C ) :   1.2315 
B(  8-N , 28-H ) :   0.9586 B(  9-C , 10-S ) :   1.5906 B(  9-C , 11-N ) :   1.2825 
B( 11-N , 12-C ) :   1.0013 B( 11-N , 29-H ) :   0.9418 B( 12-C , 13-C ) :   0.9441 
B( 12-C , 30-H ) :   0.9943 B( 13-C , 14-C ) :   1.2904 B( 13-C , 19-C ) :   1.4526 
B( 14-C , 15-C ) :   1.4771 B( 14-C , 31-H ) :   0.9788 B( 15-C , 16-C ) :   1.2969 
B( 15-C , 32-H ) :   0.9685 B( 16-C , 17-C ) :   1.3879 B( 16-C , 33-H ) :   0.9882 
B( 17-C , 18-O ) :   1.1339 B( 17-C , 19-C ) :   1.2760 B( 18-O , 34-H ) :   0.9810 
B( 19-C , 35-H ) :   0.9604 

-------
TIMINGS
-------

Total SCF time: 0 days 1 hours 56 min 17 sec 

Total time                  ....    6977.172 sec
Sum of individual times     ....    6970.575 sec  ( 99.9%)

Fock matrix formation       ....    6955.605 sec  ( 99.7%)
Diagonalization             ....       1.387 sec  (  0.0%)
Density matrix formation    ....       0.172 sec  (  0.0%)
Population analysis         ....       0.276 sec  (  0.0%)
Initial guess               ....       6.444 sec  (  0.1%)
Orbital Transformation      ....       0.000 sec  (  0.0%)
Orbital Orthonormalization  ....       0.000 sec  (  0.0%)
DIIS solution               ....       2.599 sec  (  0.0%)
SOSCF solution              ....       2.628 sec  (  0.0%)

Maximum memory used throughout the entire SCF-calculation: 741.0 MB

------------------------------------------------------------------------------
                                ORCA  MP2 
------------------------------------------------------------------------------

Freezing NCore=48 chemical core electrons

-------------
RI-MP2 ENERGY
-------------
Dimension of the basis                    ...  828
Memory devoted to MP2                     ...  256 MB   
Data format for buffers                   ... DOUBLE
Compression type for matrix containers    ... UNCOMPRESSED
Overall scaling of the MP2 energy         ...   1.000e+00
Calculating two index integrals           ... done (    0.049 sec)
Cholesky decomposition of V**-1           ... done (    0.630 sec)

-----------------
RI-TRANSFORMATION (AUX index driven)
-----------------

Dimension of the orbital-basis         ... 828
Dimension of the aux-basis             ... 2141
Transformation of internal/external MOs...   24-  76 to   77- 827
Number Format for Storage              ... Double (8 Byte)
Integral mode                          ... Direct

First Phase: integral generation and transformation of MO indices
  Aux angular momentum 0               ... done (    5.090 sec)
  Aux angular momentum 1               ... done (    8.539 sec)
  Aux angular momentum 2               ... done (   11.103 sec)
  Aux angular momentum 3               ... done (    8.745 sec)
  Aux angular momentum 4               ... done (    2.989 sec)
Closing buffer VIA ( 0.63 GB; CompressionRatio= 1.00)
  Phase 1 completed in    36.994 sec
Second Phase: sorting and transformation of aux index

IA-Transformation
Memory available                       ... 157 MB 
Max. # MO pairs treated in a batch     ... 11    
# of internal orbitals                 ... 53
# batches for internal orbitals        ... 5
Closing buffer IAV ( 0.63 GB; CompressionRatio= 1.00)
(ia|v) transformation done in    30.633 sec

  Phase 2 completed in    30.642 sec
RI-Integral transformation completed in    67.746 sec
Opening buffers                              ... done

Starting loop over batches of integrals:

Operator 0  - window                       ... ( 24- 76)x( 77-827)
Operator 0  - Memory available             ...   256 MB
Operator 0  - Memory needed per MO         ...  12.3 MB
Operator 0  - Number of orbitals per batch ... 13
Operator 0  - Number of batches            ... 5

OPERATOR  0   PASS   0:  MOs    24 ...   36
  Reading integrals       ... ok
  Internal MO  26
  Internal MO  29
  Internal MO  32
  Internal MO  35
OPERATOR  0   PASS   1:  MOs    37 ...   49
  Reading integrals       ... ok
  Internal MO  38
  Internal MO  41
  Internal MO  44
  Internal MO  47
OPERATOR  0   PASS   2:  MOs    50 ...   62
  Reading integrals       ... ok
  Internal MO  50
  Internal MO  53
  Internal MO  56
  Internal MO  59
  Internal MO  62
OPERATOR  0   PASS   3:  MOs    63 ...   75
  Reading integrals       ... ok
  Internal MO  65
  Internal MO  68
  Internal MO  71
  Internal MO  74
OPERATOR  0   PASS   4:  MOs    76 ...   76
  Reading integrals       ... ok
Time spent in pair loops =    93.800 sec
Deleting buffer (Ka|jb)[aa] ...done

-----------------------------------------------
 RI-MP2 CORRELATION ENERGY:     -3.534405521 Eh
-----------------------------------------------


-------
TIMINGS
-------

Total time                :  162.376 sec
Integral trafo            :   67.769 sec ( 41.7%)
I/O of integrals          :    4.753 sec (  2.9%)
K(i,j) Operators          :   61.525 sec ( 37.9%)
T(i,j) pair energies      :    8.831 sec (  5.4%)
V-calculation             :    0.049 sec (  0.0%)
V**(-1/2)                 :    0.630 sec (  0.4%)
Gamma(ia|P)               :    0.000 sec (  0.0%)
Gamma-Trafo               :    0.000 sec (  0.0%)
D(virtual)                :    0.000 sec (  0.0%)
D(internal)               :    0.000 sec (  0.0%)
W(virtual)                :    0.000 sec (  0.0%)
W(internal)               :    0.000 sec (  0.0%)
L(virtual)                :    0.000 sec (  0.0%)
L(internal)               :    0.000 sec (  0.0%)
G(D)                      :    0.000 sec (  0.0%)
G(Z)                      :    0.000 sec (  0.0%)
Z-Vector Solution         :    0.000 sec (  0.0%)
3-Index Derivative        :    0.000 sec (  0.0%)
2-Index Derivative        :    0.000 sec (  0.0%)
Separable Gradient        :    0.000 sec (  0.0%)


---------------------------------------
MP2 TOTAL ENERGY:    -1274.304699349 Eh
---------------------------------------

Maximum memory used throughout the entire MP2-calculation: 304.6 MB

-------------------------   --------------------
FINAL SINGLE POINT ENERGY     -1274.304699348757
-------------------------   --------------------


                            ***************************************
                            *     ORCA property calculations      *
                            ***************************************


  WARNING: The energy has been calculated at the MP2 level but the densities
           used in the property calculations are still SCF densities
           MP2 response densities have not been calculated 
           use %mp2 Density relaxed end
           or  %mp2 Density unrelaxed end

                                    ---------------------
                                    Active property flags
                                    ---------------------
   (+) Dipole Moment


------------------------------------------------------------------------------
                       ORCA ELECTRIC PROPERTIES CALCULATION
------------------------------------------------------------------------------

Dipole Moment Calculation                       ... on
Quadrupole Moment Calculation                   ... off
Polarizability Calculation                      ... off
GBWName                                         ... qm_input.vacu.gbw
Electron density file                           ... qm_input.vacu.scfp
The origin for moment calculation is the CENTER OF MASS  = (27.098922, -8.815684 -7.228740)

-------------
DIPOLE MOMENT
-------------
                                X             Y             Z
Electronic contribution:     -3.85683     -13.95106      -9.01981
Nuclear contribution   :      4.17000      15.90870      10.77986
                        -----------------------------------------
Total Dipole Moment    :      0.31317       1.95764       1.76005
                        -----------------------------------------
Magnitude (a.u.)       :      2.65108
Magnitude (Debye)      :      6.73851



--------------------
Rotational spectrum 
--------------------
 
Rotational constants in cm-1:     0.011557     0.009113     0.006104 
Rotational constants in MHz :   346.475356   273.187909   182.993458 

 Dipole components along the rotational axes: 
x,y,z [a.u.] :     1.734390     1.465111     1.368781 
x,y,z [Debye]:     4.408469     3.724016     3.479165 

 

Timings for individual modules:

Sum of individual times         ...     7142.692 sec (= 119.045 min)
GTO integral calculation        ...        1.992 sec (=   0.033 min)   0.0 %
SCF iterations                  ...     6977.327 sec (= 116.289 min)  97.7 %
MP2 module                      ...      163.373 sec (=   2.723 min)   2.3 %
                             ****ORCA TERMINATED NORMALLY****
TOTAL RUN TIME: 0 days 1 hours 59 minutes 5 seconds 293 msec
