
                                        *****************
                                        * O   R   C   A *
                                        *****************

                                            #,                                       
                                            ###                                      
                                            ####                                     
                                            #####                                    
                                            ######                                   
                                           ########,                                 
                                     ,,################,,,,,                         
                               ,,#################################,,                 
                          ,,##########################################,,             
                       ,#########################################, ''#####,          
                    ,#############################################,,   '####,        
                  ,##################################################,,,,####,       
                ,###########''''           ''''###############################       
              ,#####''   ,,,,##########,,,,          '''####'''          '####       
            ,##' ,,,,###########################,,,                        '##       
           ' ,,###''''                  '''############,,,                           
         ,,##''                                '''############,,,,        ,,,,,,###''
      ,#''                                            '''#######################'''  
     '                                                          ''''####''''         
             ,#######,   #######,   ,#######,      ##                                
            ,#'     '#,  ##    ##  ,#'     '#,    #''#        ######   ,####,        
            ##       ##  ##   ,#'  ##            #'  '#       #        #'  '#        
            ##       ##  #######   ##           ,######,      #####,   #    #        
            '#,     ,#'  ##    ##  '#,     ,#' ,#      #,         ##   #,  ,#        
             '#######'   ##     ##  '#######'  #'      '#     #####' # '####'        



                  #######################################################
                  #                        -***-                        #
                  #          Department of theory and spectroscopy      #
                  #    Directorship and core code : Frank Neese         #
                  #        Max Planck Institute fuer Kohlenforschung    #
                  #                Kaiser Wilhelm Platz 1               #
                  #                 D-45470 Muelheim/Ruhr               #
                  #                      Germany                        #
                  #                                                     #
                  #                  All rights reserved                #
                  #                        -***-                        #
                  #######################################################


                         Program Version 5.0.0 -  RELEASE  -
                                (SVN: $Rev: 19529$)
                ($Date: 2021-06-28 11:36:33 +0200 (Mo, 28 Jun 2021) $)


 With contributions from (in alphabetic order):
   Daniel Aravena         : Magnetic Suceptibility
   Michael Atanasov       : Ab Initio Ligand Field Theory (pilot matlab implementation)
   Alexander A. Auer      : GIAO ZORA, VPT2 properties, NMR spectrum
   Ute Becker             : Parallelization
   Giovanni Bistoni       : ED, misc. LED, open-shell LED, HFLD
   Martin Brehm           : Molecular dynamics
   Dmytro Bykov           : SCF Hessian
   Vijay G. Chilkuri      : MRCI spin determinant printing, contributions to CSF-ICE
   Dipayan Datta          : RHF DLPNO-CCSD density
   Achintya Kumar Dutta   : EOM-CC, STEOM-CC
   Dmitry Ganyushin       : Spin-Orbit,Spin-Spin,Magnetic field MRCI
   Miquel Garcia          : C-PCM Hessian, Gaussian charge scheme
   Yang Guo               : DLPNO-NEVPT2, F12-NEVPT2, CIM, IAO-localization
   Andreas Hansen         : Spin unrestricted coupled pair/coupled cluster methods
   Benjamin Helmich-Paris : MC-RPA, TRAH-SCF, COSX integrals
   Lee Huntington         : MR-EOM, pCC
   Robert Izsak           : Overlap fitted RIJCOSX, COSX-SCS-MP3, EOM
   Marcus Kettner         : VPT2
   Christian Kollmar      : KDIIS, OOCD, Brueckner-CCSD(T), CCSD density, CASPT2, CASPT2-K
   Simone Kossmann        : Meta GGA functionals, TD-DFT gradient, OOMP2, MP2 Hessian
   Martin Krupicka        : Initial AUTO-CI
   Lucas Lang             : DCDCAS
   Marvin Lechner         : AUTO-CI (C++ implementation), FIC-MRCC
   Dagmar Lenk            : GEPOL surface, SMD
   Dimitrios Liakos       : Extrapolation schemes; Compound Job, initial MDCI parallelization
   Dimitrios Manganas     : Further ROCIS development; embedding schemes
   Dimitrios Pantazis     : SARC Basis sets
   Anastasios Papadopoulos: AUTO-CI, single reference methods and gradients
   Taras Petrenko         : DFT Hessian,TD-DFT gradient, ASA, ECA, R-Raman, ABS, FL, XAS/XES, NRVS
   Peter Pinski           : DLPNO-MP2, DLPNO-MP2 Gradient
   Christoph Reimann      : Effective Core Potentials
   Marius Retegan         : Local ZFS, SOC
   Christoph Riplinger    : Optimizer, TS searches, QM/MM, DLPNO-CCSD(T), (RO)-DLPNO pert. Triples
   Tobias Risthaus        : Range-separated hybrids, TD-DFT gradient, RPA, STAB
   Michael Roemelt        : Original ROCIS implementation
   Masaaki Saitow         : Open-shell DLPNO-CCSD energy and density
   Barbara Sandhoefer     : DKH picture change effects
   Avijit Sen             : IP-ROCIS
   Kantharuban Sivalingam : CASSCF convergence, NEVPT2, FIC-MRCI
   Bernardo de Souza      : ESD, SOC TD-DFT
   Georgi Stoychev        : AutoAux, RI-MP2 NMR
   Willem Van den Heuvel  : Paramagnetic NMR
   Boris Wezisla          : Elementary symmetry handling
   Frank Wennmohs         : Technical directorship


 We gratefully acknowledge several colleagues who have allowed us to
 interface, adapt or use parts of their codes:
   Stefan Grimme, W. Hujo, H. Kruse, P. Pracht,  : VdW corrections, initial TS optimization,
                  C. Bannwarth, S. Ehlert          DFT functionals, gCP, sTDA/sTD-DF
   Ed Valeev, F. Pavosevic, A. Kumar             : LibInt (2-el integral package), F12 methods
   Garnet Chan, S. Sharma, J. Yang, R. Olivares  : DMRG
   Ulf Ekstrom                                   : XCFun DFT Library
   Mihaly Kallay                                 : mrcc  (arbitrary order and MRCC methods)
   Jiri Pittner, Ondrej Demel                    : Mk-CCSD
   Frank Weinhold                                : gennbo (NPA and NBO analysis)
   Christopher J. Cramer and Donald G. Truhlar   : smd solvation model
   Lars Goerigk                                  : TD-DFT with DH, B97 family of functionals
   V. Asgeirsson, H. Jonsson                     : NEB implementation
   FAccTs GmbH                                   : IRC, NEB, NEB-TS, DLPNO-Multilevel, CI-OPT
                                                   MM, QMMM, 2- and 3-layer-ONIOM, Crystal-QMMM,
                                                   LR-CPCM, SF, NACMEs, symmetry and pop. for TD-DFT,
                                                   nearIR, NL-DFT gradient (VV10), updates on ESD,
                                                   ML-optimized integration grids
   S Lehtola, MJT Oliveira, MAL Marques          : LibXC Library
   Liviu Ungur et al                             : ANISO software


 Your calculation uses the libint2 library for the computation of 2-el integrals
 For citations please refer to: http://libint.valeyev.net

 Your ORCA version has been built with support for libXC version: 5.1.0
 For citations please refer to: https://tddft.org/programs/libxc/

 This ORCA versions uses:
   CBLAS   interface :  Fast vector & matrix operations
   LAPACKE interface :  Fast linear algebra routines
   SCALAPACK package :  Parallel linear algebra routines
   Shared memory     :  Shared parallel matrices
   BLAS/LAPACK       :  OpenBLAS 0.3.15  USE64BITINT DYNAMIC_ARCH NO_AFFINITY SkylakeX SINGLE_THREADED
        Core in use  :  SkylakeX
   Copyright (c) 2011-2014, The OpenBLAS Project


================================================================================

----- Orbital basis set information -----
Your calculation utilizes the basis: cc-pVTZ 
       H, B-Ne : Obtained from the ccRepo (grant-hill.group.shef.ac.uk/ccrepo) Feb. 2017
                 T. H. Dunning, Jr., J. Chem. Phys. 90, 1007 (1989)
            He : Obtained from the ccRepo (grant-hill.group.shef.ac.uk/ccrepo) Feb. 2017
                 D. E. Woon, T. H. Dunning, Jr., J. Chem. Phys. 100, 2975 (1994)
  Li-Be, Na-Mg : Obtained from the ccRepo (grant-hill.group.shef.ac.uk/ccrepo) Feb. 2017
                 B. P. Prascher, D. E. Woon, K. A. Peterson, T. H. Dunning, Jr., A. K. Wilson, Theor. Chem. Acc. 128, 69 (2011)
         Al-Ar : Obtained from the ccRepo (grant-hill.group.shef.ac.uk/ccrepo) Feb. 2017
                 D. E. Woon, T. H. Dunning, Jr., J. Chem. Phys. 98, 1358 (1993)
            Ca : Obtained from the Peterson Research Group Website (tyr0.chem.wsu.edu/~kipeters) Feb. 2017
                 J. Koput, K. A. Peterson, J. Phys. Chem. 106, 9595 (2002)
         Sc-Zn : Obtained from the ccRepo (grant-hill.group.shef.ac.uk/ccrepo) Feb. 2017
                 N. B. Balabanov, K. A. Peterson, J. Chem. Phys. 123, 064107 (2005)
                 N. B. Balabanov, K. A. Peterson, J. Chem. Phys. 125, 074110 (2006)
         Ga-Kr : Obtained from the ccRepo (grant-hill.group.shef.ac.uk/ccrepo) Feb. 2017
                 A. K. Wilson, D. E. Woon, K. A. Peterson, T. H. Dunning, Jr., J. Chem. Phys. 110, 7667 (1999)
             Y : Obtained from the ccRepo (grant-hill.group.shef.ac.uk/ccrepo) Feb. 2017
                 K. A. Peterson, D. Figgen, M. Dolg, H. Stoll, J. Chem. Phys. 126, 124101 (2007)
        Ag, Au : Obtained from the Peterson Research Group Website (tyr0.chem.wsu.edu/~kipeters) Feb. 2017
                 K. A. Peterson, C. Puzzarini, Theor. Chem. Acc. 114, 283 (2005)

----- AuxC basis set information -----
Your calculation utilizes the auxiliary basis: cc-pVTZ/C 
  Obtained from the EMSL Basis Set Exchange (bse.pnl.gov) Feb. 2017
  H-He, B-F, Al-Ar, Ga-Kr : F. Weigend, A. Kohn, C. Hattig, J. Chem. Phys. 116, 3175 (2002)
             Li-Be, Na-Mg : C. Haettig, Phys. Chem. Chem. Phys. 7, 59 (2005)
                       Ne : C. Haettig, Phys. Chem. Chem. Phys. 7, 59 (2005)
                            F. Weigend, A. Kohn, C. Hattig, J. Chem. Phys. 116, 3175 (2002)
                    Sc-Zn : J. G. Hill, J. A. Platts, J. Chem. Phys. 128, 044104 (2008)

================================================================================
                                        WARNINGS
                       Please study these warnings very carefully!
================================================================================


WARNING: No MP2 level density has been requested!
         To caclulate MP2 level properties use
         %mp2 Density relaxed end
         or
         %mp2 Density unrelaxed end

WARNING: Post HF methods need fully converged wavefunctions
  ===> : Setting SCFConvForced true
         You can overwrite this default with %scf ConvForced false 


INFO   : the flag for use of the SHARK integral package has been found!

================================================================================
                                       INPUT FILE
================================================================================
NAME = qm_input.vacu
|  1> ! RI-MP2 cc-pVTZ cc-pVTZ/c TightSCF KeepDens NoKeepInts
|  2> 
|  3> *xyz  0  1
|  4>     C    -5.1976046   -3.2251609  -12.3499839
|  5>     C    -4.7018251   -4.6070738  -13.0032391
|  6>     O    -3.3359557   -4.7257579  -12.6668263
|  7>     C    -2.6810528   -5.8669007  -13.0509444
|  8>     O    -3.2153999   -6.7475612  -13.7081425
|  9>     C    -1.2323004   -5.8746004  -12.8124890
| 10>     C    -0.6053552   -4.9577553  -12.0275574
| 11>     C    -1.1031139   -3.7337480  -11.2859769
| 12>     N     0.7598671   -4.9529265  -11.9035278
| 13>     C     1.4987229   -5.8400027  -12.6651364
| 14>     S     3.1003199   -5.9418163  -12.4731562
| 15>     N     0.9025571   -6.7539598  -13.4530273
| 16>     C    -0.4815302   -7.0583143  -13.3571559
| 17>     C    -0.6779748   -8.3289102  -12.5598116
| 18>     C    -0.2369060   -8.4695677  -11.2359135
| 19>     C    -0.5088146   -9.6468864  -10.4764365
| 20>     C    -1.1752693  -10.6755909  -11.0763802
| 21>     C    -1.6184399  -10.5616540  -12.4228920
| 22>     O    -2.2171975  -11.6528251  -13.0348688
| 23>     C    -1.3737505   -9.4146348  -13.1469921
| 24>     H    -4.4133628   -2.4786378  -12.1743206
| 25>     H    -5.5321915   -3.5376499  -11.3531918
| 26>     H    -5.9561323   -2.6760143  -12.9211784
| 27>     H    -5.3493065   -5.4022857  -12.6138864
| 28>     H    -4.9026920   -4.5600344  -14.0805662
| 29>     H    -2.0332029   -3.8723968  -10.7212603
| 30>     H    -1.2840120   -2.9236057  -12.0030089
| 31>     H    -0.3390126   -3.3496118  -10.5991093
| 32>     H     1.3318645   -4.4410417  -11.2426446
| 33>     H     1.2937811   -7.4692944  -14.0540319
| 34>     H    -0.9137340   -7.3207644  -14.3305569
| 35>     H     0.3388364   -7.7463297  -10.6659631
| 36>     H    -0.0305112   -9.7102583   -9.5034998
| 37>     H    -1.3826333  -11.6083016  -10.5601890
| 38>     H    -1.7559102  -12.4524649  -12.7274290
| 39>     H    -1.6723045   -9.3315101  -14.1878340
| 40> *
| 41> 
| 42>                          ****END OF INPUT****
================================================================================

                       ****************************
                       * Single Point Calculation *
                       ****************************

---------------------------------
CARTESIAN COORDINATES (ANGSTROEM)
---------------------------------
  C     -5.197605   -3.225161  -12.349984
  C     -4.701825   -4.607074  -13.003239
  O     -3.335956   -4.725758  -12.666826
  C     -2.681053   -5.866901  -13.050944
  O     -3.215400   -6.747561  -13.708142
  C     -1.232300   -5.874600  -12.812489
  C     -0.605355   -4.957755  -12.027557
  C     -1.103114   -3.733748  -11.285977
  N      0.759867   -4.952927  -11.903528
  C      1.498723   -5.840003  -12.665136
  S      3.100320   -5.941816  -12.473156
  N      0.902557   -6.753960  -13.453027
  C     -0.481530   -7.058314  -13.357156
  C     -0.677975   -8.328910  -12.559812
  C     -0.236906   -8.469568  -11.235913
  C     -0.508815   -9.646886  -10.476436
  C     -1.175269  -10.675591  -11.076380
  C     -1.618440  -10.561654  -12.422892
  O     -2.217197  -11.652825  -13.034869
  C     -1.373751   -9.414635  -13.146992
  H     -4.413363   -2.478638  -12.174321
  H     -5.532191   -3.537650  -11.353192
  H     -5.956132   -2.676014  -12.921178
  H     -5.349306   -5.402286  -12.613886
  H     -4.902692   -4.560034  -14.080566
  H     -2.033203   -3.872397  -10.721260
  H     -1.284012   -2.923606  -12.003009
  H     -0.339013   -3.349612  -10.599109
  H      1.331865   -4.441042  -11.242645
  H      1.293781   -7.469294  -14.054032
  H     -0.913734   -7.320764  -14.330557
  H      0.338836   -7.746330  -10.665963
  H     -0.030511   -9.710258   -9.503500
  H     -1.382633  -11.608302  -10.560189
  H     -1.755910  -12.452465  -12.727429
  H     -1.672305   -9.331510  -14.187834

----------------------------
CARTESIAN COORDINATES (A.U.)
----------------------------
  NO LB      ZA    FRAG     MASS         X           Y           Z
   0 C     6.0000    0    12.011   -9.822049   -6.094671  -23.338087
   1 C     6.0000    0    12.011   -8.885162   -8.706108  -24.572561
   2 O     8.0000    0    15.999   -6.304043   -8.930388  -23.936833
   3 C     6.0000    0    12.011   -5.066456  -11.086836  -24.662711
   4 O     8.0000    0    15.999   -6.076225  -12.751043  -25.904635
   5 C     6.0000    0    12.011   -2.328710  -11.101386  -24.212095
   6 C     6.0000    0    12.011   -1.143956   -9.368800  -22.728790
   7 C     6.0000    0    12.011   -2.084583   -7.055761  -21.327405
   8 N     7.0000    0    14.007    1.435941   -9.359675  -22.494408
   9 C     6.0000    0    12.011    2.832176  -11.036006  -23.933639
  10 S    16.0000    0    32.060    5.858756  -11.228406  -23.570849
  11 N     7.0000    0    14.007    1.705586  -12.763134  -25.422537
  12 C     6.0000    0    12.011   -0.909960  -13.338281  -25.241367
  13 C     6.0000    0    12.011   -1.281187  -15.739359  -23.734604
  14 C     6.0000    0    12.011   -0.447687  -16.005163  -21.232799
  15 C     6.0000    0    12.011   -0.961520  -18.229973  -19.797596
  16 C     6.0000    0    12.011   -2.220937  -20.173943  -20.931325
  17 C     6.0000    0    12.011   -3.058408  -19.958634  -23.475864
  18 O     8.0000    0    15.999   -4.189896  -22.020648  -24.632332
  19 C     6.0000    0    12.011   -2.596012  -17.791081  -24.844215
  20 H     1.0000    0     1.008   -8.340047   -4.683947  -23.006132
  21 H     1.0000    0     1.008  -10.454327   -6.685189  -21.454423
  22 H     1.0000    0     1.008  -11.255459   -5.056934  -24.417489
  23 H     1.0000    0     1.008  -10.108724  -10.208840  -23.836791
  24 H     1.0000    0     1.008   -9.264745   -8.617216  -26.608414
  25 H     1.0000    0     1.008   -3.842197   -7.317769  -20.260246
  26 H     1.0000    0     1.008   -2.426431   -5.524814  -22.682400
  27 H     1.0000    0     1.008   -0.640641   -6.329849  -20.029414
  28 H     1.0000    0     1.008    2.516859   -8.392353  -21.245519
  29 H     1.0000    0     1.008    2.444892  -14.114921  -26.558271
  30 H     1.0000    0     1.008   -1.726707  -13.834240  -27.080828
  31 H     1.0000    0     1.008    0.640308  -14.638442  -20.155749
  32 H     1.0000    0     1.008   -0.057658  -18.349729  -17.959012
  33 H     1.0000    0     1.008   -2.612798  -21.936511  -19.955865
  34 H     1.0000    0     1.008   -3.318189  -23.531748  -24.051355
  35 H     1.0000    0     1.008   -3.160198  -17.633999  -26.811121

--------------------------------
INTERNAL COORDINATES (ANGSTROEM)
--------------------------------
 C      0   0   0     0.000000000000     0.00000000     0.00000000
 C      1   0   0     1.606929659983     0.00000000     0.00000000
 O      2   1   0     1.411686475622   105.89859445     0.00000000
 C      3   2   1     1.370639052839   117.74336455   176.73216450
 O      4   3   2     1.221883415954   122.80910739     2.85837412
 C      4   3   2     1.468265568511   115.48726641   173.33710622
 C      6   4   3     1.360067218146   123.02698662    13.05353651
 C      7   6   4     1.515222502426   132.49955982   356.67507532
 N      7   6   4     1.370853233356   120.90817623   184.25619556
 C      9   7   6     1.383061725808   118.68158063     4.44998657
 S     10   9   7     1.616272055301   120.28898120   184.39889782
 N     10   9   7     1.345920990264   121.41725136   355.78370700
 C     12  10   9     1.420394537102   122.52131488   346.79125808
 C     13  12  10     1.512865610260   110.00269833   260.16017252
 C     14  13  12     1.402509321831   122.74460091    59.06734335
 C     15  14  13     1.427171651082   121.67790138   175.94502558
 C     16  15  14     1.364671117391   118.74667995     2.30071614
 C     17  16  15     1.422137765980   120.53330137   358.47564173
 O     18  17  16     1.386968145550   119.29246881   175.90920857
 C     18  17  16     1.378349339776   120.58076985     0.47368924
 H      1   2   3     1.096899965661   115.45446218    24.46190607
 H      1   2   3     1.096901207673   102.62330625   270.32015406
 H      1   2   3     1.096899911929   115.60675554   145.74725548
 H      2   1   3     1.096900020168   107.27935931   123.50654391
 H      2   1   3     1.096901954170   107.81186070   237.00490158
 H      8   7   6     1.096901944559   115.36656378    45.32696290
 H      8   7   6     1.096899976232   109.32177495   284.90243923
 H      8   7   6     1.096904059953   111.13255784   168.97530863
 H      9   7   6     1.012903587771   128.55045773   191.54501731
 H     12  10   9     1.012899964140   130.98232107   180.77451492
 H     13  12  10     1.096900034883   112.04425946   146.89869298
 H     15  14  13     1.085999988150   126.53650438   355.34778874
 H     16  15  14     1.085999982674   116.16636641   173.21984419
 H     17  16  15     1.086002961943   122.12028600   177.98795851
 H     19  18  17     0.973000006942   107.60642828   322.64068267
 H     20  18  17     1.086000031060   121.22408850   177.52918839

---------------------------
INTERNAL COORDINATES (A.U.)
---------------------------
 C      0   0   0     0.000000000000     0.00000000     0.00000000
 C      1   0   0     3.036656973843     0.00000000     0.00000000
 O      2   1   0     2.667700825885   105.89859445     0.00000000
 C      3   2   1     2.590132438323   117.74336455   176.73216450
 O      4   3   2     2.309025023732   122.80910739     2.85837412
 C      4   3   2     2.774619816352   115.48726641   173.33710622
 C      6   4   3     2.570154566020   123.02698662    13.05353651
 C      7   6   4     2.863355561541   132.49955982   356.67507532
 N      7   6   4     2.590537180843   120.90817623   184.25619556
 C      9   7   6     2.613607888085   118.68158063     4.44998657
 S     10   9   7     3.054311542428   120.28898120   184.39889782
 N     10   9   7     2.543422069495   121.41725136   355.78370700
 C     12  10   9     2.684156677241   122.52131488   346.79125808
 C     13  12  10     2.858901680820   110.00269833   260.16017252
 C     14  13  12     2.650358518533   122.74460091    59.06734335
 C     15  14  13     2.696963566642   121.67790138   175.94502558
 C     16  15  14     2.578854674742   118.74667995     2.30071614
 C     17  16  15     2.687450902408   120.53330137   358.47564173
 O     18  17  16     2.620989951563   119.29246881   175.90920857
 C     18  17  16     2.604702769048   120.58076985     0.47368924
 H      1   2   3     2.072840531407   115.45446218    24.46190607
 H      1   2   3     2.072842878470   102.62330625   270.32015406
 H      1   2   3     2.072840429868   115.60675554   145.74725548
 H      2   1   3     2.072840634410   107.27935931   123.50654391
 H      2   1   3     2.072844289145   107.81186070   237.00490158
 H      8   7   6     2.072844270983   115.36656378    45.32696290
 H      8   7   6     2.072840551382   109.32177495   284.90243923
 H      8   7   6     2.072848268498   111.13255784   168.97530863
 H      9   7   6     1.914110380954   128.55045773   191.54501731
 H     12  10   9     1.914103533283   130.98232107   180.77451492
 H     13  12  10     2.072840662217   112.04425946   146.89869298
 H     15  14  13     2.052242559045   126.53650438   355.34778874
 H     16  15  14     2.052242548697   116.16636641   173.21984419
 H     17  16  15     2.052248178699   122.12028600   177.98795851
 H     19  18  17     1.838703541424   107.60642828   322.64068267
 H     20  18  17     2.052242640133   121.22408850   177.52918839

---------------------
BASIS SET INFORMATION
---------------------
There are 5 groups of distinct atoms

 Group   1 Type C   : 18s5p2d1f contracted to 4s3p2d1f pattern {8811/311/11/1}
 Group   2 Type O   : 18s5p2d1f contracted to 4s3p2d1f pattern {8811/311/11/1}
 Group   3 Type N   : 18s5p2d1f contracted to 4s3p2d1f pattern {8811/311/11/1}
 Group   4 Type S   : 41s16p2d1f contracted to 5s4p2d1f pattern {13131311/7711/11/1}
 Group   5 Type H   : 5s2p1d contracted to 3s2p1d pattern {311/11/1}

Atom   0C    basis set group =>   1
Atom   1C    basis set group =>   1
Atom   2O    basis set group =>   2
Atom   3C    basis set group =>   1
Atom   4O    basis set group =>   2
Atom   5C    basis set group =>   1
Atom   6C    basis set group =>   1
Atom   7C    basis set group =>   1
Atom   8N    basis set group =>   3
Atom   9C    basis set group =>   1
Atom  10S    basis set group =>   4
Atom  11N    basis set group =>   3
Atom  12C    basis set group =>   1
Atom  13C    basis set group =>   1
Atom  14C    basis set group =>   1
Atom  15C    basis set group =>   1
Atom  16C    basis set group =>   1
Atom  17C    basis set group =>   1
Atom  18O    basis set group =>   2
Atom  19C    basis set group =>   1
Atom  20H    basis set group =>   5
Atom  21H    basis set group =>   5
Atom  22H    basis set group =>   5
Atom  23H    basis set group =>   5
Atom  24H    basis set group =>   5
Atom  25H    basis set group =>   5
Atom  26H    basis set group =>   5
Atom  27H    basis set group =>   5
Atom  28H    basis set group =>   5
Atom  29H    basis set group =>   5
Atom  30H    basis set group =>   5
Atom  31H    basis set group =>   5
Atom  32H    basis set group =>   5
Atom  33H    basis set group =>   5
Atom  34H    basis set group =>   5
Atom  35H    basis set group =>   5
---------------------------------
AUXILIARY/C BASIS SET INFORMATION
---------------------------------
There are 5 groups of distinct atoms

 Group   1 Type C   : 8s6p5d3f1g contracted to 8s6p5d3f1g pattern {11111111/111111/11111/111/1}
 Group   2 Type O   : 8s6p5d3f1g contracted to 8s6p5d3f1g pattern {11111111/111111/11111/111/1}
 Group   3 Type N   : 8s6p5d3f1g contracted to 8s6p5d3f1g pattern {11111111/111111/11111/111/1}
 Group   4 Type S   : 10s8p7d5f2g contracted to 10s8p7d5f2g pattern {1111111111/11111111/1111111/11111/11}
 Group   5 Type H   : 4s3p2d1f contracted to 4s3p2d1f pattern {1111/111/11/1}

Atom   0C    basis set group =>   1
Atom   1C    basis set group =>   1
Atom   2O    basis set group =>   2
Atom   3C    basis set group =>   1
Atom   4O    basis set group =>   2
Atom   5C    basis set group =>   1
Atom   6C    basis set group =>   1
Atom   7C    basis set group =>   1
Atom   8N    basis set group =>   3
Atom   9C    basis set group =>   1
Atom  10S    basis set group =>   4
Atom  11N    basis set group =>   3
Atom  12C    basis set group =>   1
Atom  13C    basis set group =>   1
Atom  14C    basis set group =>   1
Atom  15C    basis set group =>   1
Atom  16C    basis set group =>   1
Atom  17C    basis set group =>   1
Atom  18O    basis set group =>   2
Atom  19C    basis set group =>   1
Atom  20H    basis set group =>   5
Atom  21H    basis set group =>   5
Atom  22H    basis set group =>   5
Atom  23H    basis set group =>   5
Atom  24H    basis set group =>   5
Atom  25H    basis set group =>   5
Atom  26H    basis set group =>   5
Atom  27H    basis set group =>   5
Atom  28H    basis set group =>   5
Atom  29H    basis set group =>   5
Atom  30H    basis set group =>   5
Atom  31H    basis set group =>   5
Atom  32H    basis set group =>   5
Atom  33H    basis set group =>   5
Atom  34H    basis set group =>   5
Atom  35H    basis set group =>   5
------------------------------------------------------------------------------
                           ORCA GTO INTEGRAL CALCULATION
------------------------------------------------------------------------------
------------------------------------------------------------------------------
                   ___                                                        
                  /   \      - P O W E R E D   B Y -                         
                 /     \                                                     
                 |  |  |   _    _      __       _____    __    __             
                 |  |  |  | |  | |    /  \     |  _  \  |  |  /  |          
                  \  \/   | |  | |   /    \    | | | |  |  | /  /          
                 / \  \   | |__| |  /  /\  \   | |_| |  |  |/  /          
                |  |  |   |  __  | /  /__\  \  |    /   |      \           
                |  |  |   | |  | | |   __   |  |    \   |  |\   \          
                \     /   | |  | | |  |  |  |  | |\  \  |  | \   \       
                 \___/    |_|  |_| |__|  |__|  |_| \__\ |__|  \__/        
                                                                              
                      - O R C A' S   B I G   F R I E N D -                    
                                      &                                       
                       - I N T E G R A L  F E E D E R -                       
                                                                              
 v1 FN, 2020, v2 2021                                                         
------------------------------------------------------------------------------


Reading SHARK input file qm_input.vacu.SHARKINP.tmp ... ok
----------------------
SHARK INTEGRAL PACKAGE
----------------------

Number of atoms                             ...     36
Number of basis functions                   ...    828
Number of shells                            ...    298
Maximum angular momentum                    ...      3
Integral batch strategy                     ... SHARK/LIBINT Hybrid
RI-J (if used) integral strategy            ... SPLIT-RIJ (Revised 2003 algorithm where possible)
Printlevel                                  ...      1
Contraction scheme used                     ... SEGMENTED contraction
Coulomb Range Separation                    ... NOT USED
Exchange Range Separation                   ... NOT USED
Finite Nucleus Model                        ... NOT USED
Auxiliary Coulomb fitting basis             ... NOT available
Auxiliary J/K fitting basis                 ... NOT available
Auxiliary Correlation fitting basis         ... AVAILABLE
   # of basis functions in Aux-C            ...   2141
   # of shells in Aux-C                     ...    629
   Maximum angular momentum in Aux-C        ...      4
Auxiliary 'external' fitting basis          ... NOT available
Integral threshold                          ...     2.500000e-11
Primitive cut-off                           ...     2.500000e-12
Primitive pair pre-selection threshold      ...     2.500000e-12

Calculating pre-screening integrals         ... done (  0.6 sec) Dimension = 298
Organizing shell pair data                  ... done (  0.4 sec)
Shell pair information
Total number of shell pairs                 ...     44551
Shell pairs after pre-screening             ...     31801
Total number of primitive shell pairs       ...    234348
Primitive shell pairs kept                  ...     92650
          la=0 lb=0:   6359 shell pairs
          la=1 lb=0:   8849 shell pairs
          la=1 lb=1:   3133 shell pairs
          la=2 lb=0:   5067 shell pairs
          la=2 lb=1:   3470 shell pairs
          la=2 lb=2:    982 shell pairs
          la=3 lb=0:   1836 shell pairs
          la=3 lb=1:   1262 shell pairs
          la=3 lb=2:    700 shell pairs
          la=3 lb=3:    143 shell pairs

Calculating one electron integrals          ... done (  0.4 sec)
Calculating RI/C V-Matrix + Cholesky decomp.... done (  0.6 sec)
Calculating Nuclear repulsion               ... done (  0.0 sec) ENN=   1686.471061677869 Eh

SHARK setup successfully completed in   2.1 seconds

Maximum memory used throughout the entire GTOINT-calculation: 474.8 MB
-------------------------------------------------------------------------------
                                 ORCA SCF
-------------------------------------------------------------------------------

------------
SCF SETTINGS
------------
Hamiltonian:
 Ab initio Hamiltonian  Method          .... Hartree-Fock(GTOs)


General Settings:
 Integral files         IntName         .... qm_input.vacu
 Hartree-Fock type      HFTyp           .... RHF
 Total Charge           Charge          ....    0
 Multiplicity           Mult            ....    1
 Number of Electrons    NEL             ....  154
 Basis Dimension        Dim             ....  828
 Nuclear Repulsion      ENuc            ....   1686.4710616779 Eh

Convergence Acceleration:
 DIIS                   CNVDIIS         .... on
   Start iteration      DIISMaxIt       ....    12
   Startup error        DIISStart       ....  0.200000
   # of expansion vecs  DIISMaxEq       ....     5
   Bias factor          DIISBfac        ....   1.050
   Max. coefficient     DIISMaxC        ....  10.000
 Trust-Rad. Augm. Hess. CNVTRAH         .... auto
   Auto Start mean grad. ratio tolernc. ....  1.125000
   Auto Start start iteration           ....    20
   Auto Start num. interpolation iter.  ....    10
   Max. Number of Micro iterations      ....    16
   Max. Number of Macro iterations      .... Maxiter - #DIIS iter
   Number of Davidson start vectors     ....     2
   Converg. threshold I  (grad. norm)   ....   1.000e-05
   Converg. threshold II (energy diff.) ....   1.000e-08
   Grad. Scal. Fac. for Micro threshold ....   0.100
   Minimum threshold for Micro iter.    ....   0.010
   NR start threshold (gradient norm)   ....   0.001
   Initial trust radius                 ....   0.400
   Minimum AH scaling param. (alpha)    ....   1.000
   Maximum AH scaling param. (alpha)    .... 1000.000
   Orbital update algorithm             .... Taylor
   White noise on init. David. guess    .... on
   Maximum white noise                  ....   0.010
   Quad. conv. algorithm                .... NR
 SOSCF                  CNVSOSCF        .... on
   Start iteration      SOSCFMaxIt      ....   150
   Startup grad/error   SOSCFStart      ....  0.003300
 Level Shifting         CNVShift        .... on
   Level shift para.    LevelShift      ....    0.2500
   Turn off err/grad.   ShiftErr        ....    0.0010
 Zerner damping         CNVZerner       .... off
 Static damping         CNVDamp         .... on
   Fraction old density DampFac         ....    0.7000
   Max. Damping (<1)    DampMax         ....    0.9800
   Min. Damping (>=0)   DampMin         ....    0.0000
   Turn off err/grad.   DampErr         ....    0.1000
 Fernandez-Rico         CNVRico         .... off

SCF Procedure:
 Maximum # iterations   MaxIter         ....   125
 SCF integral mode      SCFMode         .... Direct
   Integral package                     .... SHARK and LIBINT hybrid scheme
 Reset frequency        DirectResetFreq ....    20
 Integral Threshold     Thresh          ....  2.500e-11 Eh
 Primitive CutOff       TCut            ....  2.500e-12 Eh

Convergence Tolerance:
 Convergence Check Mode ConvCheckMode   .... Total+1el-Energy
 Convergence forced     ConvForced      .... 1
 Energy Change          TolE            ....  1.000e-08 Eh
 1-El. energy change                    ....  1.000e-05 Eh
 Orbital Gradient       TolG            ....  1.000e-05
 Orbital Rotation angle TolX            ....  1.000e-05
 DIIS Error             TolErr          ....  5.000e-07


Diagonalization of the overlap matrix:
Smallest eigenvalue                        ... 3.703e-05
Time for diagonalization                   ...    0.140 sec
Threshold for overlap eigenvalues          ... 1.000e-08
Number of eigenvalues below threshold      ... 0
Time for construction of square roots      ...    0.061 sec
Total time needed                          ...    0.204 sec

Time for model grid setup =    1.402 sec

------------------------------
INITIAL GUESS: MODEL POTENTIAL
------------------------------
Loading Hartree-Fock densities                     ... done
Calculating cut-offs                               ... done
Initializing the effective Hamiltonian             ... done
Setting up the integral package (SHARK)            ... done
Starting the Coulomb interaction                   ... done (   4.3 sec)
Reading the grid                                   ... done
Mapping shells                                     ... done
Starting the XC term evaluation                    ... done (   1.4 sec)
Transforming the Hamiltonian                       ... done (   0.1 sec)
Diagonalizing the Hamiltonian                      ... done (   0.1 sec)
Back transforming the eigenvectors                 ... done (   0.0 sec)
Now organizing SCF variables                       ... done
                      ------------------
                      INITIAL GUESS DONE (   7.4 sec)
                      ------------------
--------------
SCF ITERATIONS
--------------
ITER       Energy         Delta-E        Max-DP      RMS-DP      [F,P]     Damp
               ***  Starting incremental Fock matrix formation  ***
  0  -1269.9652005654   0.000000000000 0.05052773  0.00049324  0.3172832 0.7000
  1  -1270.2361381417  -0.270937576344 0.05296864  0.00042203  0.1883854 0.7000
                               ***Turning on DIIS***
  2  -1270.4050691536  -0.168931011929 0.03196357  0.00027645  0.1097629 0.7000
  3  -1272.5937620946  -2.188692940906 0.06318784  0.00053570  0.0830099 0.0000
  4  -1270.7125567965   1.881205298034 0.01592274  0.00012694  0.0070080 0.0000
  5  -1270.7791177302  -0.066560933671 0.00572385  0.00005974  0.0044318 0.0000
  6  -1270.7566940499   0.022423680316 0.00220191  0.00002881  0.0033199 0.0000
                      *** Initiating the SOSCF procedure ***
                           *** Shutting down DIIS ***
                      *** Re-Reading the Fockian *** 
                      *** Removing any level shift *** 
ITER      Energy       Delta-E        Grad      Rot      Max-DP    RMS-DP
  7  -1270.77050518  -0.0138111325  0.000913  0.000913  0.001227  0.000015
               *** Restarting incremental Fock matrix formation ***
  8  -1270.77182891  -0.0013237315  0.000511  0.001332  0.000638  0.000008
  9  -1270.77184475  -0.0000158406  0.000253  0.001675  0.000894  0.000011
 10  -1270.77185167  -0.0000069200  0.000089  0.000175  0.000168  0.000002
 11  -1270.77185235  -0.0000006781  0.000037  0.000075  0.000072  0.000001
 12  -1270.77185249  -0.0000001354  0.000015  0.000050  0.000040  0.000000
 13  -1270.77185251  -0.0000000258  0.000009  0.000043  0.000015  0.000000
                 **** Energy Check signals convergence ****
              ***Rediagonalizing the Fockian in SOSCF/NRSCF***

               *****************************************************
               *                     SUCCESS                       *
               *           SCF CONVERGED AFTER  14 CYCLES          *
               *****************************************************


----------------
TOTAL SCF ENERGY
----------------

Total Energy       :        -1270.77185252 Eh          -34579.46009 eV

Components:
Nuclear Repulsion  :         1686.47106168 Eh           45891.21065 eV
Electronic Energy  :        -2957.24291420 Eh          -80470.67075 eV
One Electron Energy:        -5094.26267261 Eh         -138621.93472 eV
Two Electron Energy:         2137.01975842 Eh           58151.26398 eV

Virial components:
Potential Energy   :        -2540.16427866 Eh          -69121.38409 eV
Kinetic Energy     :         1269.39242614 Eh           34541.92399 eV
Virial Ratio       :            2.00108668


---------------
SCF CONVERGENCE
---------------

  Last Energy change         ...   -4.3710e-09  Tolerance :   1.0000e-08
  Last MAX-Density change    ...    1.0792e-05  Tolerance :   1.0000e-07
  Last RMS-Density change    ...    6.4101e-08  Tolerance :   5.0000e-09
  Last Orbital Gradient      ...    3.6546e-06  Tolerance :   1.0000e-05
  Last Orbital Rotation      ...    9.0217e-06  Tolerance :   1.0000e-05

             **** THE GBW FILE WAS UPDATED (qm_input.vacu.gbw) ****
             **** DENSITY qm_input.vacu.scfp WAS UPDATED ****
             **** ENERGY FILE WAS UPDATED (qm_input.vacu.en.tmp) ****
             **** THE GBW FILE WAS UPDATED (qm_input.vacu.gbw) ****
             **** DENSITY qm_input.vacu.scfp WAS UPDATED ****
----------------
ORBITAL ENERGIES
----------------

  NO   OCC          E(Eh)            E(eV) 
   0   2.0000     -91.884994     -2500.3178 
   1   2.0000     -20.608400      -560.7831 
   2   2.0000     -20.582445      -560.0768 
   3   2.0000     -20.541031      -558.9499 
   4   2.0000     -15.633484      -425.4087 
   5   2.0000     -15.608199      -424.7207 
   6   2.0000     -11.388750      -309.9036 
   7   2.0000     -11.381044      -309.6940 
   8   2.0000     -11.337316      -308.5041 
   9   2.0000     -11.302521      -307.5572 
  10   2.0000     -11.299263      -307.4686 
  11   2.0000     -11.291973      -307.2702 
  12   2.0000     -11.258717      -306.3653 
  13   2.0000     -11.252131      -306.1860 
  14   2.0000     -11.250452      -306.1404 
  15   2.0000     -11.243401      -305.9485 
  16   2.0000     -11.236760      -305.7678 
  17   2.0000     -11.235269      -305.7272 
  18   2.0000     -11.233688      -305.6842 
  19   2.0000     -11.232482      -305.6514 
  20   2.0000      -8.892095      -241.9662 
  21   2.0000      -6.573816      -178.8826 
  22   2.0000      -6.571678      -178.8244 
  23   2.0000      -6.571019      -178.8065 
  24   2.0000      -1.457507       -39.6608 
  25   2.0000      -1.390217       -37.8297 
  26   2.0000      -1.358773       -36.9741 
  27   2.0000      -1.354484       -36.8574 
  28   2.0000      -1.261406       -34.3246 
  29   2.0000      -1.154321       -31.4107 
  30   2.0000      -1.124536       -30.6002 
  31   2.0000      -1.044483       -28.4218 
  32   2.0000      -1.032103       -28.0850 
  33   2.0000      -1.010998       -27.5107 
  34   2.0000      -0.999250       -27.1910 
  35   2.0000      -0.992566       -27.0091 
  36   2.0000      -0.926935       -25.2232 
  37   2.0000      -0.891434       -24.2571 
  38   2.0000      -0.848890       -23.0995 
  39   2.0000      -0.838648       -22.8208 
  40   2.0000      -0.826578       -22.4923 
  41   2.0000      -0.815739       -22.1974 
  42   2.0000      -0.766365       -20.8538 
  43   2.0000      -0.754075       -20.5194 
  44   2.0000      -0.721522       -19.6336 
  45   2.0000      -0.710228       -19.3263 
  46   2.0000      -0.691491       -18.8164 
  47   2.0000      -0.682630       -18.5753 
  48   2.0000      -0.674979       -18.3671 
  49   2.0000      -0.659131       -17.9359 
  50   2.0000      -0.650104       -17.6902 
  51   2.0000      -0.643698       -17.5159 
  52   2.0000      -0.627364       -17.0714 
  53   2.0000      -0.619303       -16.8521 
  54   2.0000      -0.596354       -16.2276 
  55   2.0000      -0.593545       -16.1512 
  56   2.0000      -0.589580       -16.0433 
  57   2.0000      -0.587400       -15.9840 
  58   2.0000      -0.563616       -15.3368 
  59   2.0000      -0.559310       -15.2196 
  60   2.0000      -0.553618       -15.0647 
  61   2.0000      -0.541767       -14.7422 
  62   2.0000      -0.532319       -14.4851 
  63   2.0000      -0.522904       -14.2289 
  64   2.0000      -0.514970       -14.0130 
  65   2.0000      -0.504991       -13.7415 
  66   2.0000      -0.498737       -13.5713 
  67   2.0000      -0.493826       -13.4377 
  68   2.0000      -0.481698       -13.1077 
  69   2.0000      -0.463397       -12.6097 
  70   2.0000      -0.455640       -12.3986 
  71   2.0000      -0.452347       -12.3090 
  72   2.0000      -0.356023        -9.6879 
  73   2.0000      -0.346577        -9.4308 
  74   2.0000      -0.328350        -8.9348 
  75   2.0000      -0.323788        -8.8107 
  76   2.0000      -0.310136        -8.4392 
  77   0.0000       0.073517         2.0005 
  78   0.0000       0.117054         3.1852 
  79   0.0000       0.121198         3.2980 
  80   0.0000       0.129913         3.5351 
  81   0.0000       0.135215         3.6794 
  82   0.0000       0.144210         3.9241 
  83   0.0000       0.148309         4.0357 
  84   0.0000       0.155619         4.2346 
  85   0.0000       0.163460         4.4480 
  86   0.0000       0.169980         4.6254 
  87   0.0000       0.181665         4.9434 
  88   0.0000       0.187171         5.0932 
  89   0.0000       0.192762         5.2453 
  90   0.0000       0.196733         5.3534 
  91   0.0000       0.204709         5.5704 
  92   0.0000       0.212659         5.7868 
  93   0.0000       0.227998         6.2041 
  94   0.0000       0.232305         6.3213 
  95   0.0000       0.240177         6.5355 
  96   0.0000       0.244599         6.6559 
  97   0.0000       0.252944         6.8830 
  98   0.0000       0.258708         7.0398 
  99   0.0000       0.281409         7.6575 
 100   0.0000       0.296898         8.0790 
 101   0.0000       0.312110         8.4930 
 102   0.0000       0.314894         8.5687 
 103   0.0000       0.325840         8.8666 
 104   0.0000       0.331426         9.0186 
 105   0.0000       0.333982         9.0881 
 106   0.0000       0.341801         9.3009 
 107   0.0000       0.352193         9.5837 
 108   0.0000       0.361611         9.8399 
 109   0.0000       0.365682         9.9507 
 110   0.0000       0.373040        10.1509 
 111   0.0000       0.380653        10.3581 
 112   0.0000       0.391025        10.6403 
 113   0.0000       0.401570        10.9273 
 114   0.0000       0.403292        10.9741 
 115   0.0000       0.409870        11.1531 
 116   0.0000       0.423253        11.5173 
 117   0.0000       0.424438        11.5495 
 118   0.0000       0.432070        11.7572 
 119   0.0000       0.439471        11.9586 
 120   0.0000       0.442850        12.0506 
 121   0.0000       0.447575        12.1791 
 122   0.0000       0.448848        12.2138 
 123   0.0000       0.460601        12.5336 
 124   0.0000       0.467422        12.7192 
 125   0.0000       0.469378        12.7724 
 126   0.0000       0.474633        12.9154 
 127   0.0000       0.482095        13.1185 
 128   0.0000       0.486814        13.2469 
 129   0.0000       0.498832        13.5739 
 130   0.0000       0.501704        13.6521 
 131   0.0000       0.512197        13.9376 
 132   0.0000       0.519796        14.1444 
 133   0.0000       0.522623        14.2213 
 134   0.0000       0.523039        14.2326 
 135   0.0000       0.528487        14.3809 
 136   0.0000       0.539336        14.6761 
 137   0.0000       0.542305        14.7569 
 138   0.0000       0.545025        14.8309 
 139   0.0000       0.549193        14.9443 
 140   0.0000       0.560586        15.2543 
 141   0.0000       0.564267        15.3545 
 142   0.0000       0.570733        15.5304 
 143   0.0000       0.573698        15.6111 
 144   0.0000       0.577569        15.7165 
 145   0.0000       0.580465        15.7952 
 146   0.0000       0.582319        15.8457 
 147   0.0000       0.588122        16.0036 
 148   0.0000       0.592907        16.1338 
 149   0.0000       0.595377        16.2010 
 150   0.0000       0.598887        16.2965 
 151   0.0000       0.604207        16.4413 
 152   0.0000       0.611764        16.6469 
 153   0.0000       0.614777        16.7289 
 154   0.0000       0.620116        16.8742 
 155   0.0000       0.624963        17.0061 
 156   0.0000       0.627239        17.0680 
 157   0.0000       0.632134        17.2012 
 158   0.0000       0.638792        17.3824 
 159   0.0000       0.640613        17.4320 
 160   0.0000       0.645773        17.5724 
 161   0.0000       0.650476        17.7004 
 162   0.0000       0.655231        17.8297 
 163   0.0000       0.657914        17.9027 
 164   0.0000       0.663899        18.0656 
 165   0.0000       0.670027        18.2324 
 166   0.0000       0.674222        18.3465 
 167   0.0000       0.678842        18.4722 
 168   0.0000       0.679605        18.4930 
 169   0.0000       0.681869        18.5546 
 170   0.0000       0.694120        18.8880 
 171   0.0000       0.702427        19.1140 
 172   0.0000       0.709602        19.3093 
 173   0.0000       0.713532        19.4162 
 174   0.0000       0.724735        19.7211 
 175   0.0000       0.731378        19.9018 
 176   0.0000       0.738092        20.0845 
 177   0.0000       0.742565        20.2062 
 178   0.0000       0.752143        20.4669 
 179   0.0000       0.759775        20.6745 
 180   0.0000       0.765837        20.8395 
 181   0.0000       0.772420        21.0186 
 182   0.0000       0.784143        21.3376 
 183   0.0000       0.790980        21.5237 
 184   0.0000       0.794269        21.6131 
 185   0.0000       0.804838        21.9008 
 186   0.0000       0.807221        21.9656 
 187   0.0000       0.818252        22.2658 
 188   0.0000       0.830665        22.6035 
 189   0.0000       0.838124        22.8065 
 190   0.0000       0.842229        22.9182 
 191   0.0000       0.849335        23.1116 
 192   0.0000       0.857404        23.3311 
 193   0.0000       0.863256        23.4904 
 194   0.0000       0.866103        23.5679 
 195   0.0000       0.884792        24.0764 
 196   0.0000       0.890023        24.2188 
 197   0.0000       0.896184        24.3864 
 198   0.0000       0.905819        24.6486 
 199   0.0000       0.908833        24.7306 
 200   0.0000       0.911774        24.8106 
 201   0.0000       0.925661        25.1885 
 202   0.0000       0.932187        25.3661 
 203   0.0000       0.944807        25.7095 
 204   0.0000       0.947236        25.7756 
 205   0.0000       0.953090        25.9349 
 206   0.0000       0.960653        26.1407 
 207   0.0000       0.969724        26.3875 
 208   0.0000       0.979520        26.6541 
 209   0.0000       0.980797        26.6888 
 210   0.0000       0.987071        26.8596 
 211   0.0000       0.990795        26.9609 
 212   0.0000       0.999127        27.1876 
 213   0.0000       1.006655        27.3925 
 214   0.0000       1.014450        27.6046 
 215   0.0000       1.018723        27.7209 
 216   0.0000       1.028977        27.9999 
 217   0.0000       1.034844        28.1595 
 218   0.0000       1.039234        28.2790 
 219   0.0000       1.040551        28.3148 
 220   0.0000       1.055944        28.7337 
 221   0.0000       1.062348        28.9080 
 222   0.0000       1.068766        29.0826 
 223   0.0000       1.073215        29.2037 
 224   0.0000       1.080894        29.4126 
 225   0.0000       1.085475        29.5373 
 226   0.0000       1.095654        29.8143 
 227   0.0000       1.109663        30.1955 
 228   0.0000       1.116286        30.3757 
 229   0.0000       1.131385        30.7866 
 230   0.0000       1.137512        30.9533 
 231   0.0000       1.140587        31.0369 
 232   0.0000       1.150929        31.3184 
 233   0.0000       1.155460        31.4417 
 234   0.0000       1.160041        31.5663 
 235   0.0000       1.162024        31.6203 
 236   0.0000       1.170002        31.8374 
 237   0.0000       1.174989        31.9731 
 238   0.0000       1.186911        32.2975 
 239   0.0000       1.193968        32.4895 
 240   0.0000       1.199039        32.6275 
 241   0.0000       1.202967        32.7344 
 242   0.0000       1.207530        32.8586 
 243   0.0000       1.214770        33.0556 
 244   0.0000       1.222780        33.2735 
 245   0.0000       1.228115        33.4187 
 246   0.0000       1.228391        33.4262 
 247   0.0000       1.237498        33.6740 
 248   0.0000       1.245385        33.8886 
 249   0.0000       1.250369        34.0243 
 250   0.0000       1.254017        34.1235 
 251   0.0000       1.263443        34.3800 
 252   0.0000       1.268192        34.5093 
 253   0.0000       1.274360        34.6771 
 254   0.0000       1.279051        34.8048 
 255   0.0000       1.286764        35.0146 
 256   0.0000       1.288310        35.0567 
 257   0.0000       1.304574        35.4993 
 258   0.0000       1.315033        35.7839 
 259   0.0000       1.325081        36.0573 
 260   0.0000       1.329988        36.1908 
 261   0.0000       1.349258        36.7152 
 262   0.0000       1.351446        36.7747 
 263   0.0000       1.359487        36.9935 
 264   0.0000       1.371904        37.3314 
 265   0.0000       1.379238        37.5310 
 266   0.0000       1.387505        37.7559 
 267   0.0000       1.397606        38.0308 
 268   0.0000       1.404491        38.2181 
 269   0.0000       1.409884        38.3649 
 270   0.0000       1.418504        38.5995 
 271   0.0000       1.428799        38.8796 
 272   0.0000       1.429811        38.9071 
 273   0.0000       1.441541        39.2263 
 274   0.0000       1.445247        39.3272 
 275   0.0000       1.455406        39.6036 
 276   0.0000       1.462735        39.8031 
 277   0.0000       1.465377        39.8749 
 278   0.0000       1.480945        40.2986 
 279   0.0000       1.488197        40.4959 
 280   0.0000       1.500354        40.8267 
 281   0.0000       1.505696        40.9721 
 282   0.0000       1.511009        41.1166 
 283   0.0000       1.513993        41.1979 
 284   0.0000       1.528111        41.5820 
 285   0.0000       1.532286        41.6956 
 286   0.0000       1.537501        41.8375 
 287   0.0000       1.539806        41.9002 
 288   0.0000       1.546918        42.0938 
 289   0.0000       1.550755        42.1982 
 290   0.0000       1.555127        42.3172 
 291   0.0000       1.565471        42.5986 
 292   0.0000       1.577046        42.9136 
 293   0.0000       1.579447        42.9789 
 294   0.0000       1.589558        43.2541 
 295   0.0000       1.598015        43.4842 
 296   0.0000       1.604456        43.6595 
 297   0.0000       1.612913        43.8896 
 298   0.0000       1.622295        44.1449 
 299   0.0000       1.625712        44.2379 
 300   0.0000       1.633706        44.4554 
 301   0.0000       1.635187        44.4957 
 302   0.0000       1.645041        44.7638 
 303   0.0000       1.648202        44.8499 
 304   0.0000       1.649986        44.8984 
 305   0.0000       1.662134        45.2290 
 306   0.0000       1.666118        45.3374 
 307   0.0000       1.674029        45.5526 
 308   0.0000       1.689500        45.9736 
 309   0.0000       1.697590        46.1938 
 310   0.0000       1.714784        46.6616 
 311   0.0000       1.723254        46.8921 
 312   0.0000       1.733877        47.1812 
 313   0.0000       1.747769        47.5592 
 314   0.0000       1.748755        47.5860 
 315   0.0000       1.763389        47.9843 
 316   0.0000       1.768365        48.1197 
 317   0.0000       1.781696        48.4824 
 318   0.0000       1.788043        48.6551 
 319   0.0000       1.793136        48.7937 
 320   0.0000       1.807080        49.1731 
 321   0.0000       1.823269        49.6137 
 322   0.0000       1.826546        49.7028 
 323   0.0000       1.847870        50.2831 
 324   0.0000       1.872786        50.9611 
 325   0.0000       1.881049        51.1859 
 326   0.0000       1.893826        51.5336 
 327   0.0000       1.903603        51.7997 
 328   0.0000       1.916084        52.1393 
 329   0.0000       1.924055        52.3562 
 330   0.0000       1.937180        52.7133 
 331   0.0000       1.948973        53.0342 
 332   0.0000       1.956153        53.2296 
 333   0.0000       1.966011        53.4979 
 334   0.0000       1.974054        53.7167 
 335   0.0000       1.990479        54.1637 
 336   0.0000       2.000320        54.4315 
 337   0.0000       2.008183        54.6454 
 338   0.0000       2.019560        54.9550 
 339   0.0000       2.025268        55.1103 
 340   0.0000       2.028645        55.2022 
 341   0.0000       2.054894        55.9165 
 342   0.0000       2.062227        56.1161 
 343   0.0000       2.068106        56.2760 
 344   0.0000       2.099640        57.1341 
 345   0.0000       2.106981        57.3339 
 346   0.0000       2.117740        57.6266 
 347   0.0000       2.126659        57.8693 
 348   0.0000       2.161973        58.8303 
 349   0.0000       2.173697        59.1493 
 350   0.0000       2.182241        59.3818 
 351   0.0000       2.193177        59.6794 
 352   0.0000       2.215865        60.2967 
 353   0.0000       2.217009        60.3279 
 354   0.0000       2.261820        61.5473 
 355   0.0000       2.268075        61.7175 
 356   0.0000       2.286293        62.2132 
 357   0.0000       2.290333        62.3231 
 358   0.0000       2.301087        62.6158 
 359   0.0000       2.315571        63.0099 
 360   0.0000       2.320024        63.1311 
 361   0.0000       2.330577        63.4182 
 362   0.0000       2.346943        63.8636 
 363   0.0000       2.350305        63.9551 
 364   0.0000       2.363086        64.3028 
 365   0.0000       2.376099        64.6570 
 366   0.0000       2.385965        64.9254 
 367   0.0000       2.399429        65.2918 
 368   0.0000       2.411228        65.6129 
 369   0.0000       2.414280        65.6959 
 370   0.0000       2.419541        65.8391 
 371   0.0000       2.446483        66.5722 
 372   0.0000       2.453341        66.7588 
 373   0.0000       2.470569        67.2276 
 374   0.0000       2.485324        67.6291 
 375   0.0000       2.485985        67.6471 
 376   0.0000       2.501243        68.0623 
 377   0.0000       2.509125        68.2768 
 378   0.0000       2.537972        69.0617 
 379   0.0000       2.550073        69.3910 
 380   0.0000       2.566104        69.8272 
 381   0.0000       2.581161        70.2370 
 382   0.0000       2.590429        70.4891 
 383   0.0000       2.596759        70.6614 
 384   0.0000       2.623132        71.3791 
 385   0.0000       2.628536        71.5261 
 386   0.0000       2.643123        71.9230 
 387   0.0000       2.652756        72.1852 
 388   0.0000       2.658728        72.3477 
 389   0.0000       2.674684        72.7819 
 390   0.0000       2.683993        73.0352 
 391   0.0000       2.688337        73.1534 
 392   0.0000       2.695150        73.3388 
 393   0.0000       2.696397        73.3727 
 394   0.0000       2.710233        73.7492 
 395   0.0000       2.721628        74.0593 
 396   0.0000       2.730797        74.3088 
 397   0.0000       2.738759        74.5254 
 398   0.0000       2.750651        74.8490 
 399   0.0000       2.764767        75.2331 
 400   0.0000       2.779038        75.6215 
 401   0.0000       2.786611        75.8275 
 402   0.0000       2.791779        75.9682 
 403   0.0000       2.812662        76.5364 
 404   0.0000       2.821611        76.7799 
 405   0.0000       2.826730        76.9192 
 406   0.0000       2.833204        77.0954 
 407   0.0000       2.845030        77.4172 
 408   0.0000       2.855041        77.6896 
 409   0.0000       2.861258        77.8588 
 410   0.0000       2.868230        78.0485 
 411   0.0000       2.873269        78.1856 
 412   0.0000       2.875732        78.2526 
 413   0.0000       2.886856        78.5553 
 414   0.0000       2.891173        78.6728 
 415   0.0000       2.906518        79.0904 
 416   0.0000       2.923328        79.5478 
 417   0.0000       2.930936        79.7548 
 418   0.0000       2.941489        80.0420 
 419   0.0000       2.953136        80.3589 
 420   0.0000       2.964991        80.6815 
 421   0.0000       2.966728        80.7288 
 422   0.0000       2.977491        81.0217 
 423   0.0000       2.992810        81.4385 
 424   0.0000       3.008637        81.8692 
 425   0.0000       3.010970        81.9327 
 426   0.0000       3.016405        82.0806 
 427   0.0000       3.027243        82.3755 
 428   0.0000       3.043804        82.8261 
 429   0.0000       3.044481        82.8445 
 430   0.0000       3.051109        83.0249 
 431   0.0000       3.062385        83.3317 
 432   0.0000       3.081567        83.8537 
 433   0.0000       3.089775        84.0770 
 434   0.0000       3.091832        84.1330 
 435   0.0000       3.099288        84.3359 
 436   0.0000       3.106079        84.5207 
 437   0.0000       3.110642        84.6449 
 438   0.0000       3.115960        84.7896 
 439   0.0000       3.120303        84.9078 
 440   0.0000       3.126064        85.0645 
 441   0.0000       3.130168        85.1762 
 442   0.0000       3.136894        85.3592 
 443   0.0000       3.146972        85.6335 
 444   0.0000       3.153487        85.8107 
 445   0.0000       3.157678        85.9248 
 446   0.0000       3.164814        86.1190 
 447   0.0000       3.171135        86.2910 
 448   0.0000       3.175214        86.4020 
 449   0.0000       3.187812        86.7448 
 450   0.0000       3.191660        86.8495 
 451   0.0000       3.206806        87.2616 
 452   0.0000       3.208023        87.2947 
 453   0.0000       3.212972        87.4294 
 454   0.0000       3.222997        87.7022 
 455   0.0000       3.232240        87.9537 
 456   0.0000       3.237212        88.0890 
 457   0.0000       3.248974        88.4091 
 458   0.0000       3.251220        88.4702 
 459   0.0000       3.264014        88.8183 
 460   0.0000       3.268967        88.9531 
 461   0.0000       3.277044        89.1729 
 462   0.0000       3.282554        89.3228 
 463   0.0000       3.291881        89.5766 
 464   0.0000       3.298500        89.7567 
 465   0.0000       3.300269        89.8049 
 466   0.0000       3.308811        90.0373 
 467   0.0000       3.314505        90.1923 
 468   0.0000       3.320269        90.3491 
 469   0.0000       3.325797        90.4995 
 470   0.0000       3.332628        90.6854 
 471   0.0000       3.336394        90.7879 
 472   0.0000       3.349118        91.1341 
 473   0.0000       3.352184        91.2176 
 474   0.0000       3.355932        91.3196 
 475   0.0000       3.363787        91.5333 
 476   0.0000       3.369822        91.6975 
 477   0.0000       3.385051        92.1119 
 478   0.0000       3.390589        92.2626 
 479   0.0000       3.393845        92.3512 
 480   0.0000       3.396875        92.4337 
 481   0.0000       3.398830        92.4869 
 482   0.0000       3.404686        92.6462 
 483   0.0000       3.407971        92.7356 
 484   0.0000       3.414245        92.9063 
 485   0.0000       3.419672        93.0540 
 486   0.0000       3.427046        93.2547 
 487   0.0000       3.430499        93.3486 
 488   0.0000       3.439970        93.6063 
 489   0.0000       3.442180        93.6665 
 490   0.0000       3.452125        93.9371 
 491   0.0000       3.455087        94.0177 
 492   0.0000       3.466878        94.3385 
 493   0.0000       3.470933        94.4489 
 494   0.0000       3.472373        94.4881 
 495   0.0000       3.481341        94.7321 
 496   0.0000       3.484878        94.8284 
 497   0.0000       3.496089        95.1334 
 498   0.0000       3.498631        95.2026 
 499   0.0000       3.503779        95.3427 
 500   0.0000       3.517974        95.7289 
 501   0.0000       3.524008        95.8931 
 502   0.0000       3.527721        95.9942 
 503   0.0000       3.539117        96.3043 
 504   0.0000       3.548497        96.5595 
 505   0.0000       3.561015        96.9001 
 506   0.0000       3.567343        97.0723 
 507   0.0000       3.571733        97.1918 
 508   0.0000       3.586069        97.5819 
 509   0.0000       3.589128        97.6651 
 510   0.0000       3.605771        98.1180 
 511   0.0000       3.608925        98.2038 
 512   0.0000       3.617690        98.4424 
 513   0.0000       3.621967        98.5587 
 514   0.0000       3.626896        98.6929 
 515   0.0000       3.628498        98.7365 
 516   0.0000       3.638669        99.0132 
 517   0.0000       3.646424        99.2242 
 518   0.0000       3.653862        99.4267 
 519   0.0000       3.657003        99.5121 
 520   0.0000       3.660239        99.6002 
 521   0.0000       3.662031        99.6489 
 522   0.0000       3.671379        99.9033 
 523   0.0000       3.679835       100.1334 
 524   0.0000       3.684688       100.2655 
 525   0.0000       3.688211       100.3613 
 526   0.0000       3.696344       100.5826 
 527   0.0000       3.705163       100.8226 
 528   0.0000       3.717499       101.1583 
 529   0.0000       3.722384       101.2912 
 530   0.0000       3.728668       101.4622 
 531   0.0000       3.732761       101.5736 
 532   0.0000       3.737747       101.7093 
 533   0.0000       3.744379       101.8897 
 534   0.0000       3.745540       101.9213 
 535   0.0000       3.749031       102.0163 
 536   0.0000       3.754517       102.1656 
 537   0.0000       3.767829       102.5278 
 538   0.0000       3.775534       102.7375 
 539   0.0000       3.780780       102.8803 
 540   0.0000       3.784884       102.9919 
 541   0.0000       3.790705       103.1503 
 542   0.0000       3.794792       103.2615 
 543   0.0000       3.799944       103.4017 
 544   0.0000       3.803649       103.5025 
 545   0.0000       3.819502       103.9339 
 546   0.0000       3.822068       104.0038 
 547   0.0000       3.834418       104.3398 
 548   0.0000       3.838907       104.4620 
 549   0.0000       3.851680       104.8095 
 550   0.0000       3.862163       105.0948 
 551   0.0000       3.865533       105.1865 
 552   0.0000       3.878861       105.5492 
 553   0.0000       3.887519       105.7848 
 554   0.0000       3.891755       105.9000 
 555   0.0000       3.898003       106.0701 
 556   0.0000       3.904685       106.2519 
 557   0.0000       3.909221       106.3753 
 558   0.0000       3.916604       106.5762 
 559   0.0000       3.930714       106.9602 
 560   0.0000       3.932468       107.0079 
 561   0.0000       3.947026       107.4040 
 562   0.0000       3.959271       107.7373 
 563   0.0000       3.973938       108.1364 
 564   0.0000       3.981497       108.3420 
 565   0.0000       3.991644       108.6182 
 566   0.0000       3.995682       108.7280 
 567   0.0000       4.006219       109.0148 
 568   0.0000       4.011825       109.1673 
 569   0.0000       4.019962       109.3887 
 570   0.0000       4.036487       109.8384 
 571   0.0000       4.039101       109.9095 
 572   0.0000       4.042907       110.0131 
 573   0.0000       4.056898       110.3938 
 574   0.0000       4.058719       110.4434 
 575   0.0000       4.069956       110.7491 
 576   0.0000       4.079528       111.0096 
 577   0.0000       4.092138       111.3527 
 578   0.0000       4.093114       111.3793 
 579   0.0000       4.105277       111.7103 
 580   0.0000       4.108153       111.7885 
 581   0.0000       4.119646       112.1013 
 582   0.0000       4.122918       112.1903 
 583   0.0000       4.134164       112.4963 
 584   0.0000       4.138754       112.6212 
 585   0.0000       4.151679       112.9729 
 586   0.0000       4.155094       113.0659 
 587   0.0000       4.167264       113.3970 
 588   0.0000       4.169747       113.4646 
 589   0.0000       4.181904       113.7954 
 590   0.0000       4.183024       113.8259 
 591   0.0000       4.190688       114.0344 
 592   0.0000       4.196907       114.2036 
 593   0.0000       4.214214       114.6746 
 594   0.0000       4.223607       114.9302 
 595   0.0000       4.230592       115.1203 
 596   0.0000       4.233363       115.1957 
 597   0.0000       4.242392       115.4413 
 598   0.0000       4.244477       115.4981 
 599   0.0000       4.253679       115.7485 
 600   0.0000       4.262702       115.9940 
 601   0.0000       4.270437       116.2045 
 602   0.0000       4.275199       116.3341 
 603   0.0000       4.296522       116.9143 
 604   0.0000       4.300436       117.0208 
 605   0.0000       4.306106       117.1751 
 606   0.0000       4.310822       117.3034 
 607   0.0000       4.314216       117.3958 
 608   0.0000       4.320197       117.5585 
 609   0.0000       4.330813       117.8474 
 610   0.0000       4.342055       118.1533 
 611   0.0000       4.347438       118.2998 
 612   0.0000       4.350419       118.3809 
 613   0.0000       4.355440       118.5176 
 614   0.0000       4.365451       118.7900 
 615   0.0000       4.373910       119.0201 
 616   0.0000       4.380076       119.1879 
 617   0.0000       4.394123       119.5702 
 618   0.0000       4.401267       119.7646 
 619   0.0000       4.410666       120.0203 
 620   0.0000       4.423373       120.3661 
 621   0.0000       4.431110       120.5766 
 622   0.0000       4.437944       120.7626 
 623   0.0000       4.453536       121.1869 
 624   0.0000       4.458170       121.3130 
 625   0.0000       4.460115       121.3659 
 626   0.0000       4.466946       121.5518 
 627   0.0000       4.476381       121.8085 
 628   0.0000       4.480596       121.9232 
 629   0.0000       4.488019       122.1252 
 630   0.0000       4.493582       122.2766 
 631   0.0000       4.501774       122.4995 
 632   0.0000       4.515020       122.8599 
 633   0.0000       4.528819       123.2354 
 634   0.0000       4.533898       123.3736 
 635   0.0000       4.545176       123.6805 
 636   0.0000       4.550157       123.8161 
 637   0.0000       4.557335       124.0114 
 638   0.0000       4.561096       124.1137 
 639   0.0000       4.573719       124.4572 
 640   0.0000       4.579572       124.6165 
 641   0.0000       4.596659       125.0815 
 642   0.0000       4.604936       125.3067 
 643   0.0000       4.609502       125.4309 
 644   0.0000       4.613760       125.5468 
 645   0.0000       4.629058       125.9631 
 646   0.0000       4.631284       126.0236 
 647   0.0000       4.642441       126.3272 
 648   0.0000       4.645999       126.4241 
 649   0.0000       4.652865       126.6109 
 650   0.0000       4.663099       126.8894 
 651   0.0000       4.668620       127.0396 
 652   0.0000       4.685909       127.5101 
 653   0.0000       4.696680       127.8032 
 654   0.0000       4.698070       127.8410 
 655   0.0000       4.712748       128.2404 
 656   0.0000       4.715771       128.3227 
 657   0.0000       4.730112       128.7129 
 658   0.0000       4.749552       129.2419 
 659   0.0000       4.758712       129.4911 
 660   0.0000       4.767356       129.7263 
 661   0.0000       4.776205       129.9671 
 662   0.0000       4.788857       130.3114 
 663   0.0000       4.792000       130.3969 
 664   0.0000       4.811911       130.9388 
 665   0.0000       4.833381       131.5230 
 666   0.0000       4.839965       131.7022 
 667   0.0000       4.867639       132.4552 
 668   0.0000       4.878274       132.7446 
 669   0.0000       4.901492       133.3764 
 670   0.0000       4.921722       133.9269 
 671   0.0000       4.936823       134.3378 
 672   0.0000       4.956177       134.8644 
 673   0.0000       4.963091       135.0526 
 674   0.0000       4.982437       135.5790 
 675   0.0000       4.993849       135.8895 
 676   0.0000       5.006433       136.2320 
 677   0.0000       5.013020       136.4112 
 678   0.0000       5.028979       136.8455 
 679   0.0000       5.036309       137.0449 
 680   0.0000       5.063610       137.7878 
 681   0.0000       5.065692       137.8445 
 682   0.0000       5.069097       137.9371 
 683   0.0000       5.091755       138.5537 
 684   0.0000       5.107816       138.9907 
 685   0.0000       5.113319       139.1405 
 686   0.0000       5.118548       139.2828 
 687   0.0000       5.139680       139.8578 
 688   0.0000       5.143756       139.9687 
 689   0.0000       5.144473       139.9882 
 690   0.0000       5.161699       140.4570 
 691   0.0000       5.178471       140.9133 
 692   0.0000       5.182378       141.0197 
 693   0.0000       5.197814       141.4397 
 694   0.0000       5.210438       141.7832 
 695   0.0000       5.214508       141.8940 
 696   0.0000       5.238069       142.5351 
 697   0.0000       5.252498       142.9277 
 698   0.0000       5.261025       143.1598 
 699   0.0000       5.275732       143.5600 
 700   0.0000       5.285211       143.8179 
 701   0.0000       5.294058       144.0586 
 702   0.0000       5.311224       144.5258 
 703   0.0000       5.329572       145.0250 
 704   0.0000       5.337612       145.2438 
 705   0.0000       5.345593       145.4610 
 706   0.0000       5.351653       145.6259 
 707   0.0000       5.371413       146.1636 
 708   0.0000       5.376747       146.3087 
 709   0.0000       5.385282       146.5410 
 710   0.0000       5.404812       147.0724 
 711   0.0000       5.427469       147.6889 
 712   0.0000       5.429644       147.7481 
 713   0.0000       5.446295       148.2012 
 714   0.0000       5.458261       148.5268 
 715   0.0000       5.485310       149.2629 
 716   0.0000       5.497685       149.5996 
 717   0.0000       5.504660       149.7894 
 718   0.0000       5.510267       149.9420 
 719   0.0000       5.520075       150.2089 
 720   0.0000       5.532013       150.5337 
 721   0.0000       5.555695       151.1782 
 722   0.0000       5.564843       151.4271 
 723   0.0000       5.581047       151.8680 
 724   0.0000       5.592539       152.1807 
 725   0.0000       5.604282       152.5003 
 726   0.0000       5.607448       152.5864 
 727   0.0000       5.627181       153.1234 
 728   0.0000       5.632547       153.2694 
 729   0.0000       5.636812       153.3854 
 730   0.0000       5.658264       153.9692 
 731   0.0000       5.672883       154.3670 
 732   0.0000       5.680142       154.5645 
 733   0.0000       5.682513       154.6290 
 734   0.0000       5.699107       155.0806 
 735   0.0000       5.713734       155.4786 
 736   0.0000       5.727032       155.8405 
 737   0.0000       5.749903       156.4628 
 738   0.0000       5.758900       156.7076 
 739   0.0000       5.762508       156.8058 
 740   0.0000       5.775557       157.1609 
 741   0.0000       5.794453       157.6751 
 742   0.0000       5.813866       158.2033 
 743   0.0000       5.827428       158.5724 
 744   0.0000       5.841439       158.9536 
 745   0.0000       5.856573       159.3655 
 746   0.0000       5.870430       159.7425 
 747   0.0000       5.911320       160.8552 
 748   0.0000       5.932855       161.4412 
 749   0.0000       5.958006       162.1256 
 750   0.0000       5.973900       162.5581 
 751   0.0000       5.991271       163.0308 
 752   0.0000       6.008219       163.4920 
 753   0.0000       6.020890       163.8367 
 754   0.0000       6.045317       164.5014 
 755   0.0000       6.059701       164.8929 
 756   0.0000       6.086338       165.6177 
 757   0.0000       6.093322       165.8077 
 758   0.0000       6.098540       165.9497 
 759   0.0000       6.153599       167.4479 
 760   0.0000       6.171167       167.9260 
 761   0.0000       6.176054       168.0590 
 762   0.0000       6.181632       168.2108 
 763   0.0000       6.223990       169.3634 
 764   0.0000       6.243213       169.8865 
 765   0.0000       6.248785       170.0381 
 766   0.0000       6.268200       170.5664 
 767   0.0000       6.294335       171.2776 
 768   0.0000       6.341313       172.5559 
 769   0.0000       6.349840       172.7879 
 770   0.0000       6.373197       173.4235 
 771   0.0000       6.378946       173.5799 
 772   0.0000       6.418947       174.6684 
 773   0.0000       6.450018       175.5139 
 774   0.0000       6.500932       176.8993 
 775   0.0000       6.514599       177.2713 
 776   0.0000       6.525721       177.5739 
 777   0.0000       6.547049       178.1543 
 778   0.0000       6.573344       178.8698 
 779   0.0000       6.648832       180.9239 
 780   0.0000       6.675196       181.6413 
 781   0.0000       6.716495       182.7651 
 782   0.0000       6.738874       183.3741 
 783   0.0000       6.779562       184.4812 
 784   0.0000       6.859010       186.6432 
 785   0.0000       6.894248       187.6020 
 786   0.0000       6.926829       188.4886 
 787   0.0000       6.959275       189.3715 
 788   0.0000       6.962069       189.4475 
 789   0.0000       7.021552       191.0662 
 790   0.0000       7.048929       191.8111 
 791   0.0000       7.133441       194.1108 
 792   0.0000       7.171345       195.1422 
 793   0.0000       7.211208       196.2269 
 794   0.0000       7.226669       196.6477 
 795   0.0000       7.237572       196.9443 
 796   0.0000       7.260698       197.5736 
 797   0.0000       7.291598       198.4145 
 798   0.0000       7.356277       200.1745 
 799   0.0000       7.385212       200.9618 
 800   0.0000       7.452582       202.7951 
 801   0.0000       7.471692       203.3151 
 802   0.0000       7.551799       205.4949 
 803   0.0000       7.598123       206.7554 
 804   0.0000       7.704269       209.6438 
 805   0.0000       7.722035       210.1273 
 806   0.0000       7.861400       213.9196 
 807   0.0000       7.919990       215.5139 
 808   0.0000       7.976151       217.0421 
 809   0.0000       9.338974       254.1264 
 810   0.0000       9.817072       267.1361 
 811   0.0000      11.107456       302.2492 
 812   0.0000      11.668736       317.5224 
 813   0.0000      11.981865       326.0431 
 814   0.0000      12.468215       339.2774 
 815   0.0000      12.714182       345.9705 
 816   0.0000      12.843227       349.4820 
 817   0.0000      12.913415       351.3919 
 818   0.0000      13.454698       366.1209 
 819   0.0000      13.575352       369.4041 
 820   0.0000      13.598834       370.0431 
 821   0.0000      13.863081       377.2336 
 822   0.0000      13.901161       378.2698 
 823   0.0000      13.985728       380.5710 
 824   0.0000      14.458122       393.4255 
 825   0.0000      14.791956       402.5096 
 826   0.0000      14.868510       404.5927 
 827   0.0000      15.974189       434.6798 

                    ********************************
                    * MULLIKEN POPULATION ANALYSIS *
                    ********************************

-----------------------
MULLIKEN ATOMIC CHARGES
-----------------------
   0 C :   -0.299371
   1 C :    0.044418
   2 O :   -0.319950
   3 C :    0.434428
   4 O :   -0.437196
   5 C :   -0.121523
   6 C :    0.114315
   7 C :   -0.288902
   8 N :   -0.118883
   9 C :    0.177425
  10 S :   -0.433628
  11 N :   -0.139513
  12 C :   -0.016671
  13 C :    0.052640
  14 C :   -0.226723
  15 C :   -0.143682
  16 C :   -0.237768
  17 C :    0.271542
  18 O :   -0.379781
  19 C :   -0.171487
  20 H :    0.097941
  21 H :    0.093730
  22 H :    0.108101
  23 H :    0.091675
  24 H :    0.087932
  25 H :    0.125894
  26 H :    0.128236
  27 H :    0.098505
  28 H :    0.208281
  29 H :    0.199997
  30 H :    0.149724
  31 H :    0.152321
  32 H :    0.156987
  33 H :    0.143686
  34 H :    0.239989
  35 H :    0.157311
Sum of atomic charges:    0.0000000

--------------------------------
MULLIKEN REDUCED ORBITAL CHARGES
--------------------------------
  0 C s       :     3.267397  s :     3.267397
      pz      :     1.002122  p :     2.958002
      px      :     1.024662
      py      :     0.931217
      dz2     :     0.017627  d :     0.069859
      dxz     :     0.011915
      dyz     :     0.014555
      dx2y2   :     0.007837
      dxy     :     0.017924
      f0      :     0.000503  f :     0.004114
      f+1     :     0.000461
      f-1     :     0.000655
      f+2     :     0.000326
      f-2     :     0.000930
      f+3     :     0.000594
      f-3     :     0.000646
  1 C s       :     3.171422  s :     3.171422
      pz      :     0.986036  p :     2.629199
      px      :     0.674181
      py      :     0.968983
      dz2     :     0.031189  d :     0.143135
      dxz     :     0.026354
      dyz     :     0.014950
      dx2y2   :     0.033992
      dxy     :     0.036651
      f0      :     0.001849  f :     0.011826
      f+1     :     0.001872
      f-1     :     0.000461
      f+2     :     0.002075
      f-2     :     0.000783
      f+3     :     0.002362
      f-3     :     0.002425
  2 O s       :     3.702410  s :     3.702410
      pz      :     1.752092  p :     4.578805
      px      :     1.326595
      py      :     1.500117
      dz2     :     0.004133  d :     0.036449
      dxz     :     0.006388
      dyz     :     0.004761
      dx2y2   :     0.012727
      dxy     :     0.008440
      f0      :     0.000275  f :     0.002286
      f+1     :     0.000306
      f-1     :     0.000213
      f+2     :     0.000290
      f-2     :     0.000240
      f+3     :     0.000597
      f-3     :     0.000365
  3 C s       :     3.079866  s :     3.079866
      pz      :     0.668525  p :     2.156106
[...]
 15 C s       :     2.700989  s :     2.700989
      pz      :     0.951598  p :     2.804037
      px      :     0.874135
      py      :     0.978305
      dz2     :     0.093100  d :     0.420549
      dxz     :     0.056608
      dyz     :     0.097742
      dx2y2   :     0.089945
      dxy     :     0.083155
      f0      :     0.003236  f :     0.042775
      f+1     :     0.004312
      f-1     :     0.011095
      f+2     :     0.006723
      f-2     :     0.007072
      f+3     :     0.005582
      f-3     :     0.004755
 16 C s       :     2.700343  s :     2.700343
      pz      :     0.964737  p :     2.849864
      px      :     0.913873
      py      :     0.971254
      dz2     :     0.105430  d :     0.403707
      dxz     :     0.072853
      dyz     :     0.113632
      dx2y2   :     0.067485
      dxy     :     0.044306
      f0      :     0.007389  f :     0.042021
      f+1     :     0.007105
      f-1     :     0.009538
      f+2     :     0.004430
      f-2     :     0.005345
      f+3     :     0.003870
      f-3     :     0.004344
 17 C s       :     2.705713  s :     2.705713
      pz      :     0.981176  p :     2.690938
      px      :     0.826019
      py      :     0.883744
      dz2     :     0.153274  d :     0.678553
      dxz     :     0.102573
      dyz     :     0.190977
      dx2y2   :     0.101350
      dxy     :     0.130379
      f0      :     0.009711  f :     0.092999
      f+1     :     0.008430
      f-1     :     0.026308
      f+2     :     0.011542
      f-2     :     0.014194
      f+3     :     0.010890
      f-3     :     0.011924
 18 O s       :     3.196095  s :     3.196095
      pz      :     1.600437  p :     4.369992
      px      :     1.567991
      py      :     1.201564
      dz2     :     0.009425  d :     0.070273
      dxz     :     0.005397
      dyz     :     0.018372
      dx2y2   :     0.014510
      dxy     :     0.022569
      f0      :     0.000286  f :     0.004614
      f+1     :     0.000285
      f-1     :     0.000602
      f+2     :     0.000616
      f-2     :     0.001249
      f+3     :     0.000919
      f-3     :     0.000657
 19 C s       :     2.696201  s :     2.696201
      pz      :     0.959522  p :     2.829621
      px      :     0.891585
      py      :     0.978513
      dz2     :     0.101694  d :     0.396629
      dxz     :     0.043059
      dyz     :     0.099665
      dx2y2   :     0.076689
      dxy     :     0.075522
      f0      :     0.004307  f :     0.041689
      f+1     :     0.003050
      f-1     :     0.010253
      f+2     :     0.006517
      f-2     :     0.006712
      f+3     :     0.005901
      f-3     :     0.004949
 20 H s       :     0.851223  s :     0.851223
      pz      :     0.043333  p :     0.154191
      px      :     0.057597
      py      :     0.053261
      dz2     :     0.002303  d :     0.027868
      dxz     :     0.005414
      dyz     :     0.004651
      dx2y2   :     0.008529
      dxy     :     0.006971
 21 H s       :     0.848883  s :     0.848883
      pz      :     0.069930  p :     0.157138
      px      :     0.044930
      py      :     0.042277
      dz2     :     0.009260  d :     0.028039
      dxz     :     0.007806
      dyz     :     0.007642
      dx2y2   :     0.001210
      dxy     :     0.002121
 22 H s       :     0.851480  s :     0.851480
      pz      :     0.045989  p :     0.152846
      px      :     0.059291
      py      :     0.047566
      dz2     :     0.005278  d :     0.027184
      dxz     :     0.005232
      dyz     :     0.004301
      dx2y2   :     0.006489
      dxy     :     0.005884
 23 H s       :     0.856718  s :     0.856718
      pz      :     0.043628  p :     0.146616
      px      :     0.041694
      py      :     0.061294
      dz2     :     0.004932  d :     0.027297
      dxz     :     0.003695
      dyz     :     0.005068
      dx2y2   :     0.006636
      dxy     :     0.006967
 24 H s       :     0.860433  s :     0.860433
      pz      :     0.081311  p :     0.148805
      px      :     0.026111
      py      :     0.041383
      dz2     :     0.009836  d :     0.027198
      dxz     :     0.006988
      dyz     :     0.009681
      dx2y2   :     0.000506
      dxy     :     0.000188
 25 H s       :     0.836343  s :     0.836343
      pz      :     0.047192  p :     0.151246
      px      :     0.067567
      py      :     0.036488
      dz2     :     0.004878  d :     0.027555
      dxz     :     0.007995
      dyz     :     0.002921
      dx2y2   :     0.005928
      dxy     :     0.005833
 26 H s       :     0.825921  s :     0.825921
      pz      :     0.053515  p :     0.152924
      px      :     0.041976
      py      :     0.057433
      dz2     :     0.005994  d :     0.028004
      dxz     :     0.005020
      dyz     :     0.006972
      dx2y2   :     0.004917
      dxy     :     0.005102
 27 H s       :     0.842094  s :     0.842094
      pz      :     0.052942  p :     0.149992
      px      :     0.055047
      py      :     0.042003
      dz2     :     0.006614  d :     0.028000
      dxz     :     0.006398
      dyz     :     0.004744
      dx2y2   :     0.005071
      dxy     :     0.005172
 28 H s       :     0.736461  s :     0.736461
      pz      :     0.096954  p :     0.253204
      px      :     0.069952
      py      :     0.086298
      dz2     :     0.016319  d :     0.061061
      dxz     :     0.013074
      dyz     :     0.010421
      dx2y2   :     0.009744
      dxy     :     0.011502
 29 H s       :     0.734105  s :     0.734105
      pz      :     0.090263  p :     0.248953
      px      :     0.061648
      py      :     0.097042
      dz2     :     0.016548  d :     0.061356
      dxz     :     0.008205
      dyz     :     0.013237
      dx2y2   :     0.012638
      dxy     :     0.010728
 30 H s       :     0.821719  s :     0.821719
      pz      :     0.072240  p :     0.151211
      px      :     0.040300
      py      :     0.038671
      dz2     :     0.009224  d :     0.029365
      dxz     :     0.007224
      dyz     :     0.008600
      dx2y2   :     0.002430
      dxy     :     0.001888
 31 H s       :     0.844445  s :     0.844445
      pz      :     0.046347  p :     0.159713
      px      :     0.055251
      py      :     0.058116
      dz2     :     0.005308  d :     0.027790
      dxz     :     0.004492
      dyz     :     0.005972
      dx2y2   :     0.006256
      dxy     :     0.005762
 32 H s       :     0.841569  s :     0.841569
      pz      :     0.070538  p :     0.152052
      px      :     0.047346
      py      :     0.034168
      dz2     :     0.008614  d :     0.026834
      dxz     :     0.007769
      dyz     :     0.007130
      dx2y2   :     0.001650
      dxy     :     0.001670
 33 H s       :     0.846235  s :     0.846235
      pz      :     0.044482  p :     0.155879
      px      :     0.043983
      py      :     0.067415
      dz2     :     0.004900  d :     0.027527
      dxz     :     0.002211
      dyz     :     0.007897
      dx2y2   :     0.006072
      dxy     :     0.006447
 34 H s       :     0.708532  s :     0.708532
      pz      :     0.109332  p :     0.351713
      px      :     0.120572
      py      :     0.121809
      dz2     :     0.012528  d :     0.098354
      dxz     :     0.009136
      dyz     :     0.025610
      dx2y2   :     0.024300
      dxy     :     0.026780
 35 H s       :     0.836823  s :     0.836823
      pz      :     0.076852  p :     0.155014
      px      :     0.045118
      py      :     0.033044
      dz2     :     0.009992  d :     0.027808
      dxz     :     0.008006
      dyz     :     0.008197
      dx2y2   :     0.000805
      dxy     :     0.000808


                      *****************************
                      * MAYER POPULATION ANALYSIS *
                      *****************************

  NA   - Mulliken gross atomic population
  ZA   - Total nuclear charge
  QA   - Mulliken gross atomic charge
  VA   - Mayer's total valence
  BVA  - Mayer's bonded valence
  FA   - Mayer's free valence

  ATOM       NA         ZA         QA         VA         BVA        FA
  0 C      6.2994     6.0000    -0.2994     3.8751     3.8751    -0.0000
  1 C      5.9556     6.0000     0.0444     3.8708     3.8708    -0.0000
  2 O      8.3200     8.0000    -0.3200     2.0923     2.0923    -0.0000
  3 C      5.5656     6.0000     0.4344     4.2265     4.2265     0.0000
  4 O      8.4372     8.0000    -0.4372     2.0777     2.0777     0.0000
  5 C      6.1215     6.0000    -0.1215     3.6052     3.6052     0.0000
  6 C      5.8857     6.0000     0.1143     3.8589     3.8589    -0.0000
  7 C      6.2889     6.0000    -0.2889     3.8997     3.8997    -0.0000
  8 N      7.1189     7.0000    -0.1189     3.2584     3.2584     0.0000
  9 C      5.8226     6.0000     0.1774     4.1831     4.1831    -0.0000
 10 S     16.4336    16.0000    -0.4336     1.7811     1.7811     0.0000
 11 N      7.1395     7.0000    -0.1395     3.2781     3.2781    -0.0000
 12 C      6.0167     6.0000    -0.0167     3.9982     3.9982     0.0000
 13 C      5.9474     6.0000     0.0526     3.6995     3.6995    -0.0000
 14 C      6.2267     6.0000    -0.2267     3.8786     3.8786    -0.0000
 15 C      6.1437     6.0000    -0.1437     3.8233     3.8233     0.0000
 16 C      6.2378     6.0000    -0.2378     3.8027     3.8027    -0.0000
 17 C      5.7285     6.0000     0.2715     3.8519     3.8519    -0.0000
 18 O      8.3798     8.0000    -0.3798     2.0679     2.0679     0.0000
 19 C      6.1715     6.0000    -0.1715     3.8333     3.8333     0.0000
 20 H      0.9021     1.0000     0.0979     0.9801     0.9801     0.0000
 21 H      0.9063     1.0000     0.0937     0.9833     0.9833     0.0000
 22 H      0.8919     1.0000     0.1081     0.9841     0.9841    -0.0000
 23 H      0.9083     1.0000     0.0917     0.9791     0.9791    -0.0000
 24 H      0.9121     1.0000     0.0879     0.9817     0.9817     0.0000
 25 H      0.8741     1.0000     0.1259     0.9858     0.9858    -0.0000
 26 H      0.8718     1.0000     0.1282     0.9776     0.9776    -0.0000
 27 H      0.9015     1.0000     0.0985     0.9847     0.9847     0.0000
 28 H      0.7917     1.0000     0.2083     1.0230     1.0230     0.0000
 29 H      0.8000     1.0000     0.2000     1.0124     1.0124    -0.0000
 30 H      0.8503     1.0000     0.1497     0.9960     0.9960     0.0000
 31 H      0.8477     1.0000     0.1523     0.9870     0.9870    -0.0000
 32 H      0.8430     1.0000     0.1570     0.9775     0.9775    -0.0000
 33 H      0.8563     1.0000     0.1437     0.9858     0.9858    -0.0000
 34 H      0.7600     1.0000     0.2400     1.0079     1.0079     0.0000
 35 H      0.8427     1.0000     0.1573     0.9909     0.9909     0.0000

  Mayer bond orders larger than 0.100000
B(  0-C ,  1-C ) :   0.9441 B(  0-C , 20-H ) :   0.9762 B(  0-C , 21-H ) :   0.9864 
B(  0-C , 22-H ) :   0.9816 B(  1-C ,  2-O ) :   0.9324 B(  1-C , 23-H ) :   0.9797 
B(  1-C , 24-H ) :   0.9815 B(  2-O ,  3-C ) :   1.1549 B(  3-C ,  4-O ) :   1.9618 
B(  3-C ,  5-C ) :   1.0762 B(  5-C ,  6-C ) :   1.6248 B(  5-C , 12-C ) :   0.9665 
B(  6-C ,  7-C ) :   0.9601 B(  6-C ,  8-N ) :   1.1541 B(  7-C , 25-H ) :   0.9716 
B(  7-C , 26-H ) :   0.9574 B(  7-C , 27-H ) :   0.9927 B(  8-N ,  9-C ) :   1.1573 
B(  8-N , 28-H ) :   0.9334 B(  9-C , 10-S ) :   1.6346 B(  9-C , 11-N ) :   1.3223 
B( 11-N , 12-C ) :   0.9917 B( 11-N , 29-H ) :   0.9556 B( 12-C , 13-C ) :   0.9460 
B( 12-C , 30-H ) :   1.0105 B( 13-C , 14-C ) :   1.4229 B( 13-C , 19-C ) :   1.2955 
B( 14-C , 15-C ) :   1.3583 B( 14-C , 31-H ) :   0.9703 B( 15-C , 16-C ) :   1.4163 
B( 15-C , 32-H ) :   0.9734 B( 16-C , 17-C ) :   1.3032 B( 16-C , 33-H ) :   0.9756 
B( 17-C , 18-O ) :   1.0377 B( 17-C , 19-C ) :   1.4312 B( 18-O , 34-H ) :   0.9792 
B( 19-C , 35-H ) :   0.9552 

-------
TIMINGS
-------

Total SCF time: 0 days 1 hours 56 min 13 sec 

Total time                  ....    6973.033 sec
Sum of individual times     ....    6965.696 sec  ( 99.9%)

Fock matrix formation       ....    6950.606 sec  ( 99.7%)
Diagonalization             ....       1.656 sec  (  0.0%)
Density matrix formation    ....       0.202 sec  (  0.0%)
Population analysis         ....       0.529 sec  (  0.0%)
Initial guess               ....       6.008 sec  (  0.1%)
Orbital Transformation      ....       0.000 sec  (  0.0%)
Orbital Orthonormalization  ....       0.000 sec  (  0.0%)
DIIS solution               ....       2.806 sec  (  0.0%)
SOSCF solution              ....       2.486 sec  (  0.0%)

Maximum memory used throughout the entire SCF-calculation: 717.2 MB

------------------------------------------------------------------------------
                                ORCA  MP2 
------------------------------------------------------------------------------

Freezing NCore=48 chemical core electrons

-------------
RI-MP2 ENERGY
-------------
Dimension of the basis                    ...  828
Memory devoted to MP2                     ...  256 MB   
Data format for buffers                   ... DOUBLE
Compression type for matrix containers    ... UNCOMPRESSED
Overall scaling of the MP2 energy         ...   1.000e+00
Calculating two index integrals           ... done (    0.045 sec)
Cholesky decomposition of V**-1           ... done (    0.565 sec)

-----------------
RI-TRANSFORMATION (AUX index driven)
-----------------

Dimension of the orbital-basis         ... 828
Dimension of the aux-basis             ... 2141
Transformation of internal/external MOs...   24-  76 to   77- 827
Number Format for Storage              ... Double (8 Byte)
Integral mode                          ... Direct

First Phase: integral generation and transformation of MO indices
  Aux angular momentum 0               ... done (    5.225 sec)
  Aux angular momentum 1               ... done (    8.737 sec)
  Aux angular momentum 2               ... done (   11.056 sec)
  Aux angular momentum 3               ... done (    9.224 sec)
  Aux angular momentum 4               ... done (    2.874 sec)
Closing buffer VIA ( 0.63 GB; CompressionRatio= 1.00)
  Phase 1 completed in    37.303 sec
Second Phase: sorting and transformation of aux index

IA-Transformation
Memory available                       ... 158 MB 
Max. # MO pairs treated in a batch     ... 11    
# of internal orbitals                 ... 53
# batches for internal orbitals        ... 5
Closing buffer IAV ( 0.63 GB; CompressionRatio= 1.00)
(ia|v) transformation done in    25.100 sec

  Phase 2 completed in    25.108 sec
RI-Integral transformation completed in    62.439 sec
Opening buffers                              ... done

Starting loop over batches of integrals:

Operator 0  - window                       ... ( 24- 76)x( 77-827)
Operator 0  - Memory available             ...   256 MB
Operator 0  - Memory needed per MO         ...  12.3 MB
Operator 0  - Number of orbitals per batch ... 13
Operator 0  - Number of batches            ... 5

OPERATOR  0   PASS   0:  MOs    24 ...   36
  Reading integrals       ... ok
  Internal MO  26
  Internal MO  29
  Internal MO  32
  Internal MO  35
OPERATOR  0   PASS   1:  MOs    37 ...   49
  Reading integrals       ... ok
  Internal MO  38
  Internal MO  41
  Internal MO  44
  Internal MO  47
OPERATOR  0   PASS   2:  MOs    50 ...   62
  Reading integrals       ... ok
  Internal MO  50
  Internal MO  53
  Internal MO  56
  Internal MO  59
  Internal MO  62
OPERATOR  0   PASS   3:  MOs    63 ...   75
  Reading integrals       ... ok
  Internal MO  65
  Internal MO  68
  Internal MO  71
  Internal MO  74
OPERATOR  0   PASS   4:  MOs    76 ...   76
  Reading integrals       ... ok
Time spent in pair loops =    98.007 sec
Deleting buffer (Ka|jb)[aa] ...done

-----------------------------------------------
 RI-MP2 CORRELATION ENERGY:     -3.534210992 Eh
-----------------------------------------------


-------
TIMINGS
-------

Total time                :  161.156 sec
Integral trafo            :   62.460 sec ( 38.8%)
I/O of integrals          :    3.552 sec (  2.2%)
K(i,j) Operators          :   65.143 sec ( 40.4%)
T(i,j) pair energies      :    9.287 sec (  5.8%)
V-calculation             :    0.045 sec (  0.0%)
V**(-1/2)                 :    0.565 sec (  0.4%)
Gamma(ia|P)               :    0.000 sec (  0.0%)
Gamma-Trafo               :    0.000 sec (  0.0%)
D(virtual)                :    0.000 sec (  0.0%)
D(internal)               :    0.000 sec (  0.0%)
W(virtual)                :    0.000 sec (  0.0%)
W(internal)               :    0.000 sec (  0.0%)
L(virtual)                :    0.000 sec (  0.0%)
L(internal)               :    0.000 sec (  0.0%)
G(D)                      :    0.000 sec (  0.0%)
G(Z)                      :    0.000 sec (  0.0%)
Z-Vector Solution         :    0.000 sec (  0.0%)
3-Index Derivative        :    0.000 sec (  0.0%)
2-Index Derivative        :    0.000 sec (  0.0%)
Separable Gradient        :    0.000 sec (  0.0%)


---------------------------------------
MP2 TOTAL ENERGY:    -1274.306063510 Eh
---------------------------------------

Maximum memory used throughout the entire MP2-calculation: 302.9 MB

-------------------------   --------------------
FINAL SINGLE POINT ENERGY     -1274.306063510117
-------------------------   --------------------


                            ***************************************
                            *     ORCA property calculations      *
                            ***************************************


  WARNING: The energy has been calculated at the MP2 level but the densities
           used in the property calculations are still SCF densities
           MP2 response densities have not been calculated 
           use %mp2 Density relaxed end
           or  %mp2 Density unrelaxed end

                                    ---------------------
                                    Active property flags
                                    ---------------------
   (+) Dipole Moment


------------------------------------------------------------------------------
                       ORCA ELECTRIC PROPERTIES CALCULATION
------------------------------------------------------------------------------

Dipole Moment Calculation                       ... on
Quadrupole Moment Calculation                   ... off
Polarizability Calculation                      ... off
GBWName                                         ... qm_input.vacu.gbw
Electron density file                           ... qm_input.vacu.scfp
The origin for moment calculation is the CENTER OF MASS  = (-1.886353, -12.955818 -23.531017)

-------------
DIPOLE MOMENT
-------------
                                X             Y             Z
Electronic contribution:     14.78257      -9.44924      -4.21926
Nuclear contribution   :    -15.78491      10.09272       5.12263
                        -----------------------------------------
Total Dipole Moment    :     -1.00234       0.64348       0.90336
                        -----------------------------------------
Magnitude (a.u.)       :      1.49493
Magnitude (Debye)      :      3.79981



--------------------
Rotational spectrum 
--------------------
 
Rotational constants in cm-1:     0.010628     0.008626     0.005402 
Rotational constants in MHz :   318.620279   258.614072   161.946858 

 Dipole components along the rotational axes: 
x,y,z [a.u.] :     0.964124    -0.563009     0.994136 
x,y,z [Debye]:     2.450608    -1.431054     2.526893 

 

Timings for individual modules:

Sum of individual times         ...     7137.277 sec (= 118.955 min)
GTO integral calculation        ...        2.140 sec (=   0.036 min)   0.0 %
SCF iterations                  ...     6973.232 sec (= 116.221 min)  97.7 %
MP2 module                      ...      161.905 sec (=   2.698 min)   2.3 %
                             ****ORCA TERMINATED NORMALLY****
TOTAL RUN TIME: 0 days 1 hours 58 minutes 58 seconds 648 msec
