
                                        *****************
                                        * O   R   C   A *
                                        *****************

                                            #,                                       
                                            ###                                      
                                            ####                                     
                                            #####                                    
                                            ######                                   
                                           ########,                                 
                                     ,,################,,,,,                         
                               ,,#################################,,                 
                          ,,##########################################,,             
                       ,#########################################, ''#####,          
                    ,#############################################,,   '####,        
                  ,##################################################,,,,####,       
                ,###########''''           ''''###############################       
              ,#####''   ,,,,##########,,,,          '''####'''          '####       
            ,##' ,,,,###########################,,,                        '##       
           ' ,,###''''                  '''############,,,                           
         ,,##''                                '''############,,,,        ,,,,,,###''
      ,#''                                            '''#######################'''  
     '                                                          ''''####''''         
             ,#######,   #######,   ,#######,      ##                                
            ,#'     '#,  ##    ##  ,#'     '#,    #''#        ######   ,####,        
            ##       ##  ##   ,#'  ##            #'  '#       #        #'  '#        
            ##       ##  #######   ##           ,######,      #####,   #    #        
            '#,     ,#'  ##    ##  '#,     ,#' ,#      #,         ##   #,  ,#        
             '#######'   ##     ##  '#######'  #'      '#     #####' # '####'        



                  #######################################################
                  #                        -***-                        #
                  #          Department of theory and spectroscopy      #
                  #    Directorship and core code : Frank Neese         #
                  #        Max Planck Institute fuer Kohlenforschung    #
                  #                Kaiser Wilhelm Platz 1               #
                  #                 D-45470 Muelheim/Ruhr               #
                  #                      Germany                        #
                  #                                                     #
                  #                  All rights reserved                #
                  #                        -***-                        #
                  #######################################################


                         Program Version 5.0.0 -  RELEASE  -
                                (SVN: $Rev: 19529$)
                ($Date: 2021-06-28 11:36:33 +0200 (Mo, 28 Jun 2021) $)


 With contributions from (in alphabetic order):
   Daniel Aravena         : Magnetic Suceptibility
   Michael Atanasov       : Ab Initio Ligand Field Theory (pilot matlab implementation)
   Alexander A. Auer      : GIAO ZORA, VPT2 properties, NMR spectrum
   Ute Becker             : Parallelization
   Giovanni Bistoni       : ED, misc. LED, open-shell LED, HFLD
   Martin Brehm           : Molecular dynamics
   Dmytro Bykov           : SCF Hessian
   Vijay G. Chilkuri      : MRCI spin determinant printing, contributions to CSF-ICE
   Dipayan Datta          : RHF DLPNO-CCSD density
   Achintya Kumar Dutta   : EOM-CC, STEOM-CC
   Dmitry Ganyushin       : Spin-Orbit,Spin-Spin,Magnetic field MRCI
   Miquel Garcia          : C-PCM Hessian, Gaussian charge scheme
   Yang Guo               : DLPNO-NEVPT2, F12-NEVPT2, CIM, IAO-localization
   Andreas Hansen         : Spin unrestricted coupled pair/coupled cluster methods
   Benjamin Helmich-Paris : MC-RPA, TRAH-SCF, COSX integrals
   Lee Huntington         : MR-EOM, pCC
   Robert Izsak           : Overlap fitted RIJCOSX, COSX-SCS-MP3, EOM
   Marcus Kettner         : VPT2
   Christian Kollmar      : KDIIS, OOCD, Brueckner-CCSD(T), CCSD density, CASPT2, CASPT2-K
   Simone Kossmann        : Meta GGA functionals, TD-DFT gradient, OOMP2, MP2 Hessian
   Martin Krupicka        : Initial AUTO-CI
   Lucas Lang             : DCDCAS
   Marvin Lechner         : AUTO-CI (C++ implementation), FIC-MRCC
   Dagmar Lenk            : GEPOL surface, SMD
   Dimitrios Liakos       : Extrapolation schemes; Compound Job, initial MDCI parallelization
   Dimitrios Manganas     : Further ROCIS development; embedding schemes
   Dimitrios Pantazis     : SARC Basis sets
   Anastasios Papadopoulos: AUTO-CI, single reference methods and gradients
   Taras Petrenko         : DFT Hessian,TD-DFT gradient, ASA, ECA, R-Raman, ABS, FL, XAS/XES, NRVS
   Peter Pinski           : DLPNO-MP2, DLPNO-MP2 Gradient
   Christoph Reimann      : Effective Core Potentials
   Marius Retegan         : Local ZFS, SOC
   Christoph Riplinger    : Optimizer, TS searches, QM/MM, DLPNO-CCSD(T), (RO)-DLPNO pert. Triples
   Tobias Risthaus        : Range-separated hybrids, TD-DFT gradient, RPA, STAB
   Michael Roemelt        : Original ROCIS implementation
   Masaaki Saitow         : Open-shell DLPNO-CCSD energy and density
   Barbara Sandhoefer     : DKH picture change effects
   Avijit Sen             : IP-ROCIS
   Kantharuban Sivalingam : CASSCF convergence, NEVPT2, FIC-MRCI
   Bernardo de Souza      : ESD, SOC TD-DFT
   Georgi Stoychev        : AutoAux, RI-MP2 NMR
   Willem Van den Heuvel  : Paramagnetic NMR
   Boris Wezisla          : Elementary symmetry handling
   Frank Wennmohs         : Technical directorship


 We gratefully acknowledge several colleagues who have allowed us to
 interface, adapt or use parts of their codes:
   Stefan Grimme, W. Hujo, H. Kruse, P. Pracht,  : VdW corrections, initial TS optimization,
                  C. Bannwarth, S. Ehlert          DFT functionals, gCP, sTDA/sTD-DF
   Ed Valeev, F. Pavosevic, A. Kumar             : LibInt (2-el integral package), F12 methods
   Garnet Chan, S. Sharma, J. Yang, R. Olivares  : DMRG
   Ulf Ekstrom                                   : XCFun DFT Library
   Mihaly Kallay                                 : mrcc  (arbitrary order and MRCC methods)
   Jiri Pittner, Ondrej Demel                    : Mk-CCSD
   Frank Weinhold                                : gennbo (NPA and NBO analysis)
   Christopher J. Cramer and Donald G. Truhlar   : smd solvation model
   Lars Goerigk                                  : TD-DFT with DH, B97 family of functionals
   V. Asgeirsson, H. Jonsson                     : NEB implementation
   FAccTs GmbH                                   : IRC, NEB, NEB-TS, DLPNO-Multilevel, CI-OPT
                                                   MM, QMMM, 2- and 3-layer-ONIOM, Crystal-QMMM,
                                                   LR-CPCM, SF, NACMEs, symmetry and pop. for TD-DFT,
                                                   nearIR, NL-DFT gradient (VV10), updates on ESD,
                                                   ML-optimized integration grids
   S Lehtola, MJT Oliveira, MAL Marques          : LibXC Library
   Liviu Ungur et al                             : ANISO software


 Your calculation uses the libint2 library for the computation of 2-el integrals
 For citations please refer to: http://libint.valeyev.net

 Your ORCA version has been built with support for libXC version: 5.1.0
 For citations please refer to: https://tddft.org/programs/libxc/

 This ORCA versions uses:
   CBLAS   interface :  Fast vector & matrix operations
   LAPACKE interface :  Fast linear algebra routines
   SCALAPACK package :  Parallel linear algebra routines
   Shared memory     :  Shared parallel matrices
   BLAS/LAPACK       :  OpenBLAS 0.3.15  USE64BITINT DYNAMIC_ARCH NO_AFFINITY SkylakeX SINGLE_THREADED
        Core in use  :  SkylakeX
   Copyright (c) 2011-2014, The OpenBLAS Project


================================================================================

----- Orbital basis set information -----
Your calculation utilizes the basis: cc-pVTZ 
       H, B-Ne : Obtained from the ccRepo (grant-hill.group.shef.ac.uk/ccrepo) Feb. 2017
                 T. H. Dunning, Jr., J. Chem. Phys. 90, 1007 (1989)
            He : Obtained from the ccRepo (grant-hill.group.shef.ac.uk/ccrepo) Feb. 2017
                 D. E. Woon, T. H. Dunning, Jr., J. Chem. Phys. 100, 2975 (1994)
  Li-Be, Na-Mg : Obtained from the ccRepo (grant-hill.group.shef.ac.uk/ccrepo) Feb. 2017
                 B. P. Prascher, D. E. Woon, K. A. Peterson, T. H. Dunning, Jr., A. K. Wilson, Theor. Chem. Acc. 128, 69 (2011)
         Al-Ar : Obtained from the ccRepo (grant-hill.group.shef.ac.uk/ccrepo) Feb. 2017
                 D. E. Woon, T. H. Dunning, Jr., J. Chem. Phys. 98, 1358 (1993)
            Ca : Obtained from the Peterson Research Group Website (tyr0.chem.wsu.edu/~kipeters) Feb. 2017
                 J. Koput, K. A. Peterson, J. Phys. Chem. 106, 9595 (2002)
         Sc-Zn : Obtained from the ccRepo (grant-hill.group.shef.ac.uk/ccrepo) Feb. 2017
                 N. B. Balabanov, K. A. Peterson, J. Chem. Phys. 123, 064107 (2005)
                 N. B. Balabanov, K. A. Peterson, J. Chem. Phys. 125, 074110 (2006)
         Ga-Kr : Obtained from the ccRepo (grant-hill.group.shef.ac.uk/ccrepo) Feb. 2017
                 A. K. Wilson, D. E. Woon, K. A. Peterson, T. H. Dunning, Jr., J. Chem. Phys. 110, 7667 (1999)
             Y : Obtained from the ccRepo (grant-hill.group.shef.ac.uk/ccrepo) Feb. 2017
                 K. A. Peterson, D. Figgen, M. Dolg, H. Stoll, J. Chem. Phys. 126, 124101 (2007)
        Ag, Au : Obtained from the Peterson Research Group Website (tyr0.chem.wsu.edu/~kipeters) Feb. 2017
                 K. A. Peterson, C. Puzzarini, Theor. Chem. Acc. 114, 283 (2005)

----- AuxC basis set information -----
Your calculation utilizes the auxiliary basis: cc-pVTZ/C 
  Obtained from the EMSL Basis Set Exchange (bse.pnl.gov) Feb. 2017
  H-He, B-F, Al-Ar, Ga-Kr : F. Weigend, A. Kohn, C. Hattig, J. Chem. Phys. 116, 3175 (2002)
             Li-Be, Na-Mg : C. Haettig, Phys. Chem. Chem. Phys. 7, 59 (2005)
                       Ne : C. Haettig, Phys. Chem. Chem. Phys. 7, 59 (2005)
                            F. Weigend, A. Kohn, C. Hattig, J. Chem. Phys. 116, 3175 (2002)
                    Sc-Zn : J. G. Hill, J. A. Platts, J. Chem. Phys. 128, 044104 (2008)

================================================================================
                                        WARNINGS
                       Please study these warnings very carefully!
================================================================================


WARNING: No MP2 level density has been requested!
         To caclulate MP2 level properties use
         %mp2 Density relaxed end
         or
         %mp2 Density unrelaxed end

WARNING: Post HF methods need fully converged wavefunctions
  ===> : Setting SCFConvForced true
         You can overwrite this default with %scf ConvForced false 


INFO   : the flag for use of the SHARK integral package has been found!

================================================================================
                                       INPUT FILE
================================================================================
NAME = qm_input.vacu
|  1> ! RI-MP2 cc-pVTZ cc-pVTZ/c TightSCF KeepDens NoKeepInts
|  2> 
|  3> *xyz  0  1
|  4>     C    -8.5361644    0.8930995    0.3475965
|  5>     C    -8.9864118    1.2754924    1.8087314
|  6>     O    -8.1979022    2.4306804    2.2476156
|  7>     C    -6.9405243    2.4579492    2.7317064
|  8>     O    -6.2289274    1.4419750    2.6608879
|  9>     C    -6.3952483    3.6990728    3.4323901
| 10>     C    -7.0354342    4.8192171    3.7385175
| 11>     C    -8.4764018    5.0121147    3.4595509
| 12>     N    -6.4231652    5.9725681    4.2942838
| 13>     C    -5.0739236    6.0326750    4.3913689
| 14>     S    -4.2804772    7.3593674    4.8809080
| 15>     N    -4.3061049    4.8491671    4.2182982
| 16>     C    -4.9452741    3.5649179    3.8943042
| 17>     C    -4.7854245    2.6335244    5.1465653
| 18>     C    -4.2638138    1.3378860    4.9929215
| 19>     C    -4.0589337    0.4262015    6.0949232
| 20>     C    -4.3403238    0.9695085    7.4146790
| 21>     C    -4.9648804    2.2728294    7.5588563
| 22>     O    -5.2899720    2.7907897    8.7619623
| 23>     C    -5.1895725    3.0405058    6.4170473
| 24>     H    -7.4421324    0.9138371    0.2710381
| 25>     H    -8.9427219    1.6765243   -0.3036697
| 26>     H    -8.8898447   -0.1029249    0.0542791
| 27>     H   -10.0689446    1.4482252    1.7703167
| 28>     H    -8.8370815    0.4578395    2.5245077
| 29>     H    -8.7908974    6.0629614    3.4601843
| 30>     H    -9.1371459    4.4282561    4.1120201
| 31>     H    -8.7246208    4.7017925    2.4371630
| 32>     H    -6.9403655    6.8317699    4.4365599
| 33>     H    -3.2937239    4.8534908    4.2504709
| 34>     H    -4.3387666    3.0707317    3.1254620
| 35>     H    -4.0508111    0.9084059    4.0184613
| 36>     H    -3.6912465   -0.5789100    5.9106598
| 37>     H    -4.0698396    0.5621932    8.3843844
| 38>     H    -5.2289707    3.7499380    8.6101653
| 39>     H    -5.5878716    4.0477694    6.4956214
| 40> *
| 41> 
| 42>                          ****END OF INPUT****
================================================================================

                       ****************************
                       * Single Point Calculation *
                       ****************************

---------------------------------
CARTESIAN COORDINATES (ANGSTROEM)
---------------------------------
  C     -8.536164    0.893099    0.347596
  C     -8.986412    1.275492    1.808731
  O     -8.197902    2.430680    2.247616
  C     -6.940524    2.457949    2.731706
  O     -6.228927    1.441975    2.660888
  C     -6.395248    3.699073    3.432390
  C     -7.035434    4.819217    3.738517
  C     -8.476402    5.012115    3.459551
  N     -6.423165    5.972568    4.294284
  C     -5.073924    6.032675    4.391369
  S     -4.280477    7.359367    4.880908
  N     -4.306105    4.849167    4.218298
  C     -4.945274    3.564918    3.894304
  C     -4.785425    2.633524    5.146565
  C     -4.263814    1.337886    4.992921
  C     -4.058934    0.426201    6.094923
  C     -4.340324    0.969508    7.414679
  C     -4.964880    2.272829    7.558856
  O     -5.289972    2.790790    8.761962
  C     -5.189572    3.040506    6.417047
  H     -7.442132    0.913837    0.271038
  H     -8.942722    1.676524   -0.303670
  H     -8.889845   -0.102925    0.054279
  H    -10.068945    1.448225    1.770317
  H     -8.837082    0.457839    2.524508
  H     -8.790897    6.062961    3.460184
  H     -9.137146    4.428256    4.112020
  H     -8.724621    4.701792    2.437163
  H     -6.940366    6.831770    4.436560
  H     -3.293724    4.853491    4.250471
  H     -4.338767    3.070732    3.125462
  H     -4.050811    0.908406    4.018461
  H     -3.691247   -0.578910    5.910660
  H     -4.069840    0.562193    8.384384
  H     -5.228971    3.749938    8.610165
  H     -5.587872    4.047769    6.495621

----------------------------
CARTESIAN COORDINATES (A.U.)
----------------------------
  NO LB      ZA    FRAG     MASS         X           Y           Z
   0 C     6.0000    0    12.011  -16.131013    1.687713    0.656862
   1 C     6.0000    0    12.011  -16.981857    2.410331    3.418007
   2 O     8.0000    0    15.999  -15.491790    4.593320    4.247378
   3 C     6.0000    0    12.011  -13.115690    4.644851    5.162177
   4 O     8.0000    0    15.999  -11.770967    2.724938    5.028349
   5 C     6.0000    0    12.011  -12.085268    6.990235    6.486277
   6 C     6.0000    0    12.011  -13.295044    9.107000    7.064774
   7 C     6.0000    0    12.011  -16.018078    9.471524    6.537604
   8 N     7.0000    0    14.007  -12.138023   11.286518    8.115020
   9 C     6.0000    0    12.011   -9.588326   11.400104    8.298485
  10 S    16.0000    0    32.060   -8.088930   13.907189    9.223579
  11 N     7.0000    0    14.007   -8.137359    9.163598    7.971428
  12 C     6.0000    0    12.011   -9.345214    6.736719    7.359168
  13 C     6.0000    0    12.011   -9.043142    4.976640    9.725599
  14 C     6.0000    0    12.011   -8.057440    2.528238    9.435254
  15 C     6.0000    0    12.011   -7.670273    0.805404   11.517736
  16 C     6.0000    0    12.011   -8.202023    1.832106   14.011713
  17 C     6.0000    0    12.011   -9.382264    4.295025   14.284168
  18 O     8.0000    0    15.999   -9.996598    5.273828   16.557709
  19 C     6.0000    0    12.011   -9.806871    5.745723   12.126462
  20 H     1.0000    0     1.008  -14.063592    1.726902    0.512188
  21 H     1.0000    0     1.008  -16.899295    3.168172   -0.573853
  22 H     1.0000    0     1.008  -16.799372   -0.194500    0.102573
  23 H     1.0000    0     1.008  -19.027548    2.736749    3.345414
  24 H     1.0000    0     1.008  -16.699664    0.865191    4.770628
  25 H     1.0000    0     1.008  -16.612389   11.457337    6.538801
  26 H     1.0000    0     1.008  -17.266703    8.368191    7.770592
  27 H     1.0000    0     1.008  -16.487144    8.885100    4.605571
  28 H     1.0000    0     1.008  -13.115390   12.910174    8.383883
  29 H     1.0000    0     1.008   -6.224236    9.171768    8.032226
  30 H     1.0000    0     1.008   -8.199081    5.802842    5.906267
  31 H     1.0000    0     1.008   -7.654924    1.716638    7.593791
  32 H     1.0000    0     1.008   -6.975445   -1.093981   11.169528
  33 H     1.0000    0     1.008   -7.690882    1.062391   15.844190
  34 H     1.0000    0     1.008   -9.881323    7.086356   16.270854
  35 H     1.0000    0     1.008  -10.559547    7.649176   12.274946

--------------------------------
INTERNAL COORDINATES (ANGSTROEM)
--------------------------------
 C      0   0   0     0.000000000000     0.00000000     0.00000000
 C      1   0   0     1.576027362445     0.00000000     0.00000000
 O      2   1   0     1.465887460089   108.36715081     0.00000000
 C      3   2   1     1.347622600548   128.71007807   279.77028422
 O      4   3   2     1.242412565575   119.82658751    11.03112620
 C      4   3   2     1.525998477751   120.98362295   194.15369419
 C      6   4   3     1.325999707546   128.35600246     4.83083647
 C      7   6   4     1.480344376235   122.44727536     2.10226355
 N      7   6   4     1.419143416917   124.65660340   185.47598840
 C      9   7   6     1.354064714569   119.60737829     8.13794288
 S     10   9   7     1.621517327789   123.06194961   174.07077819
 N     10   9   7     1.421333870922   119.51114403   346.17440044
 C     12  10   9     1.470647947663   121.27708411     1.90287892
 C     13  12  10     1.568822363761   107.35583620   248.62461401
 C     14  13  12     1.405120280683   119.86606061   231.13160984
 C     15  14  13     1.444836402407   123.44045645   178.73247605
 C     16  15  14     1.454688370841   115.39599154   355.73682077
 C     17  16  15     1.452412960840   120.55651108     8.42451677
 O     18  17  16     1.349604189384   122.44324241   177.37769620
 C     14  13  12     1.393949058673   121.64398182    53.24399641
 H      1   2   3     1.096903484217   110.18527694    44.14199302
 H      1   2   3     1.096900670673   105.73997208   287.26973043
 H      1   2   3     1.096899930325   112.09319510   165.29321473
 H      2   1   3     1.096899982883   106.71928943   123.97178601
 H      2   1   3     1.096900868364   112.65732839   239.82580404
 H      8   7   6     1.096898660094   113.81678315   198.71762920
 H      8   7   6     1.096900035294   113.88471852    71.97719964
 H      8   7   6     1.096899976224   111.04207303   313.04064541
 H      9   7   6     1.012899981279   121.60767932   174.63953250
 H     12  10   9     1.012901311169   122.17523128   177.83427561
 H     13  12  10     1.096900030234   107.91060382   137.49355043
 H     15  14  13     1.085999994423   122.38330651   353.88987042
 H     16  15  14     1.086000002328   120.17182535   177.41915307
 H     17  16  15     1.086000008680   128.45006542   194.04081960
 H     19  18  17     0.972999973897   102.95271885   151.36862844
 H     20  14  13     1.086000010192   116.30010273   357.96085138

---------------------------
INTERNAL COORDINATES (A.U.)
---------------------------
 C      0   0   0     0.000000000000     0.00000000     0.00000000
 C      1   0   0     2.978260094587     0.00000000     0.00000000
 O      2   1   0     2.770125842717   108.36715081     0.00000000
 C      3   2   1     2.546637646918   128.71007807   279.77028422
 O      4   3   2     2.347819494278   119.82658751    11.03112620
 C      4   3   2     2.883719203730   120.98362295   194.15369419
 C      6   4   3     2.505776300922   128.35600246     4.83083647
 C      7   6   4     2.797445454975   122.44727536     2.10226355
 N      7   6   4     2.681792402730   124.65660340   185.47598840
 C      9   7   6     2.558811478141   119.60737829     8.13794288
 S     10   9   7     3.064223670929   123.06194961   174.07077819
 N     10   9   7     2.685931760909   119.51114403   346.17440044
 C     12  10   9     2.779121860496   121.27708411     1.90287892
 C     13  12  10     2.964644620279   107.35583620   248.62461401
 C     14  13  12     2.655292515710   119.86606061   231.13160984
 C     15  14  13     2.730345108868   123.44045645   178.73247605
 C     16  15  14     2.748962631090   115.39599154   355.73682077
 C     17  16  15     2.744662729345   120.55651108     8.42451677
 O     18  17  16     2.550382307128   122.44324241   177.37769620
 C     14  13  12     2.634181965528   121.64398182    53.24399641
 H      1   2   3     2.072847180515   110.18527694    44.14199302
 H      1   2   3     2.072841863687   105.73997208   287.26973043
 H      1   2   3     2.072840464631   112.09319510   165.29321473
 H      2   1   3     2.072840563951   106.71928943   123.97178601
 H      2   1   3     2.072842237269   112.65732839   239.82580404
 H      8   7   6     2.072838064243   113.81678315   198.71762920
 H      8   7   6     2.072840662994   113.88471852    71.97719964
 H      8   7   6     2.072840551368   111.04207303   313.04064541
 H      9   7   6     1.914103565671   121.60767932   174.63953250
 H     12  10   9     1.914106078799   122.17523128   177.83427561
 H     13  12  10     2.072840653432   107.91060382   137.49355043
 H     15  14  13     2.052242570900   122.38330651   353.88987042
 H     16  15  14     2.052242585837   120.17182535   177.41915307
 H     17  16  15     2.052242597841   128.45006542   194.04081960
 H     19  18  17     1.838703478978   102.95271885   151.36862844
 H     20  14  13     2.052242600698   116.30010273   357.96085138

---------------------
BASIS SET INFORMATION
---------------------
There are 5 groups of distinct atoms

 Group   1 Type C   : 18s5p2d1f contracted to 4s3p2d1f pattern {8811/311/11/1}
 Group   2 Type O   : 18s5p2d1f contracted to 4s3p2d1f pattern {8811/311/11/1}
 Group   3 Type N   : 18s5p2d1f contracted to 4s3p2d1f pattern {8811/311/11/1}
 Group   4 Type S   : 41s16p2d1f contracted to 5s4p2d1f pattern {13131311/7711/11/1}
 Group   5 Type H   : 5s2p1d contracted to 3s2p1d pattern {311/11/1}

Atom   0C    basis set group =>   1
Atom   1C    basis set group =>   1
Atom   2O    basis set group =>   2
Atom   3C    basis set group =>   1
Atom   4O    basis set group =>   2
Atom   5C    basis set group =>   1
Atom   6C    basis set group =>   1
Atom   7C    basis set group =>   1
Atom   8N    basis set group =>   3
Atom   9C    basis set group =>   1
Atom  10S    basis set group =>   4
Atom  11N    basis set group =>   3
Atom  12C    basis set group =>   1
Atom  13C    basis set group =>   1
Atom  14C    basis set group =>   1
Atom  15C    basis set group =>   1
Atom  16C    basis set group =>   1
Atom  17C    basis set group =>   1
Atom  18O    basis set group =>   2
Atom  19C    basis set group =>   1
Atom  20H    basis set group =>   5
Atom  21H    basis set group =>   5
Atom  22H    basis set group =>   5
Atom  23H    basis set group =>   5
Atom  24H    basis set group =>   5
Atom  25H    basis set group =>   5
Atom  26H    basis set group =>   5
Atom  27H    basis set group =>   5
Atom  28H    basis set group =>   5
Atom  29H    basis set group =>   5
Atom  30H    basis set group =>   5
Atom  31H    basis set group =>   5
Atom  32H    basis set group =>   5
Atom  33H    basis set group =>   5
Atom  34H    basis set group =>   5
Atom  35H    basis set group =>   5
---------------------------------
AUXILIARY/C BASIS SET INFORMATION
---------------------------------
There are 5 groups of distinct atoms

 Group   1 Type C   : 8s6p5d3f1g contracted to 8s6p5d3f1g pattern {11111111/111111/11111/111/1}
 Group   2 Type O   : 8s6p5d3f1g contracted to 8s6p5d3f1g pattern {11111111/111111/11111/111/1}
 Group   3 Type N   : 8s6p5d3f1g contracted to 8s6p5d3f1g pattern {11111111/111111/11111/111/1}
 Group   4 Type S   : 10s8p7d5f2g contracted to 10s8p7d5f2g pattern {1111111111/11111111/1111111/11111/11}
 Group   5 Type H   : 4s3p2d1f contracted to 4s3p2d1f pattern {1111/111/11/1}

Atom   0C    basis set group =>   1
Atom   1C    basis set group =>   1
Atom   2O    basis set group =>   2
Atom   3C    basis set group =>   1
Atom   4O    basis set group =>   2
Atom   5C    basis set group =>   1
Atom   6C    basis set group =>   1
Atom   7C    basis set group =>   1
Atom   8N    basis set group =>   3
Atom   9C    basis set group =>   1
Atom  10S    basis set group =>   4
Atom  11N    basis set group =>   3
Atom  12C    basis set group =>   1
Atom  13C    basis set group =>   1
Atom  14C    basis set group =>   1
Atom  15C    basis set group =>   1
Atom  16C    basis set group =>   1
Atom  17C    basis set group =>   1
Atom  18O    basis set group =>   2
Atom  19C    basis set group =>   1
Atom  20H    basis set group =>   5
Atom  21H    basis set group =>   5
Atom  22H    basis set group =>   5
Atom  23H    basis set group =>   5
Atom  24H    basis set group =>   5
Atom  25H    basis set group =>   5
Atom  26H    basis set group =>   5
Atom  27H    basis set group =>   5
Atom  28H    basis set group =>   5
Atom  29H    basis set group =>   5
Atom  30H    basis set group =>   5
Atom  31H    basis set group =>   5
Atom  32H    basis set group =>   5
Atom  33H    basis set group =>   5
Atom  34H    basis set group =>   5
Atom  35H    basis set group =>   5
------------------------------------------------------------------------------
                           ORCA GTO INTEGRAL CALCULATION
------------------------------------------------------------------------------
------------------------------------------------------------------------------
                   ___                                                        
                  /   \      - P O W E R E D   B Y -                         
                 /     \                                                     
                 |  |  |   _    _      __       _____    __    __             
                 |  |  |  | |  | |    /  \     |  _  \  |  |  /  |          
                  \  \/   | |  | |   /    \    | | | |  |  | /  /          
                 / \  \   | |__| |  /  /\  \   | |_| |  |  |/  /          
                |  |  |   |  __  | /  /__\  \  |    /   |      \           
                |  |  |   | |  | | |   __   |  |    \   |  |\   \          
                \     /   | |  | | |  |  |  |  | |\  \  |  | \   \       
                 \___/    |_|  |_| |__|  |__|  |_| \__\ |__|  \__/        
                                                                              
                      - O R C A' S   B I G   F R I E N D -                    
                                      &                                       
                       - I N T E G R A L  F E E D E R -                       
                                                                              
 v1 FN, 2020, v2 2021                                                         
------------------------------------------------------------------------------


Reading SHARK input file qm_input.vacu.SHARKINP.tmp ... ok
----------------------
SHARK INTEGRAL PACKAGE
----------------------

Number of atoms                             ...     36
Number of basis functions                   ...    828
Number of shells                            ...    298
Maximum angular momentum                    ...      3
Integral batch strategy                     ... SHARK/LIBINT Hybrid
RI-J (if used) integral strategy            ... SPLIT-RIJ (Revised 2003 algorithm where possible)
Printlevel                                  ...      1
Contraction scheme used                     ... SEGMENTED contraction
Coulomb Range Separation                    ... NOT USED
Exchange Range Separation                   ... NOT USED
Finite Nucleus Model                        ... NOT USED
Auxiliary Coulomb fitting basis             ... NOT available
Auxiliary J/K fitting basis                 ... NOT available
Auxiliary Correlation fitting basis         ... AVAILABLE
   # of basis functions in Aux-C            ...   2141
   # of shells in Aux-C                     ...    629
   Maximum angular momentum in Aux-C        ...      4
Auxiliary 'external' fitting basis          ... NOT available
Integral threshold                          ...     2.500000e-11
Primitive cut-off                           ...     2.500000e-12
Primitive pair pre-selection threshold      ...     2.500000e-12

Calculating pre-screening integrals         ... done (  0.6 sec) Dimension = 298
Organizing shell pair data                  ... done (  0.4 sec)
Shell pair information
Total number of shell pairs                 ...     44551
Shell pairs after pre-screening             ...     31870
Total number of primitive shell pairs       ...    234348
Primitive shell pairs kept                  ...     92108
          la=0 lb=0:   6385 shell pairs
          la=1 lb=0:   8893 shell pairs
          la=1 lb=1:   3146 shell pairs
          la=2 lb=0:   5063 shell pairs
          la=2 lb=1:   3481 shell pairs
          la=2 lb=2:    982 shell pairs
          la=3 lb=0:   1835 shell pairs
          la=3 lb=1:   1255 shell pairs
          la=3 lb=2:    693 shell pairs
          la=3 lb=3:    137 shell pairs

Calculating one electron integrals          ... done (  0.4 sec)
Calculating RI/C V-Matrix + Cholesky decomp.... done (  0.4 sec)
Calculating Nuclear repulsion               ... done (  0.0 sec) ENN=   1674.598355533343 Eh

SHARK setup successfully completed in   1.9 seconds

Maximum memory used throughout the entire GTOINT-calculation: 473.1 MB
-------------------------------------------------------------------------------
                                 ORCA SCF
-------------------------------------------------------------------------------

------------
SCF SETTINGS
------------
Hamiltonian:
 Ab initio Hamiltonian  Method          .... Hartree-Fock(GTOs)


General Settings:
 Integral files         IntName         .... qm_input.vacu
 Hartree-Fock type      HFTyp           .... RHF
 Total Charge           Charge          ....    0
 Multiplicity           Mult            ....    1
 Number of Electrons    NEL             ....  154
 Basis Dimension        Dim             ....  828
 Nuclear Repulsion      ENuc            ....   1674.5983555333 Eh

Convergence Acceleration:
 DIIS                   CNVDIIS         .... on
   Start iteration      DIISMaxIt       ....    12
   Startup error        DIISStart       ....  0.200000
   # of expansion vecs  DIISMaxEq       ....     5
   Bias factor          DIISBfac        ....   1.050
   Max. coefficient     DIISMaxC        ....  10.000
 Trust-Rad. Augm. Hess. CNVTRAH         .... auto
   Auto Start mean grad. ratio tolernc. ....  1.125000
   Auto Start start iteration           ....    20
   Auto Start num. interpolation iter.  ....    10
   Max. Number of Micro iterations      ....    16
   Max. Number of Macro iterations      .... Maxiter - #DIIS iter
   Number of Davidson start vectors     ....     2
   Converg. threshold I  (grad. norm)   ....   1.000e-05
   Converg. threshold II (energy diff.) ....   1.000e-08
   Grad. Scal. Fac. for Micro threshold ....   0.100
   Minimum threshold for Micro iter.    ....   0.010
   NR start threshold (gradient norm)   ....   0.001
   Initial trust radius                 ....   0.400
   Minimum AH scaling param. (alpha)    ....   1.000
   Maximum AH scaling param. (alpha)    .... 1000.000
   Orbital update algorithm             .... Taylor
   White noise on init. David. guess    .... on
   Maximum white noise                  ....   0.010
   Quad. conv. algorithm                .... NR
 SOSCF                  CNVSOSCF        .... on
   Start iteration      SOSCFMaxIt      ....   150
   Startup grad/error   SOSCFStart      ....  0.003300
 Level Shifting         CNVShift        .... on
   Level shift para.    LevelShift      ....    0.2500
   Turn off err/grad.   ShiftErr        ....    0.0010
 Zerner damping         CNVZerner       .... off
 Static damping         CNVDamp         .... on
   Fraction old density DampFac         ....    0.7000
   Max. Damping (<1)    DampMax         ....    0.9800
   Min. Damping (>=0)   DampMin         ....    0.0000
   Turn off err/grad.   DampErr         ....    0.1000
 Fernandez-Rico         CNVRico         .... off

SCF Procedure:
 Maximum # iterations   MaxIter         ....   125
 SCF integral mode      SCFMode         .... Direct
   Integral package                     .... SHARK and LIBINT hybrid scheme
 Reset frequency        DirectResetFreq ....    20
 Integral Threshold     Thresh          ....  2.500e-11 Eh
 Primitive CutOff       TCut            ....  2.500e-12 Eh

Convergence Tolerance:
 Convergence Check Mode ConvCheckMode   .... Total+1el-Energy
 Convergence forced     ConvForced      .... 1
 Energy Change          TolE            ....  1.000e-08 Eh
 1-El. energy change                    ....  1.000e-05 Eh
 Orbital Gradient       TolG            ....  1.000e-05
 Orbital Rotation angle TolX            ....  1.000e-05
 DIIS Error             TolErr          ....  5.000e-07


Diagonalization of the overlap matrix:
Smallest eigenvalue                        ... 4.236e-05
Time for diagonalization                   ...    0.154 sec
Threshold for overlap eigenvalues          ... 1.000e-08
Number of eigenvalues below threshold      ... 0
Time for construction of square roots      ...    0.067 sec
Total time needed                          ...    0.224 sec

Time for model grid setup =    1.631 sec

------------------------------
INITIAL GUESS: MODEL POTENTIAL
------------------------------
Loading Hartree-Fock densities                     ... done
Calculating cut-offs                               ... done
Initializing the effective Hamiltonian             ... done
Setting up the integral package (SHARK)            ... done
Starting the Coulomb interaction                   ... done (   4.4 sec)
Reading the grid                                   ... done
Mapping shells                                     ... done
Starting the XC term evaluation                    ... done (   1.6 sec)
Transforming the Hamiltonian                       ... done (   0.1 sec)
Diagonalizing the Hamiltonian                      ... done (   0.2 sec)
Back transforming the eigenvectors                 ... done (   0.0 sec)
Now organizing SCF variables                       ... done
                      ------------------
                      INITIAL GUESS DONE (   7.9 sec)
                      ------------------
--------------
SCF ITERATIONS
--------------
ITER       Energy         Delta-E        Max-DP      RMS-DP      [F,P]     Damp
               ***  Starting incremental Fock matrix formation  ***
  0  -1269.9587719900   0.000000000000 0.06370678  0.00045973  0.3219656 0.7000
  1  -1270.2263983555  -0.267626365569 0.05901499  0.00037289  0.1880988 0.7000
                               ***Turning on DIIS***
  2  -1270.3928233732  -0.166425017714 0.03463195  0.00024585  0.1101249 0.7000
  3  -1272.4906617275  -2.097838354216 0.06317243  0.00051552  0.0832794 0.0000
  4  -1270.7037411617   1.786920565712 0.01974641  0.00010704  0.0076932 0.0000
  5  -1270.7635847248  -0.059843563076 0.00591413  0.00005355  0.0046981 0.0000
  6  -1270.7391604417   0.024424283144 0.00176902  0.00002598  0.0034838 0.0000
                      *** Initiating the SOSCF procedure ***
                           *** Shutting down DIIS ***
                      *** Re-Reading the Fockian *** 
                      *** Removing any level shift *** 
ITER      Energy       Delta-E        Grad      Rot      Max-DP    RMS-DP
  7  -1270.75267505  -0.0135146043  0.000876  0.000876  0.001051  0.000014
               *** Restarting incremental Fock matrix formation ***
  8  -1270.75442429  -0.0017492456  0.000446  0.001088  0.000538  0.000007
  9  -1270.75443662  -0.0000123265  0.000187  0.001124  0.000608  0.000008
 10  -1270.75444149  -0.0000048695  0.000084  0.000135  0.000157  0.000002
 11  -1270.75444193  -0.0000004438  0.000028  0.000058  0.000056  0.000001
 12  -1270.75444203  -0.0000001003  0.000009  0.000038  0.000030  0.000000
 13  -1270.75444205  -0.0000000201  0.000005  0.000025  0.000018  0.000000
                  ***Gradient check signals convergence***
              ***Rediagonalizing the Fockian in SOSCF/NRSCF***

               *****************************************************
               *                     SUCCESS                       *
               *           SCF CONVERGED AFTER  14 CYCLES          *
               *****************************************************


----------------
TOTAL SCF ENERGY
----------------

Total Energy       :        -1270.75444206 Eh          -34578.98633 eV

Components:
Nuclear Repulsion  :         1674.59835553 Eh           45568.13789 eV
Electronic Energy  :        -2945.35279759 Eh          -80147.12422 eV
One Electron Energy:        -5070.64126265 Eh         -137979.16348 eV
Two Electron Energy:         2125.28846506 Eh           57832.03926 eV

Virial components:
Potential Energy   :        -2539.29354190 Eh          -69097.69013 eV
Kinetic Energy     :         1268.53909984 Eh           34518.70380 eV
Virial Ratio       :            2.00174637


---------------
SCF CONVERGENCE
---------------

  Last Energy change         ...   -6.1586e-09  Tolerance :   1.0000e-08
  Last MAX-Density change    ...    4.2617e-06  Tolerance :   1.0000e-07
  Last RMS-Density change    ...    5.1373e-08  Tolerance :   5.0000e-09
  Last Orbital Gradient      ...    1.9614e-06  Tolerance :   1.0000e-05
  Last Orbital Rotation      ...    5.3274e-06  Tolerance :   1.0000e-05

             **** THE GBW FILE WAS UPDATED (qm_input.vacu.gbw) ****
             **** DENSITY qm_input.vacu.scfp WAS UPDATED ****
             **** ENERGY FILE WAS UPDATED (qm_input.vacu.en.tmp) ****
             **** THE GBW FILE WAS UPDATED (qm_input.vacu.gbw) ****
             **** DENSITY qm_input.vacu.scfp WAS UPDATED ****
----------------
ORBITAL ENERGIES
----------------

  NO   OCC          E(Eh)            E(eV) 
   0   2.0000     -91.890674     -2500.4724 
   1   2.0000     -20.607514      -560.7590 
   2   2.0000     -20.588831      -560.2506 
   3   2.0000     -20.542412      -558.9874 
   4   2.0000     -15.641184      -425.6183 
   5   2.0000     -15.604697      -424.6254 
   6   2.0000     -11.409115      -310.4578 
   7   2.0000     -11.387813      -309.8781 
   8   2.0000     -11.333777      -308.4077 
   9   2.0000     -11.317683      -307.9698 
  10   2.0000     -11.303401      -307.5812 
  11   2.0000     -11.301739      -307.5359 
  12   2.0000     -11.268610      -306.6345 
  13   2.0000     -11.253700      -306.2287 
  14   2.0000     -11.253228      -306.2159 
  15   2.0000     -11.246773      -306.0402 
  16   2.0000     -11.241313      -305.8917 
  17   2.0000     -11.235512      -305.7338 
  18   2.0000     -11.227948      -305.5280 
  19   2.0000     -11.227845      -305.5252 
  20   2.0000      -8.897216      -242.1056 
  21   2.0000      -6.578882      -179.0205 
  22   2.0000      -6.576815      -178.9642 
  23   2.0000      -6.576146      -178.9460 
  24   2.0000      -1.452073       -39.5129 
  25   2.0000      -1.411640       -38.4127 
  26   2.0000      -1.345836       -36.6221 
  27   2.0000      -1.339988       -36.4629 
  28   2.0000      -1.231000       -33.4972 
  29   2.0000      -1.143878       -31.1265 
  30   2.0000      -1.120462       -30.4893 
  31   2.0000      -1.040589       -28.3159 
  32   2.0000      -1.029356       -28.0102 
  33   2.0000      -1.000488       -27.2247 
  34   2.0000      -0.996921       -27.1276 
  35   2.0000      -0.987575       -26.8733 
  36   2.0000      -0.912261       -24.8239 
  37   2.0000      -0.901552       -24.5325 
  38   2.0000      -0.846506       -23.0346 
  39   2.0000      -0.834920       -22.7193 
  40   2.0000      -0.826233       -22.4829 
  41   2.0000      -0.802096       -21.8261 
  42   2.0000      -0.759169       -20.6580 
  43   2.0000      -0.739640       -20.1266 
  44   2.0000      -0.727366       -19.7926 
  45   2.0000      -0.699871       -19.0445 
  46   2.0000      -0.686100       -18.6697 
  47   2.0000      -0.676631       -18.4121 
  48   2.0000      -0.661241       -17.9933 
  49   2.0000      -0.658833       -17.9278 
  50   2.0000      -0.652659       -17.7598 
  51   2.0000      -0.639603       -17.4045 
  52   2.0000      -0.625931       -17.0324 
  53   2.0000      -0.614930       -16.7331 
  54   2.0000      -0.608388       -16.5551 
  55   2.0000      -0.595314       -16.1993 
  56   2.0000      -0.592596       -16.1254 
  57   2.0000      -0.584630       -15.9086 
  58   2.0000      -0.567119       -15.4321 
  59   2.0000      -0.566395       -15.4124 
  60   2.0000      -0.550956       -14.9923 
  61   2.0000      -0.540960       -14.7203 
  62   2.0000      -0.530177       -14.4268 
  63   2.0000      -0.524357       -14.2685 
  64   2.0000      -0.513162       -13.9639 
  65   2.0000      -0.504632       -13.7317 
  66   2.0000      -0.501091       -13.6354 
  67   2.0000      -0.491261       -13.3679 
  68   2.0000      -0.466552       -12.6955 
  69   2.0000      -0.460714       -12.5367 
  70   2.0000      -0.451734       -12.2923 
  71   2.0000      -0.450935       -12.2706 
  72   2.0000      -0.362268        -9.8578 
  73   2.0000      -0.338030        -9.1983 
  74   2.0000      -0.330102        -8.9825 
  75   2.0000      -0.319369        -8.6905 
  76   2.0000      -0.303231        -8.2513 
  77   0.0000       0.072641         1.9767 
  78   0.0000       0.111957         3.0465 
  79   0.0000       0.117500         3.1973 
  80   0.0000       0.133254         3.6260 
  81   0.0000       0.139586         3.7983 
  82   0.0000       0.147538         4.0147 
  83   0.0000       0.152898         4.1606 
  84   0.0000       0.155669         4.2360 
  85   0.0000       0.163687         4.4542 
  86   0.0000       0.168997         4.5986 
  87   0.0000       0.175313         4.7705 
  88   0.0000       0.186117         5.0645 
  89   0.0000       0.199180         5.4200 
  90   0.0000       0.200313         5.4508 
  91   0.0000       0.205605         5.5948 
  92   0.0000       0.207055         5.6343 
  93   0.0000       0.226122         6.1531 
  94   0.0000       0.227522         6.1912 
  95   0.0000       0.236442         6.4339 
  96   0.0000       0.243768         6.6333 
  97   0.0000       0.247343         6.7305 
  98   0.0000       0.253427         6.8961 
  99   0.0000       0.260056         7.0765 
 100   0.0000       0.281173         7.6511 
 101   0.0000       0.299778         8.1574 
 102   0.0000       0.312270         8.4973 
 103   0.0000       0.315179         8.5765 
 104   0.0000       0.327586         8.9141 
 105   0.0000       0.330463         8.9924 
 106   0.0000       0.337405         9.1813 
 107   0.0000       0.347111         9.4454 
 108   0.0000       0.355539         9.6747 
 109   0.0000       0.363594         9.8939 
 110   0.0000       0.367546        10.0014 
 111   0.0000       0.370050        10.0696 
 112   0.0000       0.383472        10.4348 
 113   0.0000       0.389384        10.5957 
 114   0.0000       0.395949        10.7743 
 115   0.0000       0.408749        11.1226 
 116   0.0000       0.412140        11.2149 
 117   0.0000       0.417290        11.3550 
 118   0.0000       0.425538        11.5795 
 119   0.0000       0.430865        11.7244 
 120   0.0000       0.439463        11.9584 
 121   0.0000       0.444779        12.1030 
 122   0.0000       0.444929        12.1071 
 123   0.0000       0.453834        12.3494 
 124   0.0000       0.462717        12.5912 
 125   0.0000       0.469537        12.7768 
 126   0.0000       0.476786        12.9740 
 127   0.0000       0.487756        13.2725 
 128   0.0000       0.490494        13.3470 
 129   0.0000       0.495395        13.4804 
 130   0.0000       0.500498        13.6192 
 131   0.0000       0.502621        13.6770 
 132   0.0000       0.511335        13.9141 
 133   0.0000       0.520190        14.1551 
 134   0.0000       0.520742        14.1701 
 135   0.0000       0.529263        14.4020 
 136   0.0000       0.530061        14.4237 
 137   0.0000       0.536472        14.5982 
 138   0.0000       0.549555        14.9542 
 139   0.0000       0.551438        15.0054 
 140   0.0000       0.558999        15.2111 
 141   0.0000       0.562049        15.2941 
 142   0.0000       0.566168        15.4062 
 143   0.0000       0.572055        15.5664 
 144   0.0000       0.574248        15.6261 
 145   0.0000       0.580520        15.7968 
 146   0.0000       0.584257        15.8984 
 147   0.0000       0.588819        16.0226 
 148   0.0000       0.591228        16.0881 
 149   0.0000       0.596491        16.2313 
 150   0.0000       0.600197        16.3322 
 151   0.0000       0.604515        16.4497 
 152   0.0000       0.608159        16.5488 
 153   0.0000       0.608488        16.5578 
 154   0.0000       0.615082        16.7372 
 155   0.0000       0.615371        16.7451 
 156   0.0000       0.623220        16.9587 
 157   0.0000       0.625122        17.0104 
 158   0.0000       0.632016        17.1980 
 159   0.0000       0.637147        17.3377 
 160   0.0000       0.639367        17.3981 
 161   0.0000       0.641313        17.4510 
 162   0.0000       0.646149        17.5826 
 163   0.0000       0.649532        17.6747 
 164   0.0000       0.659195        17.9376 
 165   0.0000       0.662594        18.0301 
 166   0.0000       0.670907        18.2563 
 167   0.0000       0.675353        18.3773 
 168   0.0000       0.680608        18.5203 
 169   0.0000       0.686748        18.6874 
 170   0.0000       0.689572        18.7642 
 171   0.0000       0.700266        19.0552 
 172   0.0000       0.708307        19.2740 
 173   0.0000       0.710629        19.3372 
 174   0.0000       0.721343        19.6287 
 175   0.0000       0.728677        19.8283 
 176   0.0000       0.733786        19.9673 
 177   0.0000       0.741225        20.1697 
 178   0.0000       0.747714        20.3463 
 179   0.0000       0.754425        20.5290 
 180   0.0000       0.760838        20.7034 
 181   0.0000       0.770435        20.9646 
 182   0.0000       0.772981        21.0339 
 183   0.0000       0.783252        21.3134 
 184   0.0000       0.791198        21.5296 
 185   0.0000       0.792444        21.5635 
 186   0.0000       0.804340        21.8872 
 187   0.0000       0.812496        22.1091 
 188   0.0000       0.821086        22.3429 
 189   0.0000       0.831783        22.6340 
 190   0.0000       0.833154        22.6713 
 191   0.0000       0.845712        23.0130 
 192   0.0000       0.850725        23.1494 
 193   0.0000       0.854447        23.2507 
 194   0.0000       0.862370        23.4663 
 195   0.0000       0.871232        23.7074 
 196   0.0000       0.880323        23.9548 
 197   0.0000       0.883576        24.0433 
 198   0.0000       0.891558        24.2605 
 199   0.0000       0.901129        24.5210 
 200   0.0000       0.911591        24.8057 
 201   0.0000       0.917912        24.9776 
 202   0.0000       0.919389        25.0179 
 203   0.0000       0.927973        25.2514 
 204   0.0000       0.940146        25.5827 
 205   0.0000       0.945654        25.7326 
 206   0.0000       0.951048        25.8793 
 207   0.0000       0.955387        25.9974 
 208   0.0000       0.974657        26.5218 
 209   0.0000       0.977324        26.5943 
 210   0.0000       0.978454        26.6251 
 211   0.0000       0.988917        26.9098 
 212   0.0000       0.993529        27.0353 
 213   0.0000       1.001031        27.2394 
 214   0.0000       1.010242        27.4901 
 215   0.0000       1.017730        27.6938 
 216   0.0000       1.022674        27.8284 
 217   0.0000       1.023075        27.8393 
 218   0.0000       1.032963        28.1084 
 219   0.0000       1.038781        28.2667 
 220   0.0000       1.055890        28.7322 
 221   0.0000       1.058581        28.8055 
 222   0.0000       1.068455        29.0741 
 223   0.0000       1.072971        29.1970 
 224   0.0000       1.078286        29.3416 
 225   0.0000       1.090352        29.6700 
 226   0.0000       1.102404        29.9979 
 227   0.0000       1.107054        30.1245 
 228   0.0000       1.120438        30.4887 
 229   0.0000       1.123273        30.5658 
 230   0.0000       1.131135        30.7797 
 231   0.0000       1.135562        30.9002 
 232   0.0000       1.140046        31.0222 
 233   0.0000       1.148644        31.2562 
 234   0.0000       1.153176        31.3795 
 235   0.0000       1.159524        31.5523 
 236   0.0000       1.164877        31.6979 
 237   0.0000       1.175084        31.9757 
 238   0.0000       1.180661        32.1274 
 239   0.0000       1.191554        32.4238 
 240   0.0000       1.194230        32.4967 
 241   0.0000       1.197176        32.5768 
 242   0.0000       1.204097        32.7652 
 243   0.0000       1.212403        32.9911 
 244   0.0000       1.217608        33.1328 
 245   0.0000       1.225785        33.3553 
 246   0.0000       1.231944        33.5229 
 247   0.0000       1.233429        33.5633 
 248   0.0000       1.240840        33.7650 
 249   0.0000       1.246230        33.9116 
 250   0.0000       1.256788        34.1989 
 251   0.0000       1.263362        34.3778 
 252   0.0000       1.268182        34.5090 
 253   0.0000       1.272598        34.6292 
 254   0.0000       1.282165        34.8895 
 255   0.0000       1.285056        34.9682 
 256   0.0000       1.290938        35.1282 
 257   0.0000       1.299505        35.3613 
 258   0.0000       1.314283        35.7634 
 259   0.0000       1.322153        35.9776 
 260   0.0000       1.324285        36.0356 
 261   0.0000       1.334524        36.3142 
 262   0.0000       1.342075        36.5197 
 263   0.0000       1.361179        37.0396 
 264   0.0000       1.370432        37.2914 
 265   0.0000       1.384793        37.6821 
 266   0.0000       1.388844        37.7924 
 267   0.0000       1.392137        37.8820 
 268   0.0000       1.398719        38.0611 
 269   0.0000       1.407914        38.3113 
 270   0.0000       1.415274        38.5116 
 271   0.0000       1.422665        38.7127 
 272   0.0000       1.429282        38.8927 
 273   0.0000       1.437815        39.1249 
 274   0.0000       1.447477        39.3879 
 275   0.0000       1.464504        39.8512 
 276   0.0000       1.470484        40.0139 
 277   0.0000       1.472218        40.0611 
 278   0.0000       1.479400        40.2565 
 279   0.0000       1.487018        40.4638 
 280   0.0000       1.487894        40.4876 
 281   0.0000       1.497593        40.7516 
 282   0.0000       1.499443        40.8019 
 283   0.0000       1.507599        41.0239 
 284   0.0000       1.512586        41.1596 
 285   0.0000       1.514454        41.2104 
 286   0.0000       1.524697        41.4891 
 287   0.0000       1.530921        41.6585 
 288   0.0000       1.533218        41.7210 
 289   0.0000       1.539596        41.8945 
 290   0.0000       1.549980        42.1771 
 291   0.0000       1.557379        42.3784 
 292   0.0000       1.566736        42.6330 
 293   0.0000       1.570526        42.7362 
 294   0.0000       1.583742        43.0958 
 295   0.0000       1.589012        43.2392 
 296   0.0000       1.595529        43.4165 
 297   0.0000       1.603001        43.6199 
 298   0.0000       1.610886        43.8344 
 299   0.0000       1.616730        43.9935 
 300   0.0000       1.634090        44.4658 
 301   0.0000       1.634912        44.4882 
 302   0.0000       1.648321        44.8531 
 303   0.0000       1.654215        45.0135 
 304   0.0000       1.661381        45.2085 
 305   0.0000       1.674571        45.5674 
 306   0.0000       1.676911        45.6311 
 307   0.0000       1.689883        45.9841 
 308   0.0000       1.694193        46.1013 
 309   0.0000       1.698004        46.2050 
 310   0.0000       1.703995        46.3681 
 311   0.0000       1.722269        46.8653 
 312   0.0000       1.729662        47.0665 
 313   0.0000       1.739554        47.3357 
 314   0.0000       1.744837        47.4794 
 315   0.0000       1.754952        47.7547 
 316   0.0000       1.765908        48.0528 
 317   0.0000       1.771913        48.2162 
 318   0.0000       1.785079        48.5745 
 319   0.0000       1.792511        48.7767 
 320   0.0000       1.799111        48.9563 
 321   0.0000       1.821793        49.5735 
 322   0.0000       1.832428        49.8629 
 323   0.0000       1.851092        50.3708 
 324   0.0000       1.857644        50.5491 
 325   0.0000       1.871217        50.9184 
 326   0.0000       1.883308        51.2474 
 327   0.0000       1.891669        51.4749 
 328   0.0000       1.895390        51.5762 
 329   0.0000       1.908882        51.9433 
 330   0.0000       1.920449        52.2581 
 331   0.0000       1.928723        52.4832 
 332   0.0000       1.936336        52.6904 
 333   0.0000       1.946816        52.9755 
 334   0.0000       1.951854        53.1127 
 335   0.0000       1.957473        53.2656 
 336   0.0000       1.974841        53.7381 
 337   0.0000       1.995818        54.3090 
 338   0.0000       2.001161        54.4543 
 339   0.0000       2.004924        54.5568 
 340   0.0000       2.019760        54.9605 
 341   0.0000       2.033242        55.3273 
 342   0.0000       2.044340        55.6293 
 343   0.0000       2.053042        55.8661 
 344   0.0000       2.058866        56.0246 
 345   0.0000       2.102558        57.2135 
 346   0.0000       2.114095        57.5275 
 347   0.0000       2.123526        57.7841 
 348   0.0000       2.129724        57.9527 
 349   0.0000       2.134980        58.0958 
 350   0.0000       2.140492        58.2457 
 351   0.0000       2.195584        59.7449 
 352   0.0000       2.211636        60.1817 
 353   0.0000       2.223152        60.4950 
 354   0.0000       2.234782        60.8115 
 355   0.0000       2.265006        61.6340 
 356   0.0000       2.269166        61.7471 
 357   0.0000       2.282594        62.1125 
 358   0.0000       2.297921        62.5296 
 359   0.0000       2.301144        62.6173 
 360   0.0000       2.303651        62.6855 
 361   0.0000       2.317880        63.0727 
 362   0.0000       2.335252        63.5454 
 363   0.0000       2.344743        63.8037 
 364   0.0000       2.353987        64.0552 
 365   0.0000       2.365377        64.3652 
 366   0.0000       2.381192        64.7955 
 367   0.0000       2.386186        64.9314 
 368   0.0000       2.391336        65.0715 
 369   0.0000       2.408975        65.5515 
 370   0.0000       2.417562        65.7852 
 371   0.0000       2.444138        66.5084 
 372   0.0000       2.462296        67.0025 
 373   0.0000       2.481416        67.5228 
 374   0.0000       2.485365        67.6302 
 375   0.0000       2.503461        68.1226 
 376   0.0000       2.512644        68.3725 
 377   0.0000       2.519822        68.5678 
 378   0.0000       2.528445        68.8025 
 379   0.0000       2.543020        69.1991 
 380   0.0000       2.550834        69.4117 
 381   0.0000       2.581274        70.2400 
 382   0.0000       2.585438        70.3533 
 383   0.0000       2.600950        70.7755 
 384   0.0000       2.613959        71.1294 
 385   0.0000       2.626934        71.4825 
 386   0.0000       2.632302        71.6286 
 387   0.0000       2.647074        72.0305 
 388   0.0000       2.660703        72.4014 
 389   0.0000       2.662471        72.4495 
 390   0.0000       2.674209        72.7689 
 391   0.0000       2.678997        72.8992 
 392   0.0000       2.694328        73.3164 
 393   0.0000       2.713404        73.8355 
 394   0.0000       2.720685        74.0336 
 395   0.0000       2.729133        74.2635 
 396   0.0000       2.731996        74.3414 
 397   0.0000       2.741164        74.5909 
 398   0.0000       2.750881        74.8553 
 399   0.0000       2.755317        74.9760 
 400   0.0000       2.760737        75.1235 
 401   0.0000       2.772743        75.4502 
 402   0.0000       2.788597        75.8816 
 403   0.0000       2.803893        76.2978 
 404   0.0000       2.806514        76.3691 
 405   0.0000       2.811423        76.5027 
 406   0.0000       2.827992        76.9536 
 407   0.0000       2.839371        77.2632 
 408   0.0000       2.842437        77.3466 
 409   0.0000       2.852852        77.6301 
 410   0.0000       2.861960        77.8779 
 411   0.0000       2.867976        78.0416 
 412   0.0000       2.873388        78.1889 
 413   0.0000       2.880963        78.3950 
 414   0.0000       2.891873        78.6919 
 415   0.0000       2.897001        78.8314 
 416   0.0000       2.907042        79.1046 
 417   0.0000       2.912564        79.2549 
 418   0.0000       2.920144        79.4612 
 419   0.0000       2.924783        79.5874 
 420   0.0000       2.940624        80.0184 
 421   0.0000       2.958779        80.5125 
 422   0.0000       2.968396        80.7742 
 423   0.0000       2.981244        81.1238 
 424   0.0000       2.995890        81.5223 
 425   0.0000       3.010558        81.9214 
 426   0.0000       3.012490        81.9740 
 427   0.0000       3.018417        82.1353 
 428   0.0000       3.034805        82.5812 
 429   0.0000       3.040500        82.7362 
 430   0.0000       3.048924        82.9654 
 431   0.0000       3.054670        83.1218 
 432   0.0000       3.065137        83.4066 
 433   0.0000       3.071440        83.5781 
 434   0.0000       3.078133        83.7602 
 435   0.0000       3.081294        83.8463 
 436   0.0000       3.082542        83.8802 
 437   0.0000       3.091813        84.1325 
 438   0.0000       3.103410        84.4481 
 439   0.0000       3.110784        84.6487 
 440   0.0000       3.114129        84.7398 
 441   0.0000       3.126097        85.0654 
 442   0.0000       3.129984        85.1712 
 443   0.0000       3.141509        85.4848 
 444   0.0000       3.152655        85.7881 
 445   0.0000       3.158604        85.9500 
 446   0.0000       3.159715        85.9802 
 447   0.0000       3.167821        86.2008 
 448   0.0000       3.173136        86.3454 
 449   0.0000       3.178016        86.4782 
 450   0.0000       3.186767        86.7163 
 451   0.0000       3.203606        87.1745 
 452   0.0000       3.208084        87.2964 
 453   0.0000       3.209894        87.3457 
 454   0.0000       3.216746        87.5321 
 455   0.0000       3.225647        87.7743 
 456   0.0000       3.231774        87.9411 
 457   0.0000       3.234782        88.0229 
 458   0.0000       3.250000        88.4370 
 459   0.0000       3.252608        88.5080 
 460   0.0000       3.259298        88.6900 
 461   0.0000       3.260197        88.7145 
 462   0.0000       3.264078        88.8201 
 463   0.0000       3.280208        89.2590 
 464   0.0000       3.284812        89.3843 
 465   0.0000       3.292781        89.6011 
 466   0.0000       3.305379        89.9439 
 467   0.0000       3.307557        90.0032 
 468   0.0000       3.315662        90.2238 
 469   0.0000       3.317882        90.2842 
 470   0.0000       3.328453        90.5718 
 471   0.0000       3.330006        90.6141 
 472   0.0000       3.343139        90.9714 
 473   0.0000       3.347194        91.0818 
 474   0.0000       3.353988        91.2666 
 475   0.0000       3.355358        91.3039 
 476   0.0000       3.359528        91.4174 
 477   0.0000       3.364691        91.5579 
 478   0.0000       3.370395        91.7131 
 479   0.0000       3.378324        91.9289 
 480   0.0000       3.389103        92.2222 
 481   0.0000       3.396397        92.4207 
 482   0.0000       3.401728        92.5657 
 483   0.0000       3.408463        92.7490 
 484   0.0000       3.412309        92.8536 
 485   0.0000       3.417847        93.0043 
 486   0.0000       3.423239        93.1511 
 487   0.0000       3.428446        93.2928 
 488   0.0000       3.433873        93.4404 
 489   0.0000       3.437252        93.5324 
 490   0.0000       3.443787        93.7102 
 491   0.0000       3.449994        93.8791 
 492   0.0000       3.454791        94.0096 
 493   0.0000       3.466571        94.3302 
 494   0.0000       3.471381        94.4611 
 495   0.0000       3.480699        94.7146 
 496   0.0000       3.483219        94.7832 
 497   0.0000       3.488511        94.9272 
 498   0.0000       3.499935        95.2381 
 499   0.0000       3.506723        95.4228 
 500   0.0000       3.511081        95.5414 
 501   0.0000       3.515333        95.6571 
 502   0.0000       3.524610        95.9095 
 503   0.0000       3.532917        96.1355 
 504   0.0000       3.537504        96.2604 
 505   0.0000       3.548656        96.5638 
 506   0.0000       3.552298        96.6629 
 507   0.0000       3.561698        96.9187 
 508   0.0000       3.566682        97.0543 
 509   0.0000       3.574308        97.2619 
 510   0.0000       3.583264        97.5056 
 511   0.0000       3.592069        97.7452 
 512   0.0000       3.595687        97.8436 
 513   0.0000       3.600520        97.9751 
 514   0.0000       3.606153        98.1284 
 515   0.0000       3.613318        98.3234 
 516   0.0000       3.615743        98.3894 
 517   0.0000       3.625100        98.6440 
 518   0.0000       3.638167        98.9996 
 519   0.0000       3.640673        99.0678 
 520   0.0000       3.650891        99.3458 
 521   0.0000       3.655384        99.4681 
 522   0.0000       3.660367        99.6036 
 523   0.0000       3.661955        99.6469 
 524   0.0000       3.667355        99.7938 
 525   0.0000       3.675844       100.0248 
 526   0.0000       3.685361       100.2838 
 527   0.0000       3.694134       100.5225 
 528   0.0000       3.702843       100.7595 
 529   0.0000       3.708882       100.9238 
 530   0.0000       3.712597       101.0249 
 531   0.0000       3.716224       101.1236 
 532   0.0000       3.719016       101.1996 
 533   0.0000       3.732755       101.5734 
 534   0.0000       3.735148       101.6385 
 535   0.0000       3.740194       101.7759 
 536   0.0000       3.750920       102.0677 
 537   0.0000       3.753248       102.1311 
 538   0.0000       3.754856       102.1748 
 539   0.0000       3.761100       102.3447 
 540   0.0000       3.770368       102.5969 
 541   0.0000       3.781240       102.8928 
 542   0.0000       3.789798       103.1256 
 543   0.0000       3.795799       103.2889 
 544   0.0000       3.803107       103.4878 
 545   0.0000       3.813925       103.7822 
 546   0.0000       3.818397       103.9039 
 547   0.0000       3.826905       104.1354 
 548   0.0000       3.829397       104.2032 
 549   0.0000       3.838111       104.4403 
 550   0.0000       3.846863       104.6785 
 551   0.0000       3.855919       104.9249 
 552   0.0000       3.858789       105.0030 
 553   0.0000       3.870678       105.3265 
 554   0.0000       3.874870       105.4406 
 555   0.0000       3.884935       105.7144 
 556   0.0000       3.889910       105.8498 
 557   0.0000       3.904653       106.2510 
 558   0.0000       3.911678       106.4422 
 559   0.0000       3.924447       106.7896 
 560   0.0000       3.930570       106.9563 
 561   0.0000       3.941995       107.2671 
 562   0.0000       3.952313       107.5479 
 563   0.0000       3.959755       107.7504 
 564   0.0000       3.967598       107.9638 
 565   0.0000       3.971538       108.0710 
 566   0.0000       3.979357       108.2838 
 567   0.0000       3.984982       108.4369 
 568   0.0000       3.993992       108.6820 
 569   0.0000       4.004691       108.9732 
 570   0.0000       4.010739       109.1378 
 571   0.0000       4.011965       109.1711 
 572   0.0000       4.017437       109.3200 
 573   0.0000       4.026221       109.5590 
 574   0.0000       4.029769       109.6556 
 575   0.0000       4.057676       110.4150 
 576   0.0000       4.059164       110.4555 
 577   0.0000       4.064465       110.5997 
 578   0.0000       4.079424       111.0068 
 579   0.0000       4.086538       111.2004 
 580   0.0000       4.102992       111.6481 
 581   0.0000       4.105668       111.7209 
 582   0.0000       4.114110       111.9506 
 583   0.0000       4.120410       112.1221 
 584   0.0000       4.129314       112.3644 
 585   0.0000       4.136982       112.5730 
 586   0.0000       4.144209       112.7697 
 587   0.0000       4.148581       112.8886 
 588   0.0000       4.152917       113.0066 
 589   0.0000       4.160358       113.2091 
 590   0.0000       4.168250       113.4238 
 591   0.0000       4.170210       113.4772 
 592   0.0000       4.179845       113.7394 
 593   0.0000       4.193537       114.1120 
 594   0.0000       4.196867       114.2026 
 595   0.0000       4.205180       114.4288 
 596   0.0000       4.207397       114.4891 
 597   0.0000       4.219632       114.8220 
 598   0.0000       4.220386       114.8425 
 599   0.0000       4.227692       115.0413 
 600   0.0000       4.238464       115.3345 
 601   0.0000       4.247925       115.5919 
 602   0.0000       4.254804       115.7791 
 603   0.0000       4.260610       115.9371 
 604   0.0000       4.278985       116.4371 
 605   0.0000       4.281746       116.5122 
 606   0.0000       4.285681       116.6193 
 607   0.0000       4.290314       116.7454 
 608   0.0000       4.297229       116.9336 
 609   0.0000       4.304056       117.1193 
 610   0.0000       4.315160       117.4215 
 611   0.0000       4.318933       117.5241 
 612   0.0000       4.331109       117.8555 
 613   0.0000       4.338123       118.0463 
 614   0.0000       4.342663       118.1699 
 615   0.0000       4.352735       118.4439 
 616   0.0000       4.365591       118.7938 
 617   0.0000       4.372260       118.9752 
 618   0.0000       4.381621       119.2300 
 619   0.0000       4.384967       119.3210 
 620   0.0000       4.399374       119.7131 
 621   0.0000       4.407823       119.9429 
 622   0.0000       4.419294       120.2551 
 623   0.0000       4.420634       120.2916 
 624   0.0000       4.432555       120.6160 
 625   0.0000       4.440213       120.8243 
 626   0.0000       4.445522       120.9688 
 627   0.0000       4.450937       121.1162 
 628   0.0000       4.458942       121.3340 
 629   0.0000       4.473979       121.7432 
 630   0.0000       4.479598       121.8961 
 631   0.0000       4.480589       121.9230 
 632   0.0000       4.487255       122.1044 
 633   0.0000       4.505251       122.5941 
 634   0.0000       4.509597       122.7124 
 635   0.0000       4.518198       122.9464 
 636   0.0000       4.529598       123.2566 
 637   0.0000       4.536546       123.4457 
 638   0.0000       4.549041       123.7857 
 639   0.0000       4.557161       124.0067 
 640   0.0000       4.563744       124.1858 
 641   0.0000       4.574092       124.4674 
 642   0.0000       4.585537       124.7788 
 643   0.0000       4.586109       124.7944 
 644   0.0000       4.600495       125.1858 
 645   0.0000       4.605318       125.3171 
 646   0.0000       4.610478       125.4575 
 647   0.0000       4.618347       125.6716 
 648   0.0000       4.622750       125.7914 
 649   0.0000       4.635879       126.1487 
 650   0.0000       4.644524       126.3839 
 651   0.0000       4.652376       126.5976 
 652   0.0000       4.664817       126.9361 
 653   0.0000       4.668529       127.0371 
 654   0.0000       4.677370       127.2777 
 655   0.0000       4.687315       127.5483 
 656   0.0000       4.699962       127.8925 
 657   0.0000       4.726321       128.6097 
 658   0.0000       4.726970       128.6274 
 659   0.0000       4.747089       129.1749 
 660   0.0000       4.749825       129.2493 
 661   0.0000       4.760509       129.5400 
 662   0.0000       4.768148       129.7479 
 663   0.0000       4.772012       129.8531 
 664   0.0000       4.787101       130.2637 
 665   0.0000       4.802176       130.6739 
 666   0.0000       4.815389       131.0334 
 667   0.0000       4.841448       131.7425 
 668   0.0000       4.856302       132.1467 
 669   0.0000       4.877843       132.7329 
 670   0.0000       4.882566       132.8614 
 671   0.0000       4.901847       133.3860 
 672   0.0000       4.927167       134.0750 
 673   0.0000       4.936175       134.3202 
 674   0.0000       4.942262       134.4858 
 675   0.0000       4.962319       135.0316 
 676   0.0000       4.991077       135.8141 
 677   0.0000       5.009078       136.3039 
 678   0.0000       5.021626       136.6454 
 679   0.0000       5.025817       136.7594 
 680   0.0000       5.036968       137.0629 
 681   0.0000       5.051723       137.4644 
 682   0.0000       5.058652       137.6529 
 683   0.0000       5.065524       137.8399 
 684   0.0000       5.079545       138.2215 
 685   0.0000       5.098601       138.7400 
 686   0.0000       5.102641       138.8499 
 687   0.0000       5.125339       139.4676 
 688   0.0000       5.130562       139.6097 
 689   0.0000       5.143196       139.9535 
 690   0.0000       5.161571       140.4535 
 691   0.0000       5.165016       140.5472 
 692   0.0000       5.168687       140.6471 
 693   0.0000       5.176623       140.8631 
 694   0.0000       5.192612       141.2982 
 695   0.0000       5.208086       141.7192 
 696   0.0000       5.209854       141.7673 
 697   0.0000       5.225288       142.1873 
 698   0.0000       5.232188       142.3751 
 699   0.0000       5.234466       142.4371 
 700   0.0000       5.243908       142.6940 
 701   0.0000       5.279133       143.6525 
 702   0.0000       5.291040       143.9765 
 703   0.0000       5.306944       144.4093 
 704   0.0000       5.313663       144.5921 
 705   0.0000       5.322281       144.8266 
 706   0.0000       5.336579       145.2157 
 707   0.0000       5.340653       145.3266 
 708   0.0000       5.359353       145.8354 
 709   0.0000       5.363483       145.9478 
 710   0.0000       5.374036       146.2350 
 711   0.0000       5.401162       146.9731 
 712   0.0000       5.418919       147.4563 
 713   0.0000       5.442641       148.1018 
 714   0.0000       5.449204       148.2804 
 715   0.0000       5.463683       148.6744 
 716   0.0000       5.482159       149.1771 
 717   0.0000       5.490592       149.4066 
 718   0.0000       5.494559       149.5146 
 719   0.0000       5.507603       149.8695 
 720   0.0000       5.531584       150.5221 
 721   0.0000       5.542236       150.8119 
 722   0.0000       5.551915       151.0753 
 723   0.0000       5.566676       151.4769 
 724   0.0000       5.574908       151.7010 
 725   0.0000       5.580613       151.8562 
 726   0.0000       5.589083       152.0867 
 727   0.0000       5.603928       152.4906 
 728   0.0000       5.623187       153.0147 
 729   0.0000       5.631341       153.2366 
 730   0.0000       5.641639       153.5168 
 731   0.0000       5.643706       153.5730 
 732   0.0000       5.654503       153.8669 
 733   0.0000       5.662067       154.0727 
 734   0.0000       5.666552       154.1947 
 735   0.0000       5.690100       154.8355 
 736   0.0000       5.699366       155.0876 
 737   0.0000       5.716725       155.5600 
 738   0.0000       5.734573       156.0457 
 739   0.0000       5.745520       156.3435 
 740   0.0000       5.769037       156.9835 
 741   0.0000       5.782278       157.3438 
 742   0.0000       5.791253       157.5880 
 743   0.0000       5.795212       157.6957 
 744   0.0000       5.808588       158.0597 
 745   0.0000       5.822045       158.4259 
 746   0.0000       5.847325       159.1138 
 747   0.0000       5.878529       159.9629 
 748   0.0000       5.882218       160.0633 
 749   0.0000       5.903059       160.6304 
 750   0.0000       5.926828       161.2772 
 751   0.0000       5.954731       162.0365 
 752   0.0000       5.981933       162.7767 
 753   0.0000       5.988909       162.9665 
 754   0.0000       6.009290       163.5211 
 755   0.0000       6.031311       164.1203 
 756   0.0000       6.046210       164.5257 
 757   0.0000       6.056740       164.8123 
 758   0.0000       6.070681       165.1916 
 759   0.0000       6.084135       165.5577 
 760   0.0000       6.108345       166.2165 
 761   0.0000       6.139164       167.0551 
 762   0.0000       6.150584       167.3659 
 763   0.0000       6.173092       167.9784 
 764   0.0000       6.246352       169.9719 
 765   0.0000       6.251293       170.1063 
 766   0.0000       6.262362       170.4075 
 767   0.0000       6.264512       170.4660 
 768   0.0000       6.298617       171.3941 
 769   0.0000       6.304415       171.5518 
 770   0.0000       6.338561       172.4810 
 771   0.0000       6.349261       172.7722 
 772   0.0000       6.399507       174.1394 
 773   0.0000       6.410458       174.4374 
 774   0.0000       6.427859       174.9109 
 775   0.0000       6.446051       175.4060 
 776   0.0000       6.489208       176.5803 
 777   0.0000       6.509099       177.1216 
 778   0.0000       6.560807       178.5286 
 779   0.0000       6.571630       178.8231 
 780   0.0000       6.610087       179.8696 
 781   0.0000       6.642470       180.7508 
 782   0.0000       6.654590       181.0806 
 783   0.0000       6.706103       182.4823 
 784   0.0000       6.739654       183.3953 
 785   0.0000       6.851654       186.4430 
 786   0.0000       6.925245       188.4455 
 787   0.0000       6.935274       188.7184 
 788   0.0000       6.937991       188.7923 
 789   0.0000       7.004412       190.5997 
 790   0.0000       7.026831       191.2098 
 791   0.0000       7.068150       192.3341 
 792   0.0000       7.098272       193.1538 
 793   0.0000       7.142153       194.3479 
 794   0.0000       7.155871       194.7212 
 795   0.0000       7.180316       195.3863 
 796   0.0000       7.216180       196.3622 
 797   0.0000       7.290220       198.3770 
 798   0.0000       7.356435       200.1788 
 799   0.0000       7.359657       200.2665 
 800   0.0000       7.436778       202.3650 
 801   0.0000       7.509048       204.3316 
 802   0.0000       7.575000       206.1262 
 803   0.0000       7.592482       206.6019 
 804   0.0000       7.687515       209.1879 
 805   0.0000       7.780813       211.7267 
 806   0.0000       7.800090       212.2513 
 807   0.0000       7.929345       215.7684 
 808   0.0000       7.997178       217.6143 
 809   0.0000       9.440710       256.8948 
 810   0.0000       9.686879       263.5934 
 811   0.0000      10.769927       293.0646 
 812   0.0000      11.064023       301.0674 
 813   0.0000      11.994053       326.3748 
 814   0.0000      12.292198       334.4877 
 815   0.0000      12.477508       339.5302 
 816   0.0000      12.719036       346.1026 
 817   0.0000      12.763661       347.3169 
 818   0.0000      12.952375       352.4520 
 819   0.0000      13.104872       356.6017 
 820   0.0000      13.257731       360.7612 
 821   0.0000      13.548169       368.6644 
 822   0.0000      13.692762       372.5990 
 823   0.0000      13.714314       373.1855 
 824   0.0000      14.065969       382.7545 
 825   0.0000      14.657780       398.8585 
 826   0.0000      15.224016       414.2665 
 827   0.0000      15.451715       420.4625 

                    ********************************
                    * MULLIKEN POPULATION ANALYSIS *
                    ********************************

-----------------------
MULLIKEN ATOMIC CHARGES
-----------------------
   0 C :   -0.276434
   1 C :    0.037752
   2 O :   -0.352672
   3 C :    0.464811
   4 O :   -0.448603
   5 C :   -0.132452
   6 C :    0.146488
   7 C :   -0.314397
   8 N :   -0.124844
   9 C :    0.193321
  10 S :   -0.422116
  11 N :   -0.222761
  12 C :    0.012768
  13 C :    0.028449
  14 C :   -0.143647
  15 C :   -0.163321
  16 C :   -0.231963
  17 C :    0.258992
  18 O :   -0.355487
  19 C :   -0.280626
  20 H :    0.118036
  21 H :    0.089601
  22 H :    0.100149
  23 H :    0.113992
  24 H :    0.108342
  25 H :    0.096344
  26 H :    0.126953
  27 H :    0.128028
  28 H :    0.208948
  29 H :    0.205048
  30 H :    0.152059
  31 H :    0.160374
  32 H :    0.176512
  33 H :    0.159712
  34 H :    0.248781
  35 H :    0.133858
Sum of atomic charges:    0.0000000

--------------------------------
MULLIKEN REDUCED ORBITAL CHARGES
--------------------------------
  0 C s       :     3.260120  s :     3.260120
      pz      :     0.914442  p :     2.941914
      px      :     1.028810
      py      :     0.998661
      dz2     :     0.021125  d :     0.070121
      dxz     :     0.010194
      dyz     :     0.015131
      dx2y2   :     0.015889
      dxy     :     0.007782
      f0      :     0.001089  f :     0.004279
      f+1     :     0.000737
      f-1     :     0.000717
      f+2     :     0.000323
      f-2     :     0.000277
      f+3     :     0.001051
      f-3     :     0.000086
  1 C s       :     3.172616  s :     3.172616
      pz      :     0.939950  p :     2.632927
      px      :     0.935361
      py      :     0.757616
      dz2     :     0.027368  d :     0.145691
      dxz     :     0.018665
      dyz     :     0.040647
      dx2y2   :     0.031280
      dxy     :     0.027731
      f0      :     0.001480  f :     0.011014
      f+1     :     0.001404
      f-1     :     0.001796
      f+2     :     0.001026
      f-2     :     0.001593
      f+3     :     0.001855
      f-3     :     0.001860
  2 O s       :     3.699789  s :     3.699789
      pz      :     1.706501  p :     4.620425
      px      :     1.328093
      py      :     1.585831
      dz2     :     0.003723  d :     0.030049
      dxz     :     0.005791
      dyz     :     0.003520
      dx2y2   :     0.011083
      dxy     :     0.005931
      f0      :     0.000335  f :     0.002410
      f+1     :     0.000361
      f-1     :     0.000128
      f+2     :     0.000420
      f-2     :     0.000305
      f+3     :     0.000518
      f-3     :     0.000344
  3 C s       :     3.061277  s :     3.061277
      pz      :     0.656742  p :     2.148502
[...]
 15 C s       :     2.726887  s :     2.726887
      pz      :     0.986550  p :     2.804262
      px      :     0.848236
      py      :     0.969477
      dz2     :     0.120829  d :     0.376994
      dxz     :     0.078555
      dyz     :     0.108569
      dx2y2   :     0.036755
      dxy     :     0.032285
      f0      :     0.008388  f :     0.035284
      f+1     :     0.003494
      f-1     :     0.008063
      f+2     :     0.006109
      f-2     :     0.006165
      f+3     :     0.002041
      f-3     :     0.001023
 16 C s       :     2.724877  s :     2.724877
      pz      :     0.988521  p :     2.853802
      px      :     0.909982
      py      :     0.955298
      dz2     :     0.102795  d :     0.357040
      dxz     :     0.052851
      dyz     :     0.102033
      dx2y2   :     0.049686
      dxy     :     0.049675
      f0      :     0.008356  f :     0.034326
      f+1     :     0.004393
      f-1     :     0.006498
      f+2     :     0.003335
      f-2     :     0.004172
      f+3     :     0.003934
      f-3     :     0.003638
 17 C s       :     2.709382  s :     2.709382
      pz      :     0.877876  p :     2.692082
      px      :     0.843297
      py      :     0.970908
      dz2     :     0.197797  d :     0.699214
      dxz     :     0.153581
      dyz     :     0.177644
      dx2y2   :     0.087523
      dxy     :     0.082669
      f0      :     0.027198  f :     0.097505
      f+1     :     0.014471
      f-1     :     0.016388
      f+2     :     0.014873
      f-2     :     0.016217
      f+3     :     0.004011
      f-3     :     0.004347
 18 O s       :     3.183115  s :     3.183115
      pz      :     1.451563  p :     4.346475
      px      :     1.623155
      py      :     1.271757
      dz2     :     0.025228  d :     0.076313
      dxz     :     0.013236
      dyz     :     0.019384
      dx2y2   :     0.015288
      dxy     :     0.003176
      f0      :     0.001446  f :     0.005412
      f+1     :     0.000758
      f-1     :     0.001381
      f+2     :     0.000542
      f-2     :     0.000476
      f+3     :     0.000302
      f-3     :     0.000508
 19 C s       :     2.695220  s :     2.695220
      pz      :     1.001007  p :     2.861986
      px      :     0.909242
      py      :     0.951738
      dz2     :     0.132914  d :     0.408978
      dxz     :     0.086130
      dyz     :     0.112499
      dx2y2   :     0.038198
      dxy     :     0.039236
      f0      :     0.011894  f :     0.042826
      f+1     :     0.005474
      f-1     :     0.009429
      f+2     :     0.006487
      f-2     :     0.006334
      f+3     :     0.002336
      f-3     :     0.000874
 20 H s       :     0.844202  s :     0.844202
      pz      :     0.038453  p :     0.152776
      px      :     0.076528
      py      :     0.037795
      dz2     :     0.002555  d :     0.027579
      dxz     :     0.008894
      dyz     :     0.000023
      dx2y2   :     0.006949
      dxy     :     0.009157
 21 H s       :     0.851325  s :     0.851325
      pz      :     0.053195  p :     0.153225
      px      :     0.044512
      py      :     0.055517
      dz2     :     0.006848  d :     0.027702
      dxz     :     0.003722
      dyz     :     0.006209
      dx2y2   :     0.006062
      dxy     :     0.004861
 22 H s       :     0.849749  s :     0.849749
      pz      :     0.040861  p :     0.151343
      px      :     0.043741
      py      :     0.066741
      dz2     :     0.003278  d :     0.027080
      dxz     :     0.001162
      dyz     :     0.007572
      dx2y2   :     0.007688
      dxy     :     0.007380
 23 H s       :     0.850664  s :     0.850664
      pz      :     0.041424  p :     0.147292
      px      :     0.078227
      py      :     0.027641
      dz2     :     0.002708  d :     0.026981
      dxz     :     0.009402
      dyz     :     0.000564
      dx2y2   :     0.007902
      dxy     :     0.006405
 24 H s       :     0.855047  s :     0.855047
      pz      :     0.055196  p :     0.148594
      px      :     0.036052
      py      :     0.057345
      dz2     :     0.006534  d :     0.027095
      dxz     :     0.003233
      dyz     :     0.007799
      dx2y2   :     0.004369
      dxy     :     0.005159
 25 H s       :     0.841645  s :     0.841645
      pz      :     0.044811  p :     0.151864
      px      :     0.037428
      py      :     0.069625
      dz2     :     0.002273  d :     0.027919
      dxz     :     0.000590
      dyz     :     0.009502
      dx2y2   :     0.007248
      dxy     :     0.008306
 26 H s       :     0.830224  s :     0.830224
      pz      :     0.052604  p :     0.150343
      px      :     0.048661
      py      :     0.049077
      dz2     :     0.007242  d :     0.027598
      dxz     :     0.005163
      dyz     :     0.004253
      dx2y2   :     0.006121
      dxy     :     0.004819
 27 H s       :     0.820249  s :     0.820249
      pz      :     0.071145  p :     0.158920
      px      :     0.038057
      py      :     0.049718
      dz2     :     0.009620  d :     0.028742
      dxz     :     0.007967
      dyz     :     0.008175
      dx2y2   :     0.002067
      dxy     :     0.000913
 28 H s       :     0.738169  s :     0.738169
      pz      :     0.086190  p :     0.248915
      px      :     0.058761
      py      :     0.103964
      dz2     :     0.005781  d :     0.060399
      dxz     :     0.006585
      dyz     :     0.016515
      dx2y2   :     0.015992
      dxy     :     0.015526
 29 H s       :     0.749547  s :     0.749547
      pz      :     0.092180  p :     0.255573
      px      :     0.120927
      py      :     0.042467
      dz2     :     0.004962  d :     0.061306
      dxz     :     0.024789
      dyz     :     0.000126
      dx2y2   :     0.016240
      dxy     :     0.015188
 30 H s       :     0.830832  s :     0.830832
      pz      :     0.060773  p :     0.151132
      px      :     0.046940
      py      :     0.043419
      dz2     :     0.007986  d :     0.028957
      dxz     :     0.006249
      dyz     :     0.005872
      dx2y2   :     0.004513
      dxy     :     0.004337
 31 H s       :     0.843722  s :     0.843722
      pz      :     0.074229  p :     0.159579
      px      :     0.045304
      py      :     0.040046
      dz2     :     0.009341  d :     0.027979
      dxz     :     0.007123
      dyz     :     0.008360
      dx2y2   :     0.001515
      dxy     :     0.001640
 32 H s       :     0.847950  s :     0.847950
      pz      :     0.034209  p :     0.155151
      px      :     0.046373
      py      :     0.074569
      dz2     :     0.003136  d :     0.026589
      dxz     :     0.001195
      dyz     :     0.007403
      dx2y2   :     0.007441
      dxy     :     0.007414
 33 H s       :     0.848310  s :     0.848310
      pz      :     0.071945  p :     0.163253
      px      :     0.046340
      py      :     0.044968
      dz2     :     0.009342  d :     0.028003
      dxz     :     0.007149
      dyz     :     0.007872
      dx2y2   :     0.001857
      dxy     :     0.001783
 34 H s       :     0.698019  s :     0.698019
      pz      :     0.084948  p :     0.348605
      px      :     0.102871
      py      :     0.160787
      dz2     :     0.008853  d :     0.099255
      dxz     :     0.001028
      dyz     :     0.031383
      dx2y2   :     0.023065
      dxy     :     0.034926
 35 H s       :     0.846068  s :     0.846068
      pz      :     0.033552  p :     0.159212
      px      :     0.050986
      py      :     0.074673
      dz2     :     0.002752  d :     0.028309
      dxz     :     0.001401
      dyz     :     0.008021
      dx2y2   :     0.008053
      dxy     :     0.008081


                      *****************************
                      * MAYER POPULATION ANALYSIS *
                      *****************************

  NA   - Mulliken gross atomic population
  ZA   - Total nuclear charge
  QA   - Mulliken gross atomic charge
  VA   - Mayer's total valence
  BVA  - Mayer's bonded valence
  FA   - Mayer's free valence

  ATOM       NA         ZA         QA         VA         BVA        FA
  0 C      6.2764     6.0000    -0.2764     3.8714     3.8714     0.0000
  1 C      5.9622     6.0000     0.0378     3.8264     3.8264    -0.0000
  2 O      8.3527     8.0000    -0.3527     2.0826     2.0826     0.0000
  3 C      5.5352     6.0000     0.4648     4.1832     4.1832    -0.0000
  4 O      8.4486     8.0000    -0.4486     2.0406     2.0406    -0.0000
  5 C      6.1325     6.0000    -0.1325     3.6672     3.6672     0.0000
  6 C      5.8535     6.0000     0.1465     3.8415     3.8415    -0.0000
  7 C      6.3144     6.0000    -0.3144     3.8819     3.8819    -0.0000
  8 N      7.1248     7.0000    -0.1248     3.2854     3.2854    -0.0000
  9 C      5.8067     6.0000     0.1933     4.1597     4.1597     0.0000
 10 S     16.4221    16.0000    -0.4221     1.7994     1.7994    -0.0000
 11 N      7.2228     7.0000    -0.2228     3.1915     3.1915    -0.0000
 12 C      5.9872     6.0000     0.0128     3.9928     3.9928     0.0000
 13 C      5.9716     6.0000     0.0284     3.7125     3.7125     0.0000
 14 C      6.1436     6.0000    -0.1436     3.8579     3.8579     0.0000
 15 C      6.1633     6.0000    -0.1633     3.8490     3.8490     0.0000
 16 C      6.2320     6.0000    -0.2320     3.8317     3.8317     0.0000
 17 C      5.7410     6.0000     0.2590     3.8976     3.8976     0.0000
 18 O      8.3555     8.0000    -0.3555     2.1040     2.1040     0.0000
 19 C      6.2806     6.0000    -0.2806     3.8127     3.8127     0.0000
 20 H      0.8820     1.0000     0.1180     0.9926     0.9926    -0.0000
 21 H      0.9104     1.0000     0.0896     0.9838     0.9838     0.0000
 22 H      0.8999     1.0000     0.1001     0.9859     0.9859     0.0000
 23 H      0.8860     1.0000     0.1140     0.9736     0.9736    -0.0000
 24 H      0.8917     1.0000     0.1083     0.9817     0.9817    -0.0000
 25 H      0.9037     1.0000     0.0963     0.9871     0.9871     0.0000
 26 H      0.8730     1.0000     0.1270     0.9787     0.9787    -0.0000
 27 H      0.8720     1.0000     0.1280     0.9862     0.9862    -0.0000
 28 H      0.7911     1.0000     0.2089     1.0168     1.0168    -0.0000
 29 H      0.7950     1.0000     0.2050     1.0135     1.0135    -0.0000
 30 H      0.8479     1.0000     0.1521     0.9961     0.9961    -0.0000
 31 H      0.8396     1.0000     0.1604     0.9880     0.9880     0.0000
 32 H      0.8235     1.0000     0.1765     0.9738     0.9738     0.0000
 33 H      0.8403     1.0000     0.1597     0.9867     0.9867    -0.0000
 34 H      0.7512     1.0000     0.2488     1.0020     1.0020    -0.0000
 35 H      0.8661     1.0000     0.1339     0.9933     0.9933     0.0000

  Mayer bond orders larger than 0.100000
B(  0-C ,  1-C ) :   0.9582 B(  0-C , 20-H ) :   0.9747 B(  0-C , 21-H ) :   0.9795 
B(  0-C , 22-H ) :   0.9747 B(  1-C ,  2-O ) :   0.8644 B(  1-C , 23-H ) :   0.9828 
B(  1-C , 24-H ) :   0.9764 B(  2-O ,  3-C ) :   1.1862 B(  3-C ,  4-O ) :   1.9157 
B(  3-C ,  5-C ) :   1.0602 B(  5-C ,  6-C ) :   1.6673 B(  5-C , 12-C ) :   0.9696 
B(  6-C ,  7-C ) :   0.9478 B(  6-C ,  8-N ) :   1.1331 B(  7-C , 25-H ) :   0.9946 
B(  7-C , 26-H ) :   0.9675 B(  7-C , 27-H ) :   0.9632 B(  8-N ,  9-C ) :   1.1971 
B(  8-N , 28-H ) :   0.9383 B(  9-C , 10-S ) :   1.6612 B(  9-C , 11-N ) :   1.2416 
B( 11-N , 12-C ) :   0.9926 B( 11-N , 29-H ) :   0.9493 B( 12-C , 13-C ) :   0.9483 
B( 12-C , 30-H ) :   1.0035 B( 13-C , 14-C ) :   1.3978 B( 13-C , 19-C ) :   1.3148 
B( 14-C , 15-C ) :   1.3917 B( 14-C , 31-H ) :   0.9585 B( 15-C , 16-C ) :   1.4007 
B( 15-C , 32-H ) :   0.9646 B( 16-C , 17-C ) :   1.3617 B( 16-C , 33-H ) :   0.9629 
B( 17-C , 18-O ) :   1.0902 B( 17-C , 19-C ) :   1.3772 B( 18-O , 34-H ) :   0.9699 
B( 19-C , 35-H ) :   0.9709 

-------
TIMINGS
-------

Total SCF time: 0 days 2 hours 2 min 48 sec 

Total time                  ....    7368.386 sec
Sum of individual times     ....    7364.571 sec  ( 99.9%)

Fock matrix formation       ....    7350.522 sec  ( 99.8%)
Diagonalization             ....       1.786 sec  (  0.0%)
Density matrix formation    ....       0.208 sec  (  0.0%)
Population analysis         ....       0.321 sec  (  0.0%)
Initial guess               ....       6.262 sec  (  0.1%)
Orbital Transformation      ....       0.000 sec  (  0.0%)
Orbital Orthonormalization  ....       0.000 sec  (  0.0%)
DIIS solution               ....       1.862 sec  (  0.0%)
SOSCF solution              ....       1.978 sec  (  0.0%)

Maximum memory used throughout the entire SCF-calculation: 715.5 MB

------------------------------------------------------------------------------
                                ORCA  MP2 
------------------------------------------------------------------------------

Freezing NCore=48 chemical core electrons

-------------
RI-MP2 ENERGY
-------------
Dimension of the basis                    ...  828
Memory devoted to MP2                     ...  256 MB   
Data format for buffers                   ... DOUBLE
Compression type for matrix containers    ... UNCOMPRESSED
Overall scaling of the MP2 energy         ...   1.000e+00
Calculating two index integrals           ... done (    0.049 sec)
Cholesky decomposition of V**-1           ... done (    0.567 sec)

-----------------
RI-TRANSFORMATION (AUX index driven)
-----------------

Dimension of the orbital-basis         ... 828
Dimension of the aux-basis             ... 2141
Transformation of internal/external MOs...   24-  76 to   77- 827
Number Format for Storage              ... Double (8 Byte)
Integral mode                          ... Direct

First Phase: integral generation and transformation of MO indices
  Aux angular momentum 0               ... done (    4.966 sec)
  Aux angular momentum 1               ... done (    8.303 sec)
  Aux angular momentum 2               ... done (   12.216 sec)
  Aux angular momentum 3               ... done (    8.814 sec)
  Aux angular momentum 4               ... done (    3.504 sec)
Closing buffer VIA ( 0.63 GB; CompressionRatio= 1.00)
  Phase 1 completed in    38.008 sec
Second Phase: sorting and transformation of aux index

IA-Transformation
Memory available                       ... 158 MB 
Max. # MO pairs treated in a batch     ... 11    
# of internal orbitals                 ... 53
# batches for internal orbitals        ... 5
Closing buffer IAV ( 0.63 GB; CompressionRatio= 1.00)
(ia|v) transformation done in    19.713 sec

  Phase 2 completed in    19.721 sec
RI-Integral transformation completed in    57.735 sec
Opening buffers                              ... done

Starting loop over batches of integrals:

Operator 0  - window                       ... ( 24- 76)x( 77-827)
Operator 0  - Memory available             ...   256 MB
Operator 0  - Memory needed per MO         ...  12.3 MB
Operator 0  - Number of orbitals per batch ... 13
Operator 0  - Number of batches            ... 5

OPERATOR  0   PASS   0:  MOs    24 ...   36
  Reading integrals       ... ok
  Internal MO  26
  Internal MO  29
  Internal MO  32
  Internal MO  35
OPERATOR  0   PASS   1:  MOs    37 ...   49
  Reading integrals       ... ok
  Internal MO  38
  Internal MO  41
  Internal MO  44
  Internal MO  47
OPERATOR  0   PASS   2:  MOs    50 ...   62
  Reading integrals       ... ok
  Internal MO  50
  Internal MO  53
  Internal MO  56
  Internal MO  59
  Internal MO  62
OPERATOR  0   PASS   3:  MOs    63 ...   75
  Reading integrals       ... ok
  Internal MO  65
  Internal MO  68
  Internal MO  71
  Internal MO  74
OPERATOR  0   PASS   4:  MOs    76 ...   76
  Reading integrals       ... ok
Time spent in pair loops =   104.875 sec
Deleting buffer (Ka|jb)[aa] ...done

-----------------------------------------------
 RI-MP2 CORRELATION ENERGY:     -3.538819512 Eh
-----------------------------------------------


-------
TIMINGS
-------

Total time                :  163.337 sec
Integral trafo            :   57.761 sec ( 35.4%)
I/O of integrals          :    0.969 sec (  0.6%)
K(i,j) Operators          :   71.842 sec ( 44.0%)
T(i,j) pair energies      :   11.399 sec (  7.0%)
V-calculation             :    0.049 sec (  0.0%)
V**(-1/2)                 :    0.567 sec (  0.3%)
Gamma(ia|P)               :    0.000 sec (  0.0%)
Gamma-Trafo               :    0.000 sec (  0.0%)
D(virtual)                :    0.000 sec (  0.0%)
D(internal)               :    0.000 sec (  0.0%)
W(virtual)                :    0.000 sec (  0.0%)
W(internal)               :    0.000 sec (  0.0%)
L(virtual)                :    0.000 sec (  0.0%)
L(internal)               :    0.000 sec (  0.0%)
G(D)                      :    0.000 sec (  0.0%)
G(Z)                      :    0.000 sec (  0.0%)
Z-Vector Solution         :    0.000 sec (  0.0%)
3-Index Derivative        :    0.000 sec (  0.0%)
2-Index Derivative        :    0.000 sec (  0.0%)
Separable Gradient        :    0.000 sec (  0.0%)


---------------------------------------
MP2 TOTAL ENERGY:    -1274.293261570 Eh
---------------------------------------

Maximum memory used throughout the entire MP2-calculation: 302.5 MB

-------------------------   --------------------
FINAL SINGLE POINT ENERGY     -1274.293261569728
-------------------------   --------------------


                            ***************************************
                            *     ORCA property calculations      *
                            ***************************************


  WARNING: The energy has been calculated at the MP2 level but the densities
           used in the property calculations are still SCF densities
           MP2 response densities have not been calculated 
           use %mp2 Density relaxed end
           or  %mp2 Density unrelaxed end

                                    ---------------------
                                    Active property flags
                                    ---------------------
   (+) Dipole Moment


------------------------------------------------------------------------------
                       ORCA ELECTRIC PROPERTIES CALCULATION
------------------------------------------------------------------------------

Dipole Moment Calculation                       ... on
Quadrupole Moment Calculation                   ... off
Polarizability Calculation                      ... off
GBWName                                         ... qm_input.vacu.gbw
Electron density file                           ... qm_input.vacu.scfp
The origin for moment calculation is the CENTER OF MASS  = (-11.122330,  6.458348  8.353177)

-------------
DIPOLE MOMENT
-------------
                                X             Y             Z
Electronic contribution:     11.17165      10.62623       9.36053
Nuclear contribution   :    -13.07812     -11.07487     -10.48603
                        -----------------------------------------
Total Dipole Moment    :     -1.90646      -0.44865      -1.12550
                        -----------------------------------------
Magnitude (a.u.)       :      2.25890
Magnitude (Debye)      :      5.74167



--------------------
Rotational spectrum 
--------------------
 
Rotational constants in cm-1:     0.010976     0.008215     0.005529 
Rotational constants in MHz :   329.051339   246.277411   165.747562 

 Dipole components along the rotational axes: 
x,y,z [a.u.] :    -2.073746    -0.270496     0.853841 
x,y,z [Debye]:    -5.271043    -0.687547     2.170291 

 

Timings for individual modules:

Sum of individual times         ...     7534.132 sec (= 125.569 min)
GTO integral calculation        ...        1.954 sec (=   0.033 min)   0.0 %
SCF iterations                  ...     7368.463 sec (= 122.808 min)  97.8 %
MP2 module                      ...      163.714 sec (=   2.729 min)   2.2 %
                             ****ORCA TERMINATED NORMALLY****
TOTAL RUN TIME: 0 days 2 hours 5 minutes 35 seconds 350 msec
