
                                 *****************
                                 * O   R   C   A *
                                 *****************

           --- An Ab Initio, DFT and Semiempirical electronic structure package ---

                  #######################################################
                  #                        -***-                        #
                  #          Department of theory and spectroscopy      #
                  #               Directorship: Frank Neese             #
                  #        Max Planck Institute fuer Kohlenforschung    #
                  #                Kaiser Wilhelm Platz 1               #
                  #                 D-45470 Muelheim/Ruhr               #
                  #                      Germany                        #
                  #                                                     #
                  #                  All rights reserved                #
                  #                        -***-                        #
                  #######################################################


                         Program Version 4.2.0 -  RELEASE  -


 With contributions from (in alphabetic order):
   Daniel Aravena         : Magnetic Suceptibility
   Michael Atanasov       : Ab Initio Ligand Field Theory (pilot matlab implementation)
   Alexander A. Auer      : GIAO ZORA, VPT2
   Ute Becker             : Parallelization
   Giovanni Bistoni       : ED, misc. LED, open-shell LED, HFLED
   Martin Brehm           : Molecular dynamics
   Dmytro Bykov           : SCF Hessian
   Vijay G. Chilkuri      : MRCI spin determinant printing, contributions to CSF-ICE
   Dipayan Datta          : RHF DLPNO-CCSD density
   Achintya Kumar Dutta   : EOM-CC, STEOM-CC
   Dmitry Ganyushin       : Spin-Orbit,Spin-Spin,Magnetic field MRCI
   Miquel Garcia          : C-PCM Hessian, Gaussian charge scheme
   Yang Guo               : DLPNO-NEVPT2, CIM, IAO-localization
   Andreas Hansen         : Spin unrestricted coupled pair/coupled cluster methods
   Benjamin Helmich-Paris : CASSCF linear response (MC-RPA)
   Lee Huntington         : MR-EOM, pCC
   Robert Izsak           : Overlap fitted RIJCOSX, COSX-SCS-MP3, EOM
   Christian Kollmar      : KDIIS, OOCD, Brueckner-CCSD(T), CCSD density
   Simone Kossmann        : Meta GGA functionals, TD-DFT gradient, OOMP2, MP2 Hessian
   Martin Krupicka        : AUTO-CI
   Lucas Lang             : DCDCAS
   Dagmar Lenk            : GEPOL surface, SMD
   Dimitrios Liakos       : Extrapolation schemes; Compound Job, initial MDCI parallelization
   Dimitrios Manganas     : Further ROCIS development; embedding schemes
   Dimitrios Pantazis     : SARC Basis sets
   Taras Petrenko         : DFT Hessian,TD-DFT gradient, ASA, ECA, R-Raman, ABS, FL, XAS/XES, NRVS
   Peter Pinski           : DLPNO-MP2, DLPNO-MP2 Gradient
   Christoph Reimann      : Effective Core Potentials
   Marius Retegan         : Local ZFS, SOC
   Christoph Riplinger    : Optimizer, TS searches, QM/MM, DLPNO-CCSD(T), (RO)-DLPNO pert. Triples
   Tobias Risthaus        : Range-separated hybrids, TD-DFT gradient, RPA, STAB
   Michael Roemelt        : Original ROCIS implementation
   Masaaki Saitow         : Open-shell DLPNO-CCSD energy and density
   Barbara Sandhoefer     : DKH picture change effects
   Avijit Sen             : IP-ROCIS
   Kantharuban Sivalingam : CASSCF convergence, NEVPT2, FIC-MRCI
   Bernardo de Souza      : ESD, SOC TD-DFT
   Georgi Stoychev        : AutoAux, RI-MP2 NMR
   Willem Van den Heuvel  : Paramagnetic NMR
   Boris Wezisla          : Elementary symmetry handling
   Frank Wennmohs         : Technical directorship


 We gratefully acknowledge several colleagues who have allowed us to
 interface, adapt or use parts of their codes:
   Stefan Grimme, W. Hujo, H. Kruse,             : VdW corrections, initial TS optimization,
                  C. Bannwarth                     DFT functionals, gCP, sTDA/sTD-DF
   Ed Valeev, F. Pavosevic, A. Kumar             : LibInt (2-el integral package), F12 methods
   Garnet Chan, S. Sharma, J. Yang, R. Olivares  : DMRG
   Ulf Ekstrom                                   : XCFun DFT Library
   Mihaly Kallay                                 : mrcc  (arbitrary order and MRCC methods)
   Andreas Klamt, Michael Diedenhofen            : otool_cosmo (COSMO solvation model)
   Jiri Pittner, Ondrej Demel                    : Mk-CCSD
   Frank Weinhold                                : gennbo (NPA and NBO analysis)
   Christopher J. Cramer and Donald G. Truhlar   : smd solvation model
   Lars Goerigk                                  : TD-DFT with DH, B97 family of functionals
   V. Asgeirsson, H. Jonsson                     : NEB implementation
   FAccTs GmbH                                   : IRC, NEB, NEB-TS, Multilevel, MM, QM/MM, CI optimization
   S Lehtola, MJT Oliveira, MAL Marques          : LibXC Library


 Your calculation uses the libint2 library for the computation of 2-el integrals
 For citations please refer to: http://libint.valeyev.net

 Your ORCA version has been built with support for libXC version: 4.2.3
 For citations please refer to: https://tddft.org/programs/libxc/

 This ORCA versions uses:
   CBLAS   interface :  Fast vector & matrix operations
   LAPACKE interface :  Fast linear algebra routines
   SCALAPACK package :  Parallel linear algebra routines


----- Orbital basis set information -----
Your calculation utilizes the basis: cc-pVTZ 
       H, B-Ne : Obtained from the ccRepo (grant-hill.group.shef.ac.uk/ccrepo) Feb. 2017
                 T. H. Dunning, Jr., J. Chem. Phys. 90, 1007 (1989)
            He : Obtained from the ccRepo (grant-hill.group.shef.ac.uk/ccrepo) Feb. 2017
                 D. E. Woon, T. H. Dunning, Jr., J. Chem. Phys. 100, 2975 (1994)
  Li-Be, Na-Mg : Obtained from the ccRepo (grant-hill.group.shef.ac.uk/ccrepo) Feb. 2017
                 B. P. Prascher, D. E. Woon, K. A. Peterson, T. H. Dunning, Jr., A. K. Wilson, Theor. Chem. Acc. 128, 69 (2011)
         Al-Ar : Obtained from the ccRepo (grant-hill.group.shef.ac.uk/ccrepo) Feb. 2017
                 D. E. Woon, T. H. Dunning, Jr., J. Chem. Phys. 98, 1358 (1993)
            Ca : Obtained from the Peterson Research Group Website (tyr0.chem.wsu.edu/~kipeters) Feb. 2017
                 J. Koput, K. A. Peterson, J. Phys. Chem. 106, 9595 (2002)
         Sc-Zn : Obtained from the ccRepo (grant-hill.group.shef.ac.uk/ccrepo) Feb. 2017
                 N. B. Balabanov, K. A. Peterson, J. Chem. Phys. 123, 064107 (2005)
                 N. B. Balabanov, K. A. Peterson, J. Chem. Phys. 125, 074110 (2006)
         Ga-Kr : Obtained from the ccRepo (grant-hill.group.shef.ac.uk/ccrepo) Feb. 2017
                 A. K. Wilson, D. E. Woon, K. A. Peterson, T. H. Dunning, Jr., J. Chem. Phys. 110, 7667 (1999)
             Y : Obtained from the ccRepo (grant-hill.group.shef.ac.uk/ccrepo) Feb. 2017
                 K. A. Peterson, D. Figgen, M. Dolg, H. Stoll, J. Chem. Phys. 126, 124101 (2007)
        Ag, Au : Obtained from the Peterson Research Group Website (tyr0.chem.wsu.edu/~kipeters) Feb. 2017
                 K. A. Peterson, C. Puzzarini, Theor. Chem. Acc. 114, 283 (2005)

----- AuxC basis set information -----
Your calculation utilizes the auxiliary basis: cc-pVTZ/C 
  Obtained from the EMSL Basis Set Exchange (bse.pnl.gov) Feb. 2017
  H-He, B-F, Al-Ar, Ga-Kr : F. Weigend, A. Kohn, C. Hattig, J. Chem. Phys. 116, 3175 (2002)
             Li-Be, Na-Mg : C. Haettig, Phys. Chem. Chem. Phys. 7, 59 (2005)
                       Ne : C. Haettig, Phys. Chem. Chem. Phys. 7, 59 (2005)
                            F. Weigend, A. Kohn, C. Hattig, J. Chem. Phys. 116, 3175 (2002)
                    Sc-Zn : J. G. Hill, J. A. Platts, J. Chem. Phys. 128, 044104 (2008)

================================================================================
                                        WARNINGS
                       Please study these warnings very carefully!
================================================================================


WARNING: No MP2 level density has been requested!
         To caclulate MP2 level properties use
         %mp2 Density relaxed end
         or
         %mp2 Density unrelaxed end

WARNING: Post HF methods need fully converged wavefunctions
  ===> : Setting SCFConvForced true
         You can overwrite this default with %scf ConvForced false 


INFO   : the flag for use of LIBINT has been found!

================================================================================
                                       INPUT FILE
================================================================================
NAME = CONFS/Conf924.orca
|  1> ! ri-mp2 cc-pvtz cc-pvtz/c TightSCF NoKeepInts
|  2> 
|  3> %scf
|  4>   MaxCore 4096
|  5> end
|  6> *xyz  0  1
|  7>     C       15.3172986   13.9818414   15.4779398
|  8>     C       15.0246289   15.4546565   15.8086666
|  9>     O       16.2061389   16.2099495   15.4995554
| 10>     C       16.0706986   17.5629860   15.4190481
| 11>     O       15.3196517   18.0711395   14.6056440
| 12>     C       16.8083556   18.3002913   16.5048807
| 13>     C       16.9438241   19.6507072   16.4553670
| 14>     C       16.2094409   20.6122396   15.5438854
| 15>     N       17.8443537   20.3153238   17.2909286
| 16>     C       18.7852216   19.6928137   18.0655452
| 17>     S       19.8878374   20.5431144   18.9581270
| 18>     N       18.7815180   18.3211943   18.0459405
| 19>     C       17.7745201   17.4778290   17.3751681
| 20>     C       17.0926079   16.5108194   18.3335861
| 21>     C       17.4463967   15.1491706   18.3453918
| 22>     C       16.8099871   14.2543612   19.2219098
| 23>     C       15.8163520   14.7267432   20.0964871
| 24>     C       15.4688765   16.0847536   20.0925699
| 25>     O       14.5101948   16.5436812   20.9355921
| 26>     C       16.1023916   16.9724995   19.2173313
| 27>     H       14.4387463   13.3594260   15.6862364
| 28>     H       16.1537284   13.6083424   16.0809414
| 29>     H       15.5755659   13.8687382   14.4175879
| 30>     H       14.1780105   15.7976077   15.1977998
| 31>     H       14.7599889   15.5662939   16.8685617
| 32>     H       15.1244710   20.4648950   15.6200671
| 33>     H       16.4900113   20.4429061   14.4963698
| 34>     H       16.4123322   21.6646090   15.7748987
| 35>     H       17.8738169   21.3224213   17.2951780
| 36>     H       19.4687337   17.8902674   18.6513627
| 37>     H       18.4156525   16.9324163   16.6678421
| 38>     H       18.2108127   14.7823140   17.6652873
| 39>     H       17.0877190   13.2016050   19.2223757
| 40>     H       15.3227289   14.0396242   20.7760566
| 41>     H       14.2294931   15.8011509   21.4915941
| 42>     H       15.8248942   18.0212674   19.2322764
| 43> *
| 44> 
| 45>                          ****END OF INPUT****
================================================================================

                       ****************************
                       * Single Point Calculation *
                       ****************************

---------------------------------
CARTESIAN COORDINATES (ANGSTROEM)
---------------------------------
  C     15.317299   13.981841   15.477940
  C     15.024629   15.454657   15.808667
  O     16.206139   16.209950   15.499555
  C     16.070699   17.562986   15.419048
  O     15.319652   18.071140   14.605644
  C     16.808356   18.300291   16.504881
  C     16.943824   19.650707   16.455367
  C     16.209441   20.612240   15.543885
  N     17.844354   20.315324   17.290929
  C     18.785222   19.692814   18.065545
  S     19.887837   20.543114   18.958127
  N     18.781518   18.321194   18.045941
  C     17.774520   17.477829   17.375168
  C     17.092608   16.510819   18.333586
  C     17.446397   15.149171   18.345392
  C     16.809987   14.254361   19.221910
  C     15.816352   14.726743   20.096487
  C     15.468876   16.084754   20.092570
  O     14.510195   16.543681   20.935592
  C     16.102392   16.972500   19.217331
  H     14.438746   13.359426   15.686236
  H     16.153728   13.608342   16.080941
  H     15.575566   13.868738   14.417588
  H     14.178010   15.797608   15.197800
  H     14.759989   15.566294   16.868562
  H     15.124471   20.464895   15.620067
  H     16.490011   20.442906   14.496370
  H     16.412332   21.664609   15.774899
  H     17.873817   21.322421   17.295178
  H     19.468734   17.890267   18.651363
  H     18.415653   16.932416   16.667842
  H     18.210813   14.782314   17.665287
  H     17.087719   13.201605   19.222376
  H     15.322729   14.039624   20.776057
  H     14.229493   15.801151   21.491594
  H     15.824894   18.021267   19.232276

----------------------------
CARTESIAN COORDINATES (A.U.)
----------------------------
  NO LB      ZA    FRAG     MASS         X           Y           Z
   0 C     6.0000    0    12.011   28.945499   26.421851   29.249067
   1 C     6.0000    0    12.011   28.392434   29.205068   29.874050
   2 O     8.0000    0    15.999   30.625164   30.632365   29.289915
   3 C     6.0000    0    12.011   30.369219   33.189234   29.137778
   4 O     8.0000    0    15.999   28.949946   34.149505   27.600667
   5 C     6.0000    0    12.011   31.763189   34.582539   31.189704
   6 C     6.0000    0    12.011   32.019187   37.134455   31.096137
   7 C     6.0000    0    12.011   30.631404   38.951488   29.373686
   8 N     7.0000    0    14.007   33.720942   38.390398   32.675120
   9 C     6.0000    0    12.011   35.498924   37.214025   34.138933
  10 S    16.0000    0    32.060   37.582566   38.820860   35.825668
  11 N     7.0000    0    14.007   35.491925   34.622040   34.101885
  12 C     6.0000    0    12.011   33.588975   33.028310   32.834309
  13 C     6.0000    0    12.011   32.300348   31.200927   34.645457
  14 C     6.0000    0    12.011   32.968912   28.627784   34.667766
  15 C     6.0000    0    12.011   31.766272   26.936839   36.324145
  16 C     6.0000    0    12.011   29.888574   27.829511   37.976857
  17 C     6.0000    0    12.011   29.231940   30.395779   37.969454
  18 O     8.0000    0    15.999   27.420294   31.263027   39.562536
  19 C     6.0000    0    12.011   30.429110   32.073376   36.315493
  20 H     1.0000    0     1.008   27.285276   25.245656   29.642691
  21 H     1.0000    0     1.008   30.526123   25.716040   30.388575
  22 H     1.0000    0     1.008   29.433554   26.208117   27.245293
  23 H     1.0000    0     1.008   26.792557   29.853152   28.719679
  24 H     1.0000    0     1.008   27.892337   29.416032   31.876962
  25 H     1.0000    0     1.008   28.581108   38.673047   29.517649
  26 H     1.0000    0     1.008   31.161605   38.631494   27.394169
  27 H     1.0000    0     1.008   31.014813   40.940178   29.810238
  28 H     1.0000    0     1.008   33.776619   40.293537   32.683150
  29 H     1.0000    0     1.008   36.790575   33.807706   35.245968
  30 H     1.0000    0     1.008   34.800540   31.997630   31.497657
  31 H     1.0000    0     1.008   34.413449   27.934525   33.382555
  32 H     1.0000    0     1.008   32.291109   24.947418   36.325026
  33 H     1.0000    0     1.008   28.955761   26.531045   39.261057
  34 H     1.0000    0     1.008   26.889845   29.859848   40.613227
  35 H     1.0000    0     1.008   29.904716   34.055260   36.343735

--------------------------------
INTERNAL COORDINATES (ANGSTROEM)
--------------------------------
 C      0   0   0     0.000000000000     0.00000000     0.00000000
 C      1   0   0     1.537602057856     0.00000000     0.00000000
 O      2   1   0     1.435960699293   107.51208681     0.00000000
 C      3   2   1     1.362179602897   116.95985718   165.04608178
 O      4   3   2     1.218161588402   121.00508708   299.62723844
 C      4   3   2     1.505586062063   113.27138686   113.48797814
 C      6   4   3     1.358096618048   120.63195972   170.06548781
 C      7   6   4     1.514814162804   127.21026946    12.60703274
 N      7   6   4     1.396721866682   121.04100441   193.24566983
 C      9   7   6     1.368496294057   124.43291665    10.00018956
 S     10   9   7     1.653927190816   122.00262807   175.90287864
 N     10   9   7     1.371764498510   116.41645089   356.97840403
 C     12  10   9     1.474871320641   125.45797798   353.51393131
 C     13  12  10     1.522720223063   112.49749899   237.42038708
 C     14  13  12     1.406909145645   120.48371179   256.65247265
 C     15  14  13     1.404985710114   120.51227480   180.51638588
 C     16  15  14     1.405468220755   119.62941023   359.74204497
 C     17  16  15     1.401765605964   119.94189212   359.82330960
 O     18  17  16     1.356602953575   120.07743582   180.00106678
 C     18  17  16     1.398383628274   120.29619354     0.29270760
 H      1   2   3     1.096650604142   110.50594673   180.63623073
 H      1   2   3     1.096689218937   110.67854377    60.72450837
 H      1   2   3     1.097196647795   110.57383607   300.50675208
 H      2   1   3     1.098879651346   109.02727272   119.81105446
 H      2   1   3     1.098123336280   110.53956817   239.13334407
 H      8   7   6     1.097576314645   110.62534638    53.08980818
 H      8   7   6     1.097580300398   110.63471361   294.25917574
 H      8   7   6     1.096363707193   113.12754942   173.48887983
 H      9   7   6     1.007537350206   119.80236958   185.22788569
 H     12  10   9     1.012175603205   114.53926463   181.88331919
 H     13  12  10     1.099470708081   100.25964524   119.96327762
 H     15  14  13     1.086948810635   119.88427165   359.91248657
 H     16  15  14     1.088774927145   120.03532645   179.81157813
 H     17  16  15     1.085177861157   119.89781701   180.06501100
 H     19  18  17     0.969166092476   107.57760019     3.50830261
 H     20  18  17     1.084961875409   119.28581835   180.36353989

---------------------------
INTERNAL COORDINATES (A.U.)
---------------------------
 C      0   0   0     0.000000000000     0.00000000     0.00000000
 C      1   0   0     2.905646792302     0.00000000     0.00000000
 O      2   1   0     2.713572460738   107.51208681     0.00000000
 C      3   2   1     2.574146394690   116.95985718   165.04608178
 O      4   3   2     2.301991788943   121.00508708   299.62723844
 C      4   3   2     2.845145328349   113.27138686   113.48797814
 C      6   4   3     2.566430671515   120.63195972   170.06548781
 C      7   6   4     2.862583911484   127.21026946    12.60703274
 N      7   6   4     2.639421813287   121.04100441   193.24566983
 C      9   7   6     2.586083211054   124.43291665    10.00018956
 S     10   9   7     3.125469436088   122.00262807   175.90287864
 N     10   9   7     2.592259222419   116.41645089   356.97840403
 C     12  10   9     2.787102878787   125.45797798   353.51393131
 C     13  12  10     2.877524200173   112.49749899   237.42038708
 C     14  13  12     2.658672980578   120.48371179   256.65247265
 C     15  14  13     2.655038214188   120.51227480   180.51638588
 C     16  15  14     2.655950027156   119.62941023   359.74204497
 C     17  16  15     2.648953099223   119.94189212   359.82330960
 O     18  17  16     2.563608054726   120.07743582   180.00106678
 C     18  17  16     2.642562087597   120.29619354     0.29270760
 H      1   2   3     2.072369306427   110.50594673   180.63623073
 H      1   2   3     2.072442277814   110.67854377    60.72450837
 H      1   2   3     2.073401179389   110.57383607   300.50675208
 H      2   1   3     2.076581595183   109.02727272   119.81105446
 H      2   1   3     2.075152366837   110.53956817   239.13334407
 H      8   7   6     2.074118645758   110.62534638    53.08980818
 H      8   7   6     2.074126177739   110.63471361   294.25917574
 H      8   7   6     2.071827149765   113.12754942   173.48887983
 H      9   7   6     1.903969661587   119.80236958   185.22788569
 H     12  10   9     1.912734689494   114.53926463   181.88331919
 H     13  12  10     2.077698530541   100.25964524   119.96327762
 H     15  14  13     2.054035573691   119.88427165   359.91248657
 H     16  15  14     2.057486433783   120.03532645   179.81157813
 H     17  16  15     2.050688964181   119.89781701   180.06501100
 H     19  18  17     1.831458493062   107.57760019     3.50830261
 H     20  18  17     2.050280810269   119.28581835   180.36353989

---------------------
BASIS SET INFORMATION
---------------------
There are 5 groups of distinct atoms

 Group   1 Type C   : 18s5p2d1f contracted to 4s3p2d1f pattern {8811/311/11/1}
 Group   2 Type O   : 18s5p2d1f contracted to 4s3p2d1f pattern {8811/311/11/1}
 Group   3 Type N   : 18s5p2d1f contracted to 4s3p2d1f pattern {8811/311/11/1}
 Group   4 Type S   : 41s16p2d1f contracted to 5s4p2d1f pattern {13131311/7711/11/1}
 Group   5 Type H   : 5s2p1d contracted to 3s2p1d pattern {311/11/1}

Atom   0C    basis set group =>   1
Atom   1C    basis set group =>   1
Atom   2O    basis set group =>   2
Atom   3C    basis set group =>   1
Atom   4O    basis set group =>   2
Atom   5C    basis set group =>   1
Atom   6C    basis set group =>   1
Atom   7C    basis set group =>   1
Atom   8N    basis set group =>   3
Atom   9C    basis set group =>   1
Atom  10S    basis set group =>   4
Atom  11N    basis set group =>   3
Atom  12C    basis set group =>   1
Atom  13C    basis set group =>   1
Atom  14C    basis set group =>   1
Atom  15C    basis set group =>   1
Atom  16C    basis set group =>   1
Atom  17C    basis set group =>   1
Atom  18O    basis set group =>   2
Atom  19C    basis set group =>   1
Atom  20H    basis set group =>   5
Atom  21H    basis set group =>   5
Atom  22H    basis set group =>   5
Atom  23H    basis set group =>   5
Atom  24H    basis set group =>   5
Atom  25H    basis set group =>   5
Atom  26H    basis set group =>   5
Atom  27H    basis set group =>   5
Atom  28H    basis set group =>   5
Atom  29H    basis set group =>   5
Atom  30H    basis set group =>   5
Atom  31H    basis set group =>   5
Atom  32H    basis set group =>   5
Atom  33H    basis set group =>   5
Atom  34H    basis set group =>   5
Atom  35H    basis set group =>   5
---------------------------------
AUXILIARY/C BASIS SET INFORMATION
---------------------------------
There are 5 groups of distinct atoms

 Group   1 Type C   : 8s6p5d3f1g contracted to 8s6p5d3f1g pattern {11111111/111111/11111/111/1}
 Group   2 Type O   : 8s6p5d3f1g contracted to 8s6p5d3f1g pattern {11111111/111111/11111/111/1}
 Group   3 Type N   : 8s6p5d3f1g contracted to 8s6p5d3f1g pattern {11111111/111111/11111/111/1}
 Group   4 Type S   : 10s8p7d5f2g contracted to 10s8p7d5f2g pattern {1111111111/11111111/1111111/11111/11}
 Group   5 Type H   : 4s3p2d1f contracted to 4s3p2d1f pattern {1111/111/11/1}

Atom   0C    basis set group =>   1
Atom   1C    basis set group =>   1
Atom   2O    basis set group =>   2
Atom   3C    basis set group =>   1
Atom   4O    basis set group =>   2
Atom   5C    basis set group =>   1
Atom   6C    basis set group =>   1
Atom   7C    basis set group =>   1
Atom   8N    basis set group =>   3
Atom   9C    basis set group =>   1
Atom  10S    basis set group =>   4
Atom  11N    basis set group =>   3
Atom  12C    basis set group =>   1
Atom  13C    basis set group =>   1
Atom  14C    basis set group =>   1
Atom  15C    basis set group =>   1
Atom  16C    basis set group =>   1
Atom  17C    basis set group =>   1
Atom  18O    basis set group =>   2
Atom  19C    basis set group =>   1
Atom  20H    basis set group =>   5
Atom  21H    basis set group =>   5
Atom  22H    basis set group =>   5
Atom  23H    basis set group =>   5
Atom  24H    basis set group =>   5
Atom  25H    basis set group =>   5
Atom  26H    basis set group =>   5
Atom  27H    basis set group =>   5
Atom  28H    basis set group =>   5
Atom  29H    basis set group =>   5
Atom  30H    basis set group =>   5
Atom  31H    basis set group =>   5
Atom  32H    basis set group =>   5
Atom  33H    basis set group =>   5
Atom  34H    basis set group =>   5
Atom  35H    basis set group =>   5
------------------------------------------------------------------------------
                           ORCA GTO INTEGRAL CALCULATION
------------------------------------------------------------------------------

                         BASIS SET STATISTICS AND STARTUP INFO

 # of primitive gaussian shells          ...  682
 # of primitive gaussian functions       ... 1312
 # of contracted shells                  ...  298
 # of contracted basis functions         ...  828
 Highest angular momentum                ...    3
 Maximum contraction depth               ...   13
 Integral package used                   ... LIBINT
 Integral threshhold            Thresh   ...  2.500e-11
 Primitive cut-off              TCut     ...  2.500e-12


------------------------------ INTEGRAL EVALUATION ----------------------------


 * One electron integrals 
 Pre-screening matrix                    ... done
 Shell pair data                         ... done (   0.014 sec)

-------------------------------------------------------------------------------
                                 ORCA SCF
-------------------------------------------------------------------------------

------------
SCF SETTINGS
------------
Hamiltonian:
 Ab initio Hamiltonian  Method          .... Hartree-Fock(GTOs)


General Settings:
 Integral files         IntName         .... CONFS/Conf924.orca
 Hartree-Fock type      HFTyp           .... RHF
 Total Charge           Charge          ....    0
 Multiplicity           Mult            ....    1
 Number of Electrons    NEL             ....  154
 Basis Dimension        Dim             ....  828
 Nuclear Repulsion      ENuc            ....   1704.5899818063 Eh

Convergence Acceleration:
 DIIS                   CNVDIIS         .... on
   Start iteration      DIISMaxIt       ....    12
   Startup error        DIISStart       ....  0.200000
   # of expansion vecs  DIISMaxEq       ....     5
   Bias factor          DIISBfac        ....   1.050
   Max. coefficient     DIISMaxC        ....  10.000
 Newton-Raphson         CNVNR           .... off
 SOSCF                  CNVSOSCF        .... on
   Start iteration      SOSCFMaxIt      ....   150
   Startup grad/error   SOSCFStart      ....  0.003300
 Level Shifting         CNVShift        .... on
   Level shift para.    LevelShift      ....    0.2500
   Turn off err/grad.   ShiftErr        ....    0.0010
 Zerner damping         CNVZerner       .... off
 Static damping         CNVDamp         .... on
   Fraction old density DampFac         ....    0.7000
   Max. Damping (<1)    DampMax         ....    0.9800
   Min. Damping (>=0)   DampMin         ....    0.0000
   Turn off err/grad.   DampErr         ....    0.1000
 Fernandez-Rico         CNVRico         .... off

SCF Procedure:
 Maximum # iterations   MaxIter         ....   125
 SCF integral mode      SCFMode         .... Direct
   Integral package                     .... LIBINT
 Reset frequency        DirectResetFreq ....    20
 Integral Threshold     Thresh          ....  2.500e-11 Eh
 Primitive CutOff       TCut            ....  2.500e-12 Eh

Convergence Tolerance:
 Convergence Check Mode ConvCheckMode   .... Total+1el-Energy
 Convergence forced     ConvForced      .... 1
 Energy Change          TolE            ....  1.000e-08 Eh
 1-El. energy change                    ....  1.000e-05 Eh
 Orbital Gradient       TolG            ....  1.000e-05
 Orbital Rotation angle TolX            ....  1.000e-05
 DIIS Error             TolErr          ....  5.000e-07


Diagonalization of the overlap matrix:
Smallest eigenvalue                        ... 3.325e-05
Time for diagonalization                   ...    0.128 sec
Threshold for overlap eigenvalues          ... 1.000e-08
Number of eigenvalues below threshold      ... 0
Time for construction of square roots      ...    0.131 sec
Total time needed                          ...    0.261 sec

-------------------
DFT GRID GENERATION
-------------------

General Integration Accuracy     IntAcc      ...  4.340
Radial Grid Type                 RadialGrid  ... Gauss-Chebyshev
Angular Grid (max. acc.)         AngularGrid ... Lebedev-110
Angular grid pruning method      GridPruning ... 3 (G Style)
Weight generation scheme         WeightScheme... Becke
Basis function cutoff            BFCut       ...    1.0000e-11
Integration weight cutoff        WCut        ...    1.0000e-14
Grids for H and He will be reduced by one unit

# of grid points (after initial pruning)     ...  46246 (   0.0 sec)
# of grid points (after weights+screening)   ...  41296 (   0.3 sec)
nearest neighbour list constructed           ...    0.0 sec
Grid point re-assignment to atoms done       ...    0.0 sec
Grid point division into batches done        ...    0.0 sec
Reduced shell lists constructed in    1.0 sec

Total number of grid points                  ...    41296
Total number of batches                      ...      661
Average number of points per batch           ...       62
Average number of grid points per atom       ...     1147
Average number of shells per batch           ...   149.73 (50.25%)
Average number of basis functions per batch  ...   380.80 (45.99%)
Average number of large shells per batch     ...    96.11 (64.19%)
Average number of large basis fcns per batch ...   246.92 (64.84%)
Maximum spatial batch extension              ...  20.07, 19.90, 21.53 au
Average spatial batch extension              ...   3.52,  3.30,  3.43 au

Time for grid setup =    1.581 sec

------------------------------
INITIAL GUESS: MODEL POTENTIAL
------------------------------
Loading Hartree-Fock densities                     ... done
Calculating cut-offs                               ... done
Setting up the integral package                    ... done
Initializing the effective Hamiltonian             ... done
Starting the Coulomb interaction                   ... done (   3.2 sec)
Reading the grid                                   ... done
Mapping shells                                     ... done
Starting the XC term evaluation                    ... done (   1.4 sec)
Transforming the Hamiltonian                       ... done (   0.1 sec)
Diagonalizing the Hamiltonian                      ... done (   0.1 sec)
Back transforming the eigenvectors                 ... done (   0.0 sec)
Now organizing SCF variables                       ... done
                      ------------------
                      INITIAL GUESS DONE (   6.6 sec)
                      ------------------
--------------
SCF ITERATIONS
--------------
ITER       Energy         Delta-E        Max-DP      RMS-DP      [F,P]     Damp
               ***  Starting incremental Fock matrix formation  ***
  0  -1270.0088799225   0.000000000000 0.04933457  0.00042855  0.3048820 0.7000
  1  -1270.2756920466  -0.266812124093 0.03608654  0.00034496  0.1800480 0.7000
                               ***Turning on DIIS***
  2  -1270.4419894649  -0.166297418332 0.02583568  0.00023235  0.1096436 0.7000
  3  -1272.5680462988  -2.126056833854 0.06310195  0.00050716  0.0828805 0.0000
  4  -1270.7509734125   1.817072886295 0.00899277  0.00009596  0.0070856 0.0000
  5  -1270.8071198292  -0.056146416764 0.00372570  0.00004999  0.0049061 0.0000
                      *** Initiating the SOSCF procedure ***
                           *** Shutting down DIIS ***
                      *** Re-Reading the Fockian *** 
                      *** Removing any level shift *** 
ITER      Energy       Delta-E        Grad      Rot      Max-DP    RMS-DP
  6  -1270.78829251   0.0188273175  0.001866  0.001866  0.001723  0.000026
               *** Restarting incremental Fock matrix formation ***
  7  -1270.80332758  -0.0150350637  0.001093  0.002792  0.001214  0.000015
  8  -1270.80337532  -0.0000477488  0.000480  0.003218  0.001383  0.000017
  9  -1270.80339365  -0.0000183295  0.000164  0.000327  0.000351  0.000004
 10  -1270.80339601  -0.0000023611  0.000054  0.000147  0.000126  0.000001
 11  -1270.80339626  -0.0000002427  0.000027  0.000137  0.000067  0.000001
 12  -1270.80339633  -0.0000000740  0.000010  0.000045  0.000035  0.000000
 13  -1270.80339634  -0.0000000042  0.000003  0.000012  0.000006  0.000000
                  ***Gradient check signals convergence***
              ***Rediagonalizing the Fockian in SOSCF/NRSCF***

               *****************************************************
               *                     SUCCESS                       *
               *           SCF CONVERGED AFTER  14 CYCLES          *
               *****************************************************


----------------
TOTAL SCF ENERGY
----------------

Total Energy       :        -1270.80339633 Eh          -34580.31844 eV

Components:
Nuclear Repulsion  :         1704.58998181 Eh           46384.25153 eV
Electronic Energy  :        -2975.39337813 Eh          -80964.56998 eV
One Electron Energy:        -5130.17995647 Eh         -139599.29371 eV
Two Electron Energy:         2154.78657833 Eh           58634.72373 eV

Virial components:
Potential Energy   :        -2539.82446220 Eh          -69112.13721 eV
Kinetic Energy     :         1269.02106587 Eh           34531.81877 eV
Virial Ratio       :            2.00140449


---------------
SCF CONVERGENCE
---------------

  Last Energy change         ...    7.6184e-09  Tolerance :   1.0000e-08
  Last MAX-Density change    ...    1.7852e-06  Tolerance :   1.0000e-07
  Last RMS-Density change    ...    2.9843e-08  Tolerance :   5.0000e-09
  Last Orbital Gradient      ...    1.1954e-06  Tolerance :   1.0000e-05
  Last Orbital Rotation      ...    2.8018e-06  Tolerance :   1.0000e-05

             **** THE GBW FILE WAS UPDATED (CONFS/Conf924.orca.gbw) ****
             **** DENSITY FILE WAS UPDATED (CONFS/Conf924.orca.scfp) ****
             **** ENERGY FILE WAS UPDATED (CONFS/Conf924.orca.en.tmp) ****
             **** THE GBW FILE WAS UPDATED (CONFS/Conf924.orca.gbw) ****
             **** DENSITY FILE WAS UPDATED (CONFS/Conf924.orca.scfp) ****
----------------
ORBITAL ENERGIES
----------------

  NO   OCC          E(Eh)            E(eV) 
   0   2.0000     -91.890527     -2500.4684 
   1   2.0000     -20.601295      -560.5897 
   2   2.0000     -20.586502      -560.1872 
   3   2.0000     -20.544453      -559.0430 
   4   2.0000     -15.631002      -425.3412 
   5   2.0000     -15.608708      -424.7345 
   6   2.0000     -11.391593      -309.9810 
   7   2.0000     -11.385137      -309.8053 
   8   2.0000     -11.339084      -308.5522 
   9   2.0000     -11.319150      -308.0097 
  10   2.0000     -11.309785      -307.7549 
  11   2.0000     -11.294041      -307.3265 
  12   2.0000     -11.265356      -306.5459 
  13   2.0000     -11.260516      -306.4142 
  14   2.0000     -11.258564      -306.3611 
  15   2.0000     -11.252852      -306.2057 
  16   2.0000     -11.248885      -306.0977 
  17   2.0000     -11.243705      -305.9568 
  18   2.0000     -11.243457      -305.9500 
  19   2.0000     -11.226596      -305.4912 
  20   2.0000      -8.895584      -242.0611 
  21   2.0000      -6.577152      -178.9734 
  22   2.0000      -6.575157      -178.9191 
  23   2.0000      -6.574562      -178.9029 
  24   2.0000      -1.449324       -39.4381 
  25   2.0000      -1.421008       -38.6676 
  26   2.0000      -1.353330       -36.8260 
  27   2.0000      -1.342132       -36.5213 
  28   2.0000      -1.240172       -33.7468 
  29   2.0000      -1.162387       -31.6302 
  30   2.0000      -1.122671       -30.5494 
  31   2.0000      -1.046494       -28.4766 
  32   2.0000      -1.035766       -28.1846 
  33   2.0000      -1.020314       -27.7641 
  34   2.0000      -0.998134       -27.1606 
  35   2.0000      -0.986555       -26.8455 
  36   2.0000      -0.924483       -25.1565 
  37   2.0000      -0.880274       -23.9535 
  38   2.0000      -0.848616       -23.0920 
  39   2.0000      -0.841727       -22.9046 
  40   2.0000      -0.838804       -22.8250 
  41   2.0000      -0.825923       -22.4745 
  42   2.0000      -0.763134       -20.7659 
  43   2.0000      -0.737601       -20.0711 
  44   2.0000      -0.724261       -19.7081 
  45   2.0000      -0.700058       -19.0496 
  46   2.0000      -0.689708       -18.7679 
  47   2.0000      -0.678299       -18.4575 
  48   2.0000      -0.674465       -18.3531 
  49   2.0000      -0.655598       -17.8397 
  50   2.0000      -0.649705       -17.6794 
  51   2.0000      -0.641070       -17.4444 
  52   2.0000      -0.628654       -17.1066 
  53   2.0000      -0.621494       -16.9117 
  54   2.0000      -0.611604       -16.6426 
  55   2.0000      -0.604066       -16.4375 
  56   2.0000      -0.602177       -16.3861 
  57   2.0000      -0.581152       -15.8139 
  58   2.0000      -0.571377       -15.5479 
  59   2.0000      -0.566491       -15.4150 
  60   2.0000      -0.555611       -15.1189 
  61   2.0000      -0.542757       -14.7692 
  62   2.0000      -0.532921       -14.5015 
  63   2.0000      -0.528373       -14.3778 
  64   2.0000      -0.519579       -14.1385 
  65   2.0000      -0.515448       -14.0261 
  66   2.0000      -0.505060       -13.7434 
  67   2.0000      -0.499557       -13.5936 
  68   2.0000      -0.487621       -13.2688 
  69   2.0000      -0.465330       -12.6623 
  70   2.0000      -0.457148       -12.4396 
  71   2.0000      -0.445484       -12.1222 
  72   2.0000      -0.355903        -9.6846 
  73   2.0000      -0.353487        -9.6189 
  74   2.0000      -0.330146        -8.9837 
  75   2.0000      -0.326282        -8.8786 
  76   2.0000      -0.319994        -8.7075 
  77   0.0000       0.072106         1.9621 
  78   0.0000       0.099804         2.7158 
  79   0.0000       0.123229         3.3532 
  80   0.0000       0.129841         3.5332 
  81   0.0000       0.132248         3.5986 
  82   0.0000       0.138676         3.7736 
  83   0.0000       0.151352         4.1185 
  84   0.0000       0.158399         4.3103 
  85   0.0000       0.160345         4.3632 
  86   0.0000       0.167622         4.5612 
  87   0.0000       0.178299         4.8518 
  88   0.0000       0.190264         5.1773 
  89   0.0000       0.192892         5.2489 
  90   0.0000       0.201787         5.4909 
  91   0.0000       0.209204         5.6927 
  92   0.0000       0.215266         5.8577 
  93   0.0000       0.216823         5.9001 
  94   0.0000       0.228171         6.2089 
  95   0.0000       0.233720         6.3599 
  96   0.0000       0.245272         6.6742 
  97   0.0000       0.259495         7.0612 
  98   0.0000       0.266260         7.2453 
  99   0.0000       0.273726         7.4485 
 100   0.0000       0.294684         8.0188 
 101   0.0000       0.306135         8.3304 
 102   0.0000       0.308617         8.3979 
 103   0.0000       0.316511         8.6127 
 104   0.0000       0.328211         8.9311 
 105   0.0000       0.332982         9.0609 
 106   0.0000       0.339286         9.2324 
 107   0.0000       0.344881         9.3847 
 108   0.0000       0.355864         9.6836 
 109   0.0000       0.365759         9.9528 
 110   0.0000       0.368073        10.0158 
 111   0.0000       0.374907        10.2017 
 112   0.0000       0.377235        10.2651 
 113   0.0000       0.390519        10.6266 
 114   0.0000       0.394930        10.7466 
 115   0.0000       0.401953        10.9377 
 116   0.0000       0.411206        11.1895 
 117   0.0000       0.428686        11.6651 
 118   0.0000       0.431559        11.7433 
 119   0.0000       0.436033        11.8651 
 120   0.0000       0.441245        12.0069 
 121   0.0000       0.447289        12.1714 
 122   0.0000       0.451289        12.2802 
 123   0.0000       0.461054        12.5459 
 124   0.0000       0.466681        12.6990 
 125   0.0000       0.471127        12.8200 
 126   0.0000       0.481065        13.0905 
 127   0.0000       0.482968        13.1422 
 128   0.0000       0.486813        13.2468 
 129   0.0000       0.490683        13.3522 
 130   0.0000       0.501605        13.6494 
 131   0.0000       0.506546        13.7838 
 132   0.0000       0.509828        13.8731 
 133   0.0000       0.514482        13.9998 
 134   0.0000       0.522927        14.2296 
 135   0.0000       0.529912        14.4196 
 136   0.0000       0.533258        14.5107 
 137   0.0000       0.537897        14.6369 
 138   0.0000       0.540160        14.6985 
 139   0.0000       0.550169        14.9709 
 140   0.0000       0.557076        15.1588 
 141   0.0000       0.563101        15.3228 
 142   0.0000       0.564045        15.3485 
 143   0.0000       0.567975        15.4554 
 144   0.0000       0.571941        15.5633 
 145   0.0000       0.576488        15.6870 
 146   0.0000       0.583336        15.8734 
 147   0.0000       0.590553        16.0698 
 148   0.0000       0.594112        16.1666 
 149   0.0000       0.600724        16.3465 
 150   0.0000       0.601134        16.3577 
 151   0.0000       0.608952        16.5704 
 152   0.0000       0.609689        16.5905 
 153   0.0000       0.619168        16.8484 
 154   0.0000       0.623719        16.9722 
 155   0.0000       0.625273        17.0145 
 156   0.0000       0.628141        17.0926 
 157   0.0000       0.631692        17.1892 
 158   0.0000       0.635016        17.2797 
 159   0.0000       0.644354        17.5338 
 160   0.0000       0.649896        17.6846 
 161   0.0000       0.652923        17.7669 
 162   0.0000       0.660877        17.9834 
 163   0.0000       0.665367        18.1056 
 164   0.0000       0.668949        18.2030 
 165   0.0000       0.675686        18.3864 
 166   0.0000       0.676762        18.4156 
 167   0.0000       0.681890        18.5552 
 168   0.0000       0.691378        18.8133 
 169   0.0000       0.704190        19.1620 
 170   0.0000       0.707162        19.2428 
 171   0.0000       0.711600        19.3636 
 172   0.0000       0.715520        19.4703 
 173   0.0000       0.722527        19.6609 
 174   0.0000       0.726235        19.7619 
 175   0.0000       0.732499        19.9323 
 176   0.0000       0.735134        20.0040 
 177   0.0000       0.744060        20.2469 
 178   0.0000       0.751152        20.4399 
 179   0.0000       0.754989        20.5443 
 180   0.0000       0.760392        20.6913 
 181   0.0000       0.767841        20.8940 
 182   0.0000       0.778639        21.1879 
 183   0.0000       0.792562        21.5667 
 184   0.0000       0.798891        21.7389 
 185   0.0000       0.810783        22.0625 
 186   0.0000       0.815223        22.1833 
 187   0.0000       0.820567        22.3288 
 188   0.0000       0.828610        22.5476 
 189   0.0000       0.831567        22.6281 
 190   0.0000       0.841768        22.9057 
 191   0.0000       0.847405        23.0591 
 192   0.0000       0.851378        23.1672 
 193   0.0000       0.864299        23.5188 
 194   0.0000       0.867666        23.6104 
 195   0.0000       0.877173        23.8691 
 196   0.0000       0.881235        23.9796 
 197   0.0000       0.887761        24.1572 
 198   0.0000       0.902969        24.5710 
 199   0.0000       0.911049        24.7909 
 200   0.0000       0.914015        24.8716 
 201   0.0000       0.919173        25.0120 
 202   0.0000       0.924156        25.1476 
 203   0.0000       0.937209        25.5028 
 204   0.0000       0.941028        25.6067 
 205   0.0000       0.944135        25.6912 
 206   0.0000       0.949442        25.8356 
 207   0.0000       0.953750        25.9529 
 208   0.0000       0.969266        26.3751 
 209   0.0000       0.973542        26.4914 
 210   0.0000       0.985784        26.8246 
 211   0.0000       0.994067        27.0499 
 212   0.0000       1.003649        27.3107 
 213   0.0000       1.004953        27.3462 
 214   0.0000       1.010446        27.4956 
 215   0.0000       1.013856        27.5884 
 216   0.0000       1.023864        27.8608 
 217   0.0000       1.029411        28.0117 
 218   0.0000       1.032547        28.0970 
 219   0.0000       1.040528        28.3142 
 220   0.0000       1.049783        28.5661 
 221   0.0000       1.054115        28.6839 
 222   0.0000       1.065518        28.9942 
 223   0.0000       1.067001        29.0346 
 224   0.0000       1.080745        29.4086 
 225   0.0000       1.097142        29.8548 
 226   0.0000       1.100209        29.9382 
 227   0.0000       1.105472        30.0814 
 228   0.0000       1.111943        30.2575 
 229   0.0000       1.122042        30.5323 
 230   0.0000       1.126544        30.6548 
 231   0.0000       1.128966        30.7207 
 232   0.0000       1.139850        31.0169 
 233   0.0000       1.148506        31.2524 
 234   0.0000       1.152631        31.3647 
 235   0.0000       1.153488        31.3880 
 236   0.0000       1.165681        31.7198 
 237   0.0000       1.172012        31.8921 
 238   0.0000       1.172789        31.9132 
 239   0.0000       1.183488        32.2043 
 240   0.0000       1.184985        32.2451 
 241   0.0000       1.193236        32.4696 
 242   0.0000       1.204897        32.7869 
 243   0.0000       1.208747        32.8917 
 244   0.0000       1.213684        33.0260 
 245   0.0000       1.224636        33.3240 
 246   0.0000       1.229838        33.4656 
 247   0.0000       1.231838        33.5200 
 248   0.0000       1.251181        34.0464 
 249   0.0000       1.262936        34.3662 
 250   0.0000       1.267339        34.4861 
 251   0.0000       1.269911        34.5560 
 252   0.0000       1.281261        34.8649 
 253   0.0000       1.289894        35.0998 
 254   0.0000       1.298127        35.3238 
 255   0.0000       1.302782        35.4505 
 256   0.0000       1.318301        35.8728 
 257   0.0000       1.323061        36.0023 
 258   0.0000       1.335867        36.3508 
 259   0.0000       1.340449        36.4755 
 260   0.0000       1.346774        36.6476 
 261   0.0000       1.352570        36.8053 
 262   0.0000       1.359498        36.9938 
 263   0.0000       1.367147        37.2020 
 264   0.0000       1.375328        37.4246 
 265   0.0000       1.385530        37.7022 
 266   0.0000       1.393304        37.9137 
 267   0.0000       1.407477        38.2994 
 268   0.0000       1.415009        38.5044 
 269   0.0000       1.418784        38.6071 
 270   0.0000       1.424397        38.7598 
 271   0.0000       1.434706        39.0403 
 272   0.0000       1.438042        39.1311 
 273   0.0000       1.447575        39.3905 
 274   0.0000       1.451154        39.4879 
 275   0.0000       1.467351        39.9287 
 276   0.0000       1.477380        40.2016 
 277   0.0000       1.480290        40.2807 
 278   0.0000       1.485983        40.4357 
 279   0.0000       1.488680        40.5090 
 280   0.0000       1.493897        40.6510 
 281   0.0000       1.499070        40.7918 
 282   0.0000       1.510192        41.0944 
 283   0.0000       1.517209        41.2854 
 284   0.0000       1.519428        41.3457 
 285   0.0000       1.521974        41.4150 
 286   0.0000       1.531624        41.6776 
 287   0.0000       1.537783        41.8452 
 288   0.0000       1.540109        41.9085 
 289   0.0000       1.546618        42.0856 
 290   0.0000       1.552606        42.2485 
 291   0.0000       1.564813        42.5807 
 292   0.0000       1.572839        42.7991 
 293   0.0000       1.574658        42.8486 
 294   0.0000       1.581623        43.0381 
 295   0.0000       1.592140        43.3243 
 296   0.0000       1.598704        43.5030 
 297   0.0000       1.605687        43.6930 
 298   0.0000       1.612025        43.8654 
 299   0.0000       1.619679        44.0737 
 300   0.0000       1.628650        44.3178 
 301   0.0000       1.636197        44.5232 
 302   0.0000       1.643078        44.7104 
 303   0.0000       1.655503        45.0485 
 304   0.0000       1.662678        45.2438 
 305   0.0000       1.671710        45.4895 
 306   0.0000       1.681471        45.7552 
 307   0.0000       1.687628        45.9227 
 308   0.0000       1.698802        46.2267 
 309   0.0000       1.708509        46.4909 
 310   0.0000       1.712773        46.6069 
 311   0.0000       1.730579        47.0915 
 312   0.0000       1.736816        47.2612 
 313   0.0000       1.755326        47.7648 
 314   0.0000       1.764700        48.0199 
 315   0.0000       1.769127        48.1404 
 316   0.0000       1.787893        48.6510 
 317   0.0000       1.795415        48.8557 
 318   0.0000       1.806374        49.1539 
 319   0.0000       1.811327        49.2887 
 320   0.0000       1.815849        49.4118 
 321   0.0000       1.825390        49.6714 
 322   0.0000       1.829345        49.7790 
 323   0.0000       1.838551        50.0295 
 324   0.0000       1.852731        50.4154 
 325   0.0000       1.858070        50.5606 
 326   0.0000       1.868229        50.8371 
 327   0.0000       1.896780        51.6140 
 328   0.0000       1.911357        52.0107 
 329   0.0000       1.914687        52.1013 
 330   0.0000       1.921190        52.2782 
 331   0.0000       1.923902        52.3520 
 332   0.0000       1.939060        52.7645 
 333   0.0000       1.951719        53.1090 
 334   0.0000       1.959168        53.3117 
 335   0.0000       1.985311        54.0231 
 336   0.0000       2.003019        54.5049 
 337   0.0000       2.004655        54.5494 
 338   0.0000       2.022698        55.0404 
 339   0.0000       2.027566        55.1729 
 340   0.0000       2.033154        55.3249 
 341   0.0000       2.043619        55.6097 
 342   0.0000       2.056059        55.9482 
 343   0.0000       2.064665        56.1824 
 344   0.0000       2.106301        57.3154 
 345   0.0000       2.118141        57.6376 
 346   0.0000       2.129275        57.9405 
 347   0.0000       2.132345        58.0241 
 348   0.0000       2.150643        58.5220 
 349   0.0000       2.164950        58.9113 
 350   0.0000       2.182224        59.3813 
 351   0.0000       2.196799        59.7780 
 352   0.0000       2.212774        60.2126 
 353   0.0000       2.220630        60.4264 
 354   0.0000       2.230624        60.6984 
 355   0.0000       2.258860        61.4667 
 356   0.0000       2.265518        61.6479 
 357   0.0000       2.280136        62.0457 
 358   0.0000       2.289230        62.2931 
 359   0.0000       2.306733        62.7694 
 360   0.0000       2.322046        63.1861 
 361   0.0000       2.325920        63.2915 
 362   0.0000       2.344287        63.7913 
 363   0.0000       2.351936        63.9994 
 364   0.0000       2.363857        64.3238 
 365   0.0000       2.372742        64.5656 
 366   0.0000       2.381081        64.7925 
 367   0.0000       2.393438        65.1288 
 368   0.0000       2.400953        65.3332 
 369   0.0000       2.409266        65.5595 
 370   0.0000       2.444845        66.5276 
 371   0.0000       2.465862        67.0995 
 372   0.0000       2.471222        67.2454 
 373   0.0000       2.485630        67.6374 
 374   0.0000       2.492239        67.8173 
 375   0.0000       2.498986        68.0009 
 376   0.0000       2.523435        68.6662 
 377   0.0000       2.535657        68.9987 
 378   0.0000       2.558381        69.6171 
 379   0.0000       2.562739        69.7357 
 380   0.0000       2.567593        69.8678 
 381   0.0000       2.571845        69.9835 
 382   0.0000       2.590167        70.4820 
 383   0.0000       2.600265        70.7568 
 384   0.0000       2.607769        70.9610 
 385   0.0000       2.619487        71.2799 
 386   0.0000       2.623044        71.3767 
 387   0.0000       2.646599        72.0176 
 388   0.0000       2.658305        72.3361 
 389   0.0000       2.671065        72.6834 
 390   0.0000       2.681306        72.9620 
 391   0.0000       2.685620        73.0794 
 392   0.0000       2.707450        73.6735 
 393   0.0000       2.716144        73.9100 
 394   0.0000       2.728862        74.2561 
 395   0.0000       2.732907        74.3662 
 396   0.0000       2.739513        74.5459 
 397   0.0000       2.751547        74.8734 
 398   0.0000       2.761302        75.1389 
 399   0.0000       2.774295        75.4924 
 400   0.0000       2.779630        75.6376 
 401   0.0000       2.784744        75.7767 
 402   0.0000       2.799045        76.1659 
 403   0.0000       2.809911        76.4616 
 404   0.0000       2.824179        76.8498 
 405   0.0000       2.831301        77.0436 
 406   0.0000       2.843544        77.3768 
 407   0.0000       2.844923        77.4143 
 408   0.0000       2.849401        77.5361 
 409   0.0000       2.863622        77.9231 
 410   0.0000       2.870309        78.1051 
 411   0.0000       2.881812        78.4181 
 412   0.0000       2.892327        78.7042 
 413   0.0000       2.898167        78.8631 
 414   0.0000       2.906921        79.1014 
 415   0.0000       2.921107        79.4874 
 416   0.0000       2.934337        79.8474 
 417   0.0000       2.945039        80.1386 
 418   0.0000       2.946265        80.1719 
 419   0.0000       2.960061        80.5473 
 420   0.0000       2.969012        80.7909 
 421   0.0000       2.975191        80.9591 
 422   0.0000       2.982466        81.1570 
 423   0.0000       2.989960        81.3610 
 424   0.0000       2.997663        81.5706 
 425   0.0000       3.013293        81.9959 
 426   0.0000       3.017375        82.1069 
 427   0.0000       3.027011        82.3692 
 428   0.0000       3.033894        82.5564 
 429   0.0000       3.035792        82.6081 
 430   0.0000       3.041721        82.7694 
 431   0.0000       3.051399        83.0328 
 432   0.0000       3.064573        83.3913 
 433   0.0000       3.073630        83.6377 
 434   0.0000       3.077663        83.7475 
 435   0.0000       3.079954        83.8098 
 436   0.0000       3.086194        83.9796 
 437   0.0000       3.089299        84.0641 
 438   0.0000       3.102668        84.4279 
 439   0.0000       3.109804        84.6221 
 440   0.0000       3.116553        84.8057 
 441   0.0000       3.118856        84.8684 
 442   0.0000       3.127195        85.0953 
 443   0.0000       3.131217        85.2047 
 444   0.0000       3.145086        85.5821 
 445   0.0000       3.147366        85.6442 
 446   0.0000       3.159034        85.9617 
 447   0.0000       3.170679        86.2786 
 448   0.0000       3.182293        86.5946 
 449   0.0000       3.185491        86.6816 
 450   0.0000       3.192010        86.8590 
 451   0.0000       3.201298        87.1117 
 452   0.0000       3.207666        87.2850 
 453   0.0000       3.209944        87.3470 
 454   0.0000       3.231175        87.9247 
 455   0.0000       3.242833        88.2420 
 456   0.0000       3.246422        88.3396 
 457   0.0000       3.249006        88.4100 
 458   0.0000       3.251934        88.4896 
 459   0.0000       3.260112        88.7121 
 460   0.0000       3.274535        89.1046 
 461   0.0000       3.276466        89.1572 
 462   0.0000       3.288472        89.4839 
 463   0.0000       3.289933        89.5236 
 464   0.0000       3.304983        89.9332 
 465   0.0000       3.307006        89.9882 
 466   0.0000       3.318158        90.2917 
 467   0.0000       3.321383        90.3794 
 468   0.0000       3.326457        90.5175 
 469   0.0000       3.329391        90.5973 
 470   0.0000       3.334726        90.7425 
 471   0.0000       3.342068        90.9423 
 472   0.0000       3.350274        91.1656 
 473   0.0000       3.354713        91.2864 
 474   0.0000       3.359781        91.4243 
 475   0.0000       3.362635        91.5020 
 476   0.0000       3.365941        91.5919 
 477   0.0000       3.378529        91.9344 
 478   0.0000       3.384441        92.0953 
 479   0.0000       3.390134        92.2502 
 480   0.0000       3.395293        92.3906 
 481   0.0000       3.401107        92.5488 
 482   0.0000       3.404935        92.6530 
 483   0.0000       3.409956        92.7896 
 484   0.0000       3.416646        92.9717 
 485   0.0000       3.423614        93.1613 
 486   0.0000       3.432163        93.3939 
 487   0.0000       3.437202        93.5310 
 488   0.0000       3.441590        93.6504 
 489   0.0000       3.444134        93.7197 
 490   0.0000       3.448711        93.8442 
 491   0.0000       3.457163        94.0742 
 492   0.0000       3.459497        94.1377 
 493   0.0000       3.463094        94.2356 
 494   0.0000       3.469198        94.4017 
 495   0.0000       3.475185        94.5646 
 496   0.0000       3.487469        94.8989 
 497   0.0000       3.496764        95.1518 
 498   0.0000       3.501463        95.2796 
 499   0.0000       3.510900        95.5365 
 500   0.0000       3.517220        95.7084 
 501   0.0000       3.519715        95.7763 
 502   0.0000       3.525548        95.9350 
 503   0.0000       3.531265        96.0906 
 504   0.0000       3.537255        96.2536 
 505   0.0000       3.549360        96.5830 
 506   0.0000       3.562621        96.9438 
 507   0.0000       3.568774        97.1113 
 508   0.0000       3.570445        97.1567 
 509   0.0000       3.577511        97.3490 
 510   0.0000       3.586638        97.5974 
 511   0.0000       3.596607        97.8687 
 512   0.0000       3.604428        98.0815 
 513   0.0000       3.617524        98.4378 
 514   0.0000       3.621859        98.5558 
 515   0.0000       3.624834        98.6368 
 516   0.0000       3.631406        98.8156 
 517   0.0000       3.634941        98.9118 
 518   0.0000       3.639579        99.0380 
 519   0.0000       3.643253        99.1380 
 520   0.0000       3.647666        99.2580 
 521   0.0000       3.653196        99.4085 
 522   0.0000       3.660120        99.5969 
 523   0.0000       3.660770        99.6146 
 524   0.0000       3.671024        99.8936 
 525   0.0000       3.674845        99.9976 
 526   0.0000       3.684982       100.2735 
 527   0.0000       3.693155       100.4959 
 528   0.0000       3.704879       100.8149 
 529   0.0000       3.714058       101.0647 
 530   0.0000       3.719005       101.1993 
 531   0.0000       3.723458       101.3204 
 532   0.0000       3.729100       101.4740 
 533   0.0000       3.739390       101.7540 
 534   0.0000       3.746278       101.9414 
 535   0.0000       3.747728       101.9809 
 536   0.0000       3.753451       102.1366 
 537   0.0000       3.757868       102.2568 
 538   0.0000       3.763444       102.4085 
 539   0.0000       3.771543       102.6289 
 540   0.0000       3.780799       102.8808 
 541   0.0000       3.783713       102.9601 
 542   0.0000       3.793284       103.2205 
 543   0.0000       3.797199       103.3270 
 544   0.0000       3.812488       103.7431 
 545   0.0000       3.814033       103.7851 
 546   0.0000       3.818453       103.9054 
 547   0.0000       3.830046       104.2208 
 548   0.0000       3.837200       104.4155 
 549   0.0000       3.847357       104.6919 
 550   0.0000       3.855494       104.9133 
 551   0.0000       3.865192       105.1772 
 552   0.0000       3.872834       105.3852 
 553   0.0000       3.875880       105.4680 
 554   0.0000       3.880716       105.5997 
 555   0.0000       3.896031       106.0164 
 556   0.0000       3.910357       106.4062 
 557   0.0000       3.918353       106.6238 
 558   0.0000       3.918615       106.6309 
 559   0.0000       3.923523       106.7645 
 560   0.0000       3.946332       107.3852 
 561   0.0000       3.953050       107.5679 
 562   0.0000       3.958784       107.7240 
 563   0.0000       3.969338       108.0112 
 564   0.0000       3.975319       108.1739 
 565   0.0000       3.983736       108.4030 
 566   0.0000       3.992745       108.6481 
 567   0.0000       4.003989       108.9541 
 568   0.0000       4.014264       109.2337 
 569   0.0000       4.019064       109.3643 
 570   0.0000       4.031308       109.6975 
 571   0.0000       4.040768       109.9549 
 572   0.0000       4.043244       110.0223 
 573   0.0000       4.049644       110.1964 
 574   0.0000       4.063887       110.5840 
 575   0.0000       4.066700       110.6605 
 576   0.0000       4.076889       110.9378 
 577   0.0000       4.082986       111.1037 
 578   0.0000       4.103567       111.6637 
 579   0.0000       4.111413       111.8772 
 580   0.0000       4.114894       111.9720 
 581   0.0000       4.122574       112.1809 
 582   0.0000       4.128059       112.3302 
 583   0.0000       4.141415       112.6936 
 584   0.0000       4.143485       112.7500 
 585   0.0000       4.148810       112.8949 
 586   0.0000       4.156822       113.1129 
 587   0.0000       4.163520       113.2951 
 588   0.0000       4.170685       113.4901 
 589   0.0000       4.175012       113.6078 
 590   0.0000       4.182901       113.8225 
 591   0.0000       4.186076       113.9089 
 592   0.0000       4.187679       113.9525 
 593   0.0000       4.194943       114.1502 
 594   0.0000       4.206498       114.4646 
 595   0.0000       4.207400       114.4892 
 596   0.0000       4.219980       114.8315 
 597   0.0000       4.234399       115.2239 
 598   0.0000       4.239427       115.3607 
 599   0.0000       4.244265       115.4923 
 600   0.0000       4.248812       115.6161 
 601   0.0000       4.264025       116.0300 
 602   0.0000       4.274777       116.3226 
 603   0.0000       4.276611       116.3725 
 604   0.0000       4.279941       116.4631 
 605   0.0000       4.303143       117.0945 
 606   0.0000       4.314977       117.4165 
 607   0.0000       4.319750       117.5464 
 608   0.0000       4.330398       117.8361 
 609   0.0000       4.341304       118.1329 
 610   0.0000       4.344143       118.2101 
 611   0.0000       4.347864       118.3114 
 612   0.0000       4.351986       118.4236 
 613   0.0000       4.365712       118.7971 
 614   0.0000       4.373036       118.9964 
 615   0.0000       4.379741       119.1788 
 616   0.0000       4.383394       119.2782 
 617   0.0000       4.397075       119.6505 
 618   0.0000       4.402326       119.7934 
 619   0.0000       4.405811       119.8882 
 620   0.0000       4.417368       120.2027 
 621   0.0000       4.422570       120.3442 
 622   0.0000       4.425308       120.4188 
 623   0.0000       4.433454       120.6404 
 624   0.0000       4.441480       120.8588 
 625   0.0000       4.451032       121.1188 
 626   0.0000       4.461175       121.3948 
 627   0.0000       4.466655       121.5439 
 628   0.0000       4.469988       121.6345 
 629   0.0000       4.482301       121.9696 
 630   0.0000       4.490962       122.2053 
 631   0.0000       4.501477       122.4914 
 632   0.0000       4.511717       122.7701 
 633   0.0000       4.522943       123.0755 
 634   0.0000       4.529170       123.2450 
 635   0.0000       4.541956       123.5929 
 636   0.0000       4.547908       123.7549 
 637   0.0000       4.556598       123.9913 
 638   0.0000       4.573276       124.4452 
 639   0.0000       4.582714       124.7020 
 640   0.0000       4.587465       124.8313 
 641   0.0000       4.601679       125.2181 
 642   0.0000       4.604969       125.3076 
 643   0.0000       4.612591       125.5150 
 644   0.0000       4.617316       125.6436 
 645   0.0000       4.625827       125.8751 
 646   0.0000       4.628787       125.9557 
 647   0.0000       4.638612       126.2231 
 648   0.0000       4.647104       126.4541 
 649   0.0000       4.653320       126.6233 
 650   0.0000       4.654549       126.6567 
 651   0.0000       4.667779       127.0167 
 652   0.0000       4.683143       127.4348 
 653   0.0000       4.687435       127.5516 
 654   0.0000       4.695568       127.7729 
 655   0.0000       4.702371       127.9580 
 656   0.0000       4.715107       128.3046 
 657   0.0000       4.719510       128.4244 
 658   0.0000       4.737123       128.9037 
 659   0.0000       4.747322       129.1812 
 660   0.0000       4.751715       129.3007 
 661   0.0000       4.762950       129.6065 
 662   0.0000       4.770678       129.8167 
 663   0.0000       4.781304       130.1059 
 664   0.0000       4.817781       131.0985 
 665   0.0000       4.826616       131.3389 
 666   0.0000       4.847799       131.9153 
 667   0.0000       4.857747       132.1860 
 668   0.0000       4.867787       132.4592 
 669   0.0000       4.881780       132.8400 
 670   0.0000       4.902746       133.4105 
 671   0.0000       4.920989       133.9069 
 672   0.0000       4.944297       134.5412 
 673   0.0000       4.954855       134.8285 
 674   0.0000       4.966979       135.1584 
 675   0.0000       4.982681       135.5856 
 676   0.0000       5.014693       136.4567 
 677   0.0000       5.020764       136.6219 
 678   0.0000       5.041578       137.1883 
 679   0.0000       5.046696       137.3276 
 680   0.0000       5.056748       137.6011 
 681   0.0000       5.069306       137.9428 
 682   0.0000       5.081709       138.2803 
 683   0.0000       5.096581       138.6850 
 684   0.0000       5.103758       138.8803 
 685   0.0000       5.112006       139.1048 
 686   0.0000       5.129232       139.5735 
 687   0.0000       5.133158       139.6803 
 688   0.0000       5.153934       140.2457 
 689   0.0000       5.159955       140.4095 
 690   0.0000       5.168932       140.6538 
 691   0.0000       5.175015       140.8193 
 692   0.0000       5.184511       141.0777 
 693   0.0000       5.199670       141.4902 
 694   0.0000       5.207749       141.7101 
 695   0.0000       5.211855       141.8218 
 696   0.0000       5.224625       142.1693 
 697   0.0000       5.229129       142.2918 
 698   0.0000       5.235418       142.4630 
 699   0.0000       5.242762       142.6628 
 700   0.0000       5.273433       143.4974 
 701   0.0000       5.287368       143.8766 
 702   0.0000       5.290440       143.9602 
 703   0.0000       5.313904       144.5987 
 704   0.0000       5.328359       144.9920 
 705   0.0000       5.341329       145.3449 
 706   0.0000       5.345217       145.4508 
 707   0.0000       5.353261       145.6696 
 708   0.0000       5.370233       146.1315 
 709   0.0000       5.373610       146.2234 
 710   0.0000       5.389480       146.6552 
 711   0.0000       5.399155       146.9185 
 712   0.0000       5.423875       147.5912 
 713   0.0000       5.450893       148.3264 
 714   0.0000       5.473003       148.9280 
 715   0.0000       5.489107       149.3662 
 716   0.0000       5.505107       149.8016 
 717   0.0000       5.513537       150.0310 
 718   0.0000       5.523217       150.2944 
 719   0.0000       5.532645       150.5509 
 720   0.0000       5.536430       150.6539 
 721   0.0000       5.556207       151.1921 
 722   0.0000       5.561766       151.3434 
 723   0.0000       5.564780       151.4254 
 724   0.0000       5.585580       151.9914 
 725   0.0000       5.603888       152.4895 
 726   0.0000       5.610924       152.6810 
 727   0.0000       5.623051       153.0110 
 728   0.0000       5.637336       153.3997 
 729   0.0000       5.645738       153.6283 
 730   0.0000       5.648041       153.6910 
 731   0.0000       5.670549       154.3035 
 732   0.0000       5.678562       154.5215 
 733   0.0000       5.687423       154.7627 
 734   0.0000       5.709564       155.3651 
 735   0.0000       5.719545       155.6367 
 736   0.0000       5.724537       155.7726 
 737   0.0000       5.744383       156.3126 
 738   0.0000       5.748512       156.4250 
 739   0.0000       5.760773       156.7586 
 740   0.0000       5.765845       156.8966 
 741   0.0000       5.795960       157.7161 
 742   0.0000       5.801578       157.8690 
 743   0.0000       5.807916       158.0414 
 744   0.0000       5.820042       158.3714 
 745   0.0000       5.841609       158.9583 
 746   0.0000       5.852065       159.2428 
 747   0.0000       5.877764       159.9421 
 748   0.0000       5.911390       160.8571 
 749   0.0000       5.927091       161.2843 
 750   0.0000       5.953326       161.9982 
 751   0.0000       5.969568       162.4402 
 752   0.0000       5.980447       162.7362 
 753   0.0000       6.002877       163.3466 
 754   0.0000       6.016080       163.7059 
 755   0.0000       6.040606       164.3733 
 756   0.0000       6.054095       164.7403 
 757   0.0000       6.056422       164.8036 
 758   0.0000       6.068404       165.1297 
 759   0.0000       6.090469       165.7301 
 760   0.0000       6.094965       165.8524 
 761   0.0000       6.168068       167.8417 
 762   0.0000       6.215732       169.1387 
 763   0.0000       6.226032       169.4189 
 764   0.0000       6.255256       170.2142 
 765   0.0000       6.262902       170.4222 
 766   0.0000       6.301423       171.4704 
 767   0.0000       6.321306       172.0115 
 768   0.0000       6.344914       172.6539 
 769   0.0000       6.359729       173.0570 
 770   0.0000       6.376651       173.5175 
 771   0.0000       6.384487       173.7307 
 772   0.0000       6.410427       174.4366 
 773   0.0000       6.455989       175.6764 
 774   0.0000       6.460441       175.7975 
 775   0.0000       6.468821       176.0256 
 776   0.0000       6.507178       177.0693 
 777   0.0000       6.554155       178.3476 
 778   0.0000       6.597636       179.5308 
 779   0.0000       6.643516       180.7792 
 780   0.0000       6.671013       181.5275 
 781   0.0000       6.693164       182.1302 
 782   0.0000       6.728653       183.0960 
 783   0.0000       6.791948       184.8183 
 784   0.0000       6.800290       185.0453 
 785   0.0000       6.905370       187.9047 
 786   0.0000       6.912404       188.0961 
 787   0.0000       6.918835       188.2711 
 788   0.0000       6.941171       188.8789 
 789   0.0000       7.029765       191.2896 
 790   0.0000       7.044602       191.6934 
 791   0.0000       7.057261       192.0378 
 792   0.0000       7.078093       192.6047 
 793   0.0000       7.120003       193.7451 
 794   0.0000       7.253140       197.3680 
 795   0.0000       7.267379       197.7554 
 796   0.0000       7.278365       198.0544 
 797   0.0000       7.307732       198.8535 
 798   0.0000       7.340878       199.7555 
 799   0.0000       7.375904       200.7086 
 800   0.0000       7.412174       201.6955 
 801   0.0000       7.573964       206.0980 
 802   0.0000       7.580788       206.2837 
 803   0.0000       7.631575       207.6657 
 804   0.0000       7.654970       208.3023 
 805   0.0000       7.813168       212.6071 
 806   0.0000       7.873527       214.2496 
 807   0.0000       7.888256       214.6504 
 808   0.0000       7.930068       215.7881 
 809   0.0000       9.354199       254.5407 
 810   0.0000       9.509311       258.7615 
 811   0.0000      10.680554       290.6326 
 812   0.0000      11.397496       310.1416 
 813   0.0000      11.990540       326.2792 
 814   0.0000      12.547045       341.4225 
 815   0.0000      12.906347       351.1995 
 816   0.0000      13.047158       355.0312 
 817   0.0000      13.092143       356.2553 
 818   0.0000      13.282913       361.4464 
 819   0.0000      13.368492       363.7752 
 820   0.0000      13.573873       369.3639 
 821   0.0000      13.714832       373.1995 
 822   0.0000      13.893653       378.0655 
 823   0.0000      14.015498       381.3811 
 824   0.0000      14.106961       383.8699 
 825   0.0000      14.572504       396.5380 
 826   0.0000      14.659369       398.9017 
 827   0.0000      16.007219       435.5786 

                    ********************************
                    * MULLIKEN POPULATION ANALYSIS *
                    ********************************

-----------------------
MULLIKEN ATOMIC CHARGES
-----------------------
   0 C :   -0.267680
   1 C :    0.008332
   2 O :   -0.371516
   3 C :    0.490549
   4 O :   -0.416862
   5 C :   -0.295345
   6 C :    0.184452
   7 C :   -0.265751
   8 N :   -0.126815
   9 C :    0.212181
  10 S :   -0.439836
  11 N :   -0.217327
  12 C :    0.074073
  13 C :   -0.006404
  14 C :   -0.166498
  15 C :   -0.134799
  16 C :   -0.271159
  17 C :    0.310160
  18 O :   -0.356148
  19 C :   -0.232138
  20 H :    0.089161
  21 H :    0.089640
  22 H :    0.104556
  23 H :    0.121623
  24 H :    0.107582
  25 H :    0.132931
  26 H :    0.130880
  27 H :    0.094619
  28 H :    0.199556
  29 H :    0.201110
  30 H :    0.151512
  31 H :    0.158799
  32 H :    0.165633
  33 H :    0.133587
  34 H :    0.241474
  35 H :    0.165871
Sum of atomic charges:   -0.0000000

--------------------------------
MULLIKEN REDUCED ORBITAL CHARGES
--------------------------------
  0 C s       :     3.258389  s :     3.258389
      pz      :     1.019687  p :     2.933304
      px      :     1.004193
      py      :     0.909424
      dz2     :     0.019440  d :     0.071530
      dxz     :     0.011464
      dyz     :     0.013096
      dx2y2   :     0.012551
      dxy     :     0.014979
      f0      :     0.001036  f :     0.004456
      f+1     :     0.000525
      f-1     :     0.000523
      f+2     :     0.000487
      f-2     :     0.000125
      f+3     :     0.000544
      f-3     :     0.001215
  1 C s       :     3.174167  s :     3.174167
      pz      :     1.001011  p :     2.644329
      px      :     0.781963
      py      :     0.861355
      dz2     :     0.029064  d :     0.161187
      dxz     :     0.036605
      dyz     :     0.021195
      dx2y2   :     0.035431
      dxy     :     0.038892
      f0      :     0.001801  f :     0.011985
      f+1     :     0.001515
      f-1     :     0.001023
      f+2     :     0.000963
      f-2     :     0.001798
      f+3     :     0.002529
      f-3     :     0.002357
  2 O s       :     3.723777  s :     3.723777
      pz      :     1.828718  p :     4.611100
      px      :     1.523719
      py      :     1.258663
      dz2     :     0.004475  d :     0.034357
      dxz     :     0.003401
      dyz     :     0.004041
      dx2y2   :     0.014726
      dxy     :     0.007715
      f0      :     0.000297  f :     0.002282
      f+1     :     0.000217
      f-1     :     0.000495
      f+2     :     0.000201
      f-2     :     0.000152
      f+3     :     0.000350
      f-3     :     0.000571
  3 C s       :     3.002018  s :     3.002018
      pz      :     0.780309  p :     2.192967
      px      :     0.697090
      py      :     0.715568
      dz2     :     0.066689  d :     0.287926
      dxz     :     0.030412
      dyz     :     0.067753
      dx2y2   :     0.066905
      dxy     :     0.056166
      f0      :     0.003643  f :     0.026541
      f+1     :     0.003141
      f-1     :     0.003154
      f+2     :     0.006072
      f-2     :     0.002774
      f+3     :     0.004514
      f-3     :     0.003244
  4 O s       :     3.773848  s :     3.773848
      pz      :     1.447704  p :     4.605379
      px      :     1.413392
      py      :     1.744284
      dz2     :     0.008884  d :     0.035214
      dxz     :     0.008556
      dyz     :     0.006682
      dx2y2   :     0.005537
      dxy     :     0.005555
      f0      :     0.000291  f :     0.002420
      f+1     :     0.000409
      f-1     :     0.000334
      f+2     :     0.000376
      f-2     :     0.000570
      f+3     :     0.000189
      f-3     :     0.000251
  5 C s       :     3.213443  s :     3.213443
      pz      :     1.028527  p :     2.987740
      px      :     1.073877
      py      :     0.885337
      dz2     :     0.013095  d :     0.083956
      dxz     :     0.006673
      dyz     :     0.029028
      dx2y2   :     0.010320
      dxy     :     0.024840
      f0      :     0.000820  f :     0.010206
      f+1     :     0.001189
      f-1     :     0.001344
      f+2     :     0.001965
      f-2     :     0.001705
      f+3     :     0.001754
      f-3     :     0.001428
  6 C s       :     3.174241  s :     3.174241
      pz      :     0.791238  p :     2.449461
      px      :     0.802191
      py      :     0.856032
      dz2     :     0.031164  d :     0.177425
      dxz     :     0.019947
      dyz     :     0.043737
      dx2y2   :     0.028599
      dxy     :     0.053977
      f0      :     0.001734  f :     0.014422
      f+1     :     0.001792
      f-1     :     0.001757
      f+2     :     0.002550
      f-2     :     0.002044
      f+3     :     0.002589
      f-3     :     0.001955
  7 C s       :     3.268890  s :     3.268890
      pz      :     0.978005  p :     2.923590
      px      :     1.011912
      py      :     0.933672
      dz2     :     0.018730  d :     0.068625
      dxz     :     0.007976
      dyz     :     0.012313
      dx2y2   :     0.019319
      dxy     :     0.010288
      f0      :     0.000801  f :     0.004646
      f+1     :     0.000616
      f-1     :     0.000615
      f+2     :     0.000388
      f-2     :     0.000807
      f+3     :     0.000842
      f-3     :     0.000577
  8 N s       :     3.344256  s :     3.344256
      pz      :     1.367385  p :     3.718424
      px      :     1.276515
      py      :     1.074525
      dz2     :     0.010264  d :     0.059188
      dxz     :     0.010907
      dyz     :     0.009745
      dx2y2   :     0.016617
      dxy     :     0.011655
      f0      :     0.000572  f :     0.004947
      f+1     :     0.000995
      f-1     :     0.000375
      f+2     :     0.000895
      f-2     :     0.001064
      f+3     :     0.000472
      f-3     :     0.000574
  9 C s       :     3.154784  s :     3.154784
      pz      :     0.747676  p :     2.353420
      px      :     0.796911
      py      :     0.808833
      dz2     :     0.048784  d :     0.262030
      dxz     :     0.027404
      dyz     :     0.061381
      dx2y2   :     0.066499
      dxy     :     0.057961
      f0      :     0.001866  f :     0.017585
      f+1     :     0.002611
      f-1     :     0.002070
      f+2     :     0.003384
      f-2     :     0.001770
      f+3     :     0.003144
      f-3     :     0.002739
 10 S s       :     5.856462  s :     5.856462
      pz      :     3.456249  p :    10.488366
      px      :     3.371681
      py      :     3.660437
      dz2     :     0.012112  d :     0.084881
      dxz     :     0.021644
      dyz     :     0.017990
      dx2y2   :     0.009105
      dxy     :     0.024029
      f0      :     0.001067  f :     0.010128
      f+1     :     0.001325
      f-1     :     0.000982
      f+2     :     0.000893
      f-2     :     0.003258
      f+3     :     0.000773
      f-3     :     0.001829
 11 N s       :     3.388190  s :     3.388190
      pz      :     1.452472  p :     3.766585
      px      :     1.302831
      py      :     1.011282
      dz2     :     0.005010  d :     0.058113
      dxz     :     0.007960
      dyz     :     0.014011
      dx2y2   :     0.014339
      dxy     :     0.016794
      f0      :     0.000591  f :     0.004440
      f+1     :     0.000396
      f-1     :     0.000599
      f+2     :     0.000684
      f-2     :     0.000620
      f+3     :     0.000721
      f-3     :     0.000830
 12 C s       :     3.122863  s :     3.122863
      pz      :     0.881351  p :     2.607823
      px      :     0.845712
      py      :     0.880761
      dz2     :     0.030016  d :     0.183905
      dxz     :     0.037714
      dyz     :     0.042339
      dx2y2   :     0.025586
      dxy     :     0.048249
      f0      :     0.000999  f :     0.011336
      f+1     :     0.001667
      f-1     :     0.001433
      f+2     :     0.001464
      f-2     :     0.003041
      f+3     :     0.001170
      f-3     :     0.001562
 13 C s       :     3.133800  s :     3.133800
      pz      :     0.886508  p :     2.750142
      px      :     0.931681
      py      :     0.931952
      dz2     :     0.020106  d :     0.111086
      dxz     :     0.009214
      dyz     :     0.033646
      dx2y2   :     0.020317
      dxy     :     0.027803
      f0      :     0.001184  f :     0.011376
      f+1     :     0.001607
      f-1     :     0.001184
[...]
      f-1     :     0.005669
      f+2     :     0.007090
      f-2     :     0.005028
      f+3     :     0.006692
      f-3     :     0.007984
 15 C s       :     2.705575  s :     2.705575
      pz      :     0.913153  p :     2.794815
      px      :     0.910824
      py      :     0.970837
      dz2     :     0.104232  d :     0.416761
      dxz     :     0.067124
      dyz     :     0.067096
      dx2y2   :     0.103468
      dxy     :     0.074841
      f0      :     0.003650  f :     0.041077
      f+1     :     0.005364
      f-1     :     0.006928
      f+2     :     0.007133
      f-2     :     0.006651
      f+3     :     0.005662
      f-3     :     0.005689
 16 C s       :     2.701774  s :     2.701774
      pz      :     0.943518  p :     2.868201
      px      :     0.950283
      py      :     0.974399
      dz2     :     0.052244  d :     0.390308
      dxz     :     0.052219
      dyz     :     0.099098
      dx2y2   :     0.087998
      dxy     :     0.098748
      f0      :     0.005085  f :     0.040265
      f+1     :     0.004602
      f-1     :     0.004163
      f+2     :     0.006248
      f-2     :     0.005520
      f+3     :     0.008210
      f-3     :     0.006437
 17 C s       :     2.701589  s :     2.701589
      pz      :     0.841244  p :     2.681500
      px      :     0.817946
      py      :     1.022310
      dz2     :     0.139134  d :     0.708626
      dxz     :     0.104198
      dyz     :     0.157084
      dx2y2   :     0.151381
      dxy     :     0.156829
      f0      :     0.012104  f :     0.099221
      f+1     :     0.014733
      f-1     :     0.011274
      f+2     :     0.016683
      f-2     :     0.015490
      f+3     :     0.014743
      f-3     :     0.014195
 18 O s       :     3.177208  s :     3.177208
      pz      :     1.397346  p :     4.345945
      px      :     1.454088
      py      :     1.494511
      dz2     :     0.009835  d :     0.075479
      dxz     :     0.017308
      dyz     :     0.020842
      dx2y2   :     0.013425
      dxy     :     0.014069
      f0      :     0.000660  f :     0.005060
      f+1     :     0.000700
      f-1     :     0.000478
      f+2     :     0.000859
      f-2     :     0.001049
      f+3     :     0.000600
      f-3     :     0.000714
 19 C s       :     2.695337  s :     2.695337
      pz      :     0.938630  p :     2.843668
      px      :     0.938156
      py      :     0.966883
      dz2     :     0.084061  d :     0.388120
      dxz     :     0.065719
      dyz     :     0.071893
      dx2y2   :     0.089846
      dxy     :     0.076602
      f0      :     0.003667  f :     0.040801
      f+1     :     0.005668
      f-1     :     0.006415
      f+2     :     0.007122
      f-2     :     0.007247
      f+3     :     0.005472
      f-3     :     0.005209
 20 H s       :     0.847301  s :     0.847301
      pz      :     0.041200  p :     0.150792
      px      :     0.060083
      py      :     0.049510
      dz2     :     0.003123  d :     0.027404
      dxz     :     0.006168
      dyz     :     0.002733
      dx2y2   :     0.008554
      dxy     :     0.006825
 21 H s       :     0.851939  s :     0.851939
      pz      :     0.050094  p :     0.152326
      px      :     0.059693
      py      :     0.042540
      dz2     :     0.006455  d :     0.027579
      dxz     :     0.005994
      dyz     :     0.003098
      dx2y2   :     0.005947
      dxy     :     0.006085
 22 H s       :     0.847384  s :     0.847384
      pz      :     0.071347  p :     0.150212
      px      :     0.041269
      py      :     0.037596
      dz2     :     0.009055  d :     0.027483
      dxz     :     0.008834
      dyz     :     0.008245
      dx2y2   :     0.000668
      dxy     :     0.000683
 23 H s       :     0.854317  s :     0.854317
      pz      :     0.051152  p :     0.146729
      px      :     0.056150
      py      :     0.039427
      dz2     :     0.006380  d :     0.027118
      dxz     :     0.007012
      dyz     :     0.002305
      dx2y2   :     0.005383
      dxy     :     0.006038
 24 H s       :     0.857667  s :     0.857667
      pz      :     0.079723  p :     0.148180
      px      :     0.032411
      py      :     0.036046
      dz2     :     0.009812  d :     0.026931
      dxz     :     0.008104
      dyz     :     0.007717
      dx2y2   :     0.000543
      dxy     :     0.000756
 25 H s       :     0.825616  s :     0.825616
      pz      :     0.038747  p :     0.150868
      px      :     0.074313
      py      :     0.037807
      dz2     :     0.002514  d :     0.027774
      dxz     :     0.009082
      dyz     :     0.000155
      dx2y2   :     0.007578
      dxy     :     0.008444
 26 H s       :     0.824974  s :     0.824974
      pz      :     0.072205  p :     0.151408
      px      :     0.041271
      py      :     0.037932
      dz2     :     0.009445  d :     0.027767
      dxz     :     0.008432
      dyz     :     0.008112
      dx2y2   :     0.001303
      dxy     :     0.000475
 27 H s       :     0.845312  s :     0.845312
      pz      :     0.039920  p :     0.150430
      px      :     0.041077
      py      :     0.069433
      dz2     :     0.003173  d :     0.027721
      dxz     :     0.000495
      dyz     :     0.008321
      dx2y2   :     0.007311
      dxy     :     0.008422
 28 H s       :     0.741543  s :     0.741543
      pz      :     0.069347  p :     0.253473
      px      :     0.062682
      py      :     0.121444
      dz2     :     0.005262  d :     0.061786
      dxz     :     0.000288
      dyz     :     0.020783
      dx2y2   :     0.015974
      dxy     :     0.019478
 29 H s       :     0.748780  s :     0.748780
      pz      :     0.103195  p :     0.254345
      px      :     0.097810
      py      :     0.053339
      dz2     :     0.016510  d :     0.061420
      dxz     :     0.012764
      dyz     :     0.009325
      dx2y2   :     0.011591
      dxy     :     0.011230
 30 H s       :     0.829613  s :     0.829613
      pz      :     0.055503  p :     0.153437
      px      :     0.049395
      py      :     0.048539
      dz2     :     0.006338  d :     0.029259
      dxz     :     0.006743
      dyz     :     0.005954
      dx2y2   :     0.004362
      dxy     :     0.005862
 31 H s       :     0.843901  s :     0.843901
      pz      :     0.057659  p :     0.157140
      px      :     0.062417
      py      :     0.037064
      dz2     :     0.006129  d :     0.027538
      dxz     :     0.006736
      dyz     :     0.004396
      dx2y2   :     0.005121
      dxy     :     0.005157
 32 H s       :     0.842363  s :     0.842363
      pz      :     0.036189  p :     0.151338
      px      :     0.039169
      py      :     0.075981
      dz2     :     0.002630  d :     0.026458
      dxz     :     0.000571
      dyz     :     0.007519
      dx2y2   :     0.007815
      dxy     :     0.007924
 33 H s       :     0.847802  s :     0.847802
      pz      :     0.057540  p :     0.158797
      px      :     0.049339
      py      :     0.051918
      dz2     :     0.006319  d :     0.027730
      dxz     :     0.004777
      dyz     :     0.006254
      dx2y2   :     0.005388
      dxy     :     0.004993
 34 H s       :     0.705990  s :     0.705990
      pz      :     0.108746  p :     0.347458
      px      :     0.089849
      py      :     0.148864
      dz2     :     0.022712  d :     0.099474
      dxz     :     0.011695
      dyz     :     0.024282
      dx2y2   :     0.020150
      dxy     :     0.020635
 35 H s       :     0.837871  s :     0.837871
      pz      :     0.037814  p :     0.156860
      px      :     0.041591
      py      :     0.077454
      dz2     :     0.002681  d :     0.027933
      dxz     :     0.000589
      dyz     :     0.008219
      dx2y2   :     0.008029
      dxy     :     0.008414


                      *****************************
                      * MAYER POPULATION ANALYSIS *
                      *****************************

  NA   - Mulliken gross atomic population
  ZA   - Total nuclear charge
  QA   - Mulliken gross atomic charge
  VA   - Mayer's total valence
  BVA  - Mayer's bonded valence
  FA   - Mayer's free valence

  ATOM       NA         ZA         QA         VA         BVA        FA
  0 C      6.2677     6.0000    -0.2677     3.8968     3.8968     0.0000
  1 C      5.9917     6.0000     0.0083     3.8516     3.8516    -0.0000
  2 O      8.3715     8.0000    -0.3715     2.0034     2.0034     0.0000
  3 C      5.5095     6.0000     0.4905     4.2518     4.2518    -0.0000
  4 O      8.4169     8.0000    -0.4169     2.1009     2.1009    -0.0000
  5 C      6.2953     6.0000    -0.2953     3.6617     3.6617    -0.0000
  6 C      5.8155     6.0000     0.1845     3.8551     3.8551    -0.0000
  7 C      6.2658     6.0000    -0.2658     3.9037     3.9037    -0.0000
  8 N      7.1268     7.0000    -0.1268     3.3132     3.3132    -0.0000
  9 C      5.7878     6.0000     0.2122     4.1544     4.1544    -0.0000
 10 S     16.4398    16.0000    -0.4398     1.7553     1.7553     0.0000
 11 N      7.2173     7.0000    -0.2173     3.2372     3.2372    -0.0000
 12 C      5.9259     6.0000     0.0741     3.9106     3.9106    -0.0000
 13 C      6.0064     6.0000    -0.0064     3.7624     3.7624    -0.0000
 14 C      6.1665     6.0000    -0.1665     3.8288     3.8288    -0.0000
 15 C      6.1348     6.0000    -0.1348     3.7956     3.7956    -0.0000
 16 C      6.2712     6.0000    -0.2712     3.7897     3.7897     0.0000
 17 C      5.6898     6.0000     0.3102     3.8728     3.8728     0.0000
 18 O      8.3561     8.0000    -0.3561     2.1193     2.1193     0.0000
 19 C      6.2321     6.0000    -0.2321     3.8340     3.8340    -0.0000
 20 H      0.9108     1.0000     0.0892     0.9839     0.9839     0.0000
 21 H      0.9104     1.0000     0.0896     0.9887     0.9887     0.0000
 22 H      0.8954     1.0000     0.1046     0.9855     0.9855    -0.0000
 23 H      0.8784     1.0000     0.1216     0.9858     0.9858    -0.0000
 24 H      0.8924     1.0000     0.1076     0.9632     0.9632     0.0000
 25 H      0.8671     1.0000     0.1329     0.9799     0.9799    -0.0000
 26 H      0.8691     1.0000     0.1309     0.9801     0.9801     0.0000
 27 H      0.9054     1.0000     0.0946     0.9854     0.9854     0.0000
 28 H      0.8004     1.0000     0.1996     1.0209     1.0209     0.0000
 29 H      0.7989     1.0000     0.2011     1.0150     1.0150    -0.0000
 30 H      0.8485     1.0000     0.1515     0.9879     0.9879     0.0000
 31 H      0.8412     1.0000     0.1588     0.9817     0.9817    -0.0000
 32 H      0.8344     1.0000     0.1656     0.9753     0.9753    -0.0000
 33 H      0.8664     1.0000     0.1336     0.9908     0.9908     0.0000
 34 H      0.7585     1.0000     0.2415     1.0099     1.0099     0.0000
 35 H      0.8341     1.0000     0.1659     0.9888     0.9888    -0.0000

  Mayer bond orders larger than 0.100000
B(  0-C ,  1-C ) :   0.9781 B(  0-C , 20-H ) :   0.9764 B(  0-C , 21-H ) :   0.9778 
B(  0-C , 22-H ) :   0.9781 B(  1-C ,  2-O ) :   0.8827 B(  1-C , 23-H ) :   0.9786 
B(  1-C , 24-H ) :   0.9658 B(  2-O ,  3-C ) :   1.1109 B(  3-C ,  4-O ) :   2.0114 
B(  3-C ,  5-C ) :   1.0707 B(  5-C ,  6-C ) :   1.6292 B(  5-C , 12-C ) :   0.9515 
B(  6-C ,  7-C ) :   0.9658 B(  6-C ,  8-N ) :   1.1592 B(  7-C , 25-H ) :   0.9611 
B(  7-C , 26-H ) :   0.9580 B(  7-C , 27-H ) :   0.9901 B(  8-N ,  9-C ) :   1.1855 
B(  8-N , 28-H ) :   0.9462 B(  9-C , 10-S ) :   1.6066 B(  9-C , 11-N ) :   1.3103 
B( 11-N , 12-C ) :   0.9639 B( 11-N , 29-H ) :   0.9485 B( 12-C , 13-C ) :   0.9662 
B( 12-C , 30-H ) :   1.0002 B( 13-C , 14-C ) :   1.3541 B( 13-C , 19-C ) :   1.3763 
B( 14-C , 15-C ) :   1.3876 B( 14-C , 31-H ) :   0.9706 B( 15-C , 16-C ) :   1.3600 
B( 15-C , 32-H ) :   0.9689 B( 16-C , 17-C ) :   1.3317 B( 16-C , 33-H ) :   0.9839 
B( 17-C , 18-O ) :   1.1072 B( 17-C , 19-C ) :   1.3667 B( 18-O , 34-H ) :   0.9789 
B( 19-C , 35-H ) :   0.9592 

-------
TIMINGS
-------

Total SCF time: 0 days 1 hours 38 min 8 sec 

Total time                  ....    5888.773 sec
Sum of individual times     ....    5879.306 sec  ( 99.8%)

Fock matrix formation       ....    5850.674 sec  ( 99.4%)
Diagonalization             ....       1.712 sec  (  0.0%)
Density matrix formation    ....       0.321 sec  (  0.0%)
Population analysis         ....       0.295 sec  (  0.0%)
Initial guess               ....       5.064 sec  (  0.1%)
Orbital Transformation      ....       0.000 sec  (  0.0%)
Orbital Orthonormalization  ....       0.000 sec  (  0.0%)
DIIS solution               ....      15.998 sec  (  0.3%)
SOSCF solution              ....       3.663 sec  (  0.1%)

------------------------------------------------------------------------------
                                ORCA  MP2 
------------------------------------------------------------------------------

Freezing NCore=48 chemical core electrons

-------------
RI-MP2 ENERGY
-------------
Dimension of the basis                    ...  828
Memory devoted to MP2                     ...  256 MB   
Data format for buffers                   ... DOUBLE
Compression type for matrix containers    ... UNCOMPRESSED
Overall scaling of the MP2 energy         ...   1.000e+00
Calculating two index integrals           ... done (    0.043 sec)
Cholesky decomposition of V**-1           ... done (    0.347 sec)

-----------------
RI-TRANSFORMATION (AUX index driven)
-----------------

Dimension of the orbital-basis         ... 828
Dimension of the aux-basis             ... 2141
Transformation of internal/external MOs...   24-  76 to   77- 827
Number Format for Storage              ... Double (8 Byte)
Integral mode                          ... Direct

First Phase: integral generation and transformation of MO indices
  Aux angular momentum 0               ... done (    5.406 sec)
  Aux angular momentum 1               ... done (    9.050 sec)
  Aux angular momentum 2               ... done (   11.583 sec)
  Aux angular momentum 3               ... done (    9.003 sec)
  Aux angular momentum 4               ... done (    3.248 sec)
Closing buffer VIA ( 0.63 GB; CompressionRatio= 1.00)
  Phase 1 completed in    38.524 sec
Second Phase: sorting and transformation of aux index

IA-Transformation
Memory available                       ... 167 MB 
Max. # MO pairs treated in a batch     ... 12    
# of internal orbitals                 ... 53
# batches for internal orbitals        ... 5
Closing buffer IAV ( 0.63 GB; CompressionRatio= 1.00)
(ia|v) transformation done in    31.770 sec

  Phase 2 completed in    31.776 sec
RI-Integral transformation completed in    70.310 sec
Opening buffers                              ... done

Starting loop over batches of integrals:

Operator 0  - window                       ... ( 24- 76)x( 77-827)
Operator 0  - Memory available             ...   256 MB
Operator 0  - Memory needed per MO         ...  12.3 MB
Operator 0  - Number of orbitals per batch ... 13
Operator 0  - Number of batches            ... 5

OPERATOR  0   PASS   0:  MOs    24 ...   36
  Reading integrals       ... ok
  Internal MO  26
  Internal MO  29
  Internal MO  32
  Internal MO  35
OPERATOR  0   PASS   1:  MOs    37 ...   49
  Reading integrals       ... ok
  Internal MO  38
  Internal MO  41
  Internal MO  44
  Internal MO  47
OPERATOR  0   PASS   2:  MOs    50 ...   62
  Reading integrals       ... ok
  Internal MO  50
  Internal MO  53
  Internal MO  56
  Internal MO  59
  Internal MO  62
OPERATOR  0   PASS   3:  MOs    63 ...   75
  Reading integrals       ... ok
  Internal MO  65
  Internal MO  68
  Internal MO  71
  Internal MO  74
OPERATOR  0   PASS   4:  MOs    76 ...   76
  Reading integrals       ... ok
Time spent in pair loops =    84.038 sec
Deleting buffer (Ka|jb)[aa] ...done

-----------------------------------------------
 RI-MP2 CORRELATION ENERGY:     -3.530852713 Eh
-----------------------------------------------


-------
TIMINGS
-------

Total time                :  155.308 sec
Integral trafo            :   70.325 sec ( 45.3%)
I/O of integrals          :    4.485 sec (  2.9%)
K(i,j) Operators          :   50.726 sec ( 32.7%)
T(i,j) pair energies      :    8.626 sec (  5.6%)
V-calculation             :    0.043 sec (  0.0%)
V**(-1/2)                 :    0.347 sec (  0.2%)
Gamma(ia|P)               :    0.000 sec (  0.0%)
Gamma-Trafo               :    0.000 sec (  0.0%)
D(virtual)                :    0.000 sec (  0.0%)
D(internal)               :    0.000 sec (  0.0%)
W(virtual)                :    0.000 sec (  0.0%)
W(internal)               :    0.000 sec (  0.0%)
L(virtual)                :    0.000 sec (  0.0%)
L(internal)               :    0.000 sec (  0.0%)
G(D)                      :    0.000 sec (  0.0%)
G(Z)                      :    0.000 sec (  0.0%)
Z-Vector Solution         :    0.000 sec (  0.0%)
3-Index Derivative        :    0.000 sec (  0.0%)
2-Index Derivative        :    0.000 sec (  0.0%)
Separable Gradient        :    0.000 sec (  0.0%)


---------------------------------------
MP2 TOTAL ENERGY:    -1274.334249041 Eh
---------------------------------------

-------------------------   --------------------
FINAL SINGLE POINT ENERGY     -1274.334249041445
-------------------------   --------------------


                            ***************************************
                            *     ORCA property calculations      *
                            ***************************************


  WARNING: The energy has been calculated at the MP2 level but the densities
           used in the property calculations are still SCF densities
           MP2 response densities have not been calculated 
           use %mp2 Density relaxed end
           or  %mp2 Density unrelaxed end

                                    ---------------------
                                    Active property flags
                                    ---------------------
   (+) Dipole Moment


------------------------------------------------------------------------------
                       ORCA ELECTRIC PROPERTIES CALCULATION
------------------------------------------------------------------------------

Dipole Moment Calculation                       ... on
Quadrupole Moment Calculation                   ... off
Polarizability Calculation                      ... off
GBWName                                         ... CONFS/Conf924.orca.gbw
Electron density file                           ... CONFS/Conf924.orca.scfp
The origin for moment calculation is the CENTER OF MASS  = (31.875776, 33.105379 33.294695)

-------------
DIPOLE MOMENT
-------------
                                X             Y             Z
Electronic contribution:      8.72262      11.24904       6.50926
Nuclear contribution   :     -9.82127     -12.79053      -6.40364
                        -----------------------------------------
Total Dipole Moment    :     -1.09865      -1.54149       0.10562
                        -----------------------------------------
Magnitude (a.u.)       :      1.89589
Magnitude (Debye)      :      4.81897



--------------------
Rotational spectrum 
--------------------
 
Rotational constants in cm-1:     0.012499     0.008295     0.006074 
Rotational constants in MHz :   374.720850   248.682564   182.079749 

 Dipole components along the rotational axes: 
x,y,z [a.u.] :    -1.888632     0.013292     0.165185 
x,y,z [Debye]:    -4.800521     0.033786     0.419868 

 

Timings for individual modules:

Sum of individual times         ...     6046.320 sec (= 100.772 min)
GTO integral calculation        ...        1.492 sec (=   0.025 min)   0.0 %
SCF iterations                  ...     5888.864 sec (=  98.148 min)  97.4 %
MP2 module                      ...      155.965 sec (=   2.599 min)   2.6 %
                             ****ORCA TERMINATED NORMALLY****
TOTAL RUN TIME: 0 days 1 hours 40 minutes 47 seconds 933 msec
