
                                 *****************
                                 * O   R   C   A *
                                 *****************

           --- An Ab Initio, DFT and Semiempirical electronic structure package ---

                  #######################################################
                  #                        -***-                        #
                  #          Department of theory and spectroscopy      #
                  #               Directorship: Frank Neese             #
                  #        Max Planck Institute fuer Kohlenforschung    #
                  #                Kaiser Wilhelm Platz 1               #
                  #                 D-45470 Muelheim/Ruhr               #
                  #                      Germany                        #
                  #                                                     #
                  #                  All rights reserved                #
                  #                        -***-                        #
                  #######################################################


                         Program Version 4.2.0 -  RELEASE  -


 With contributions from (in alphabetic order):
   Daniel Aravena         : Magnetic Suceptibility
   Michael Atanasov       : Ab Initio Ligand Field Theory (pilot matlab implementation)
   Alexander A. Auer      : GIAO ZORA, VPT2
   Ute Becker             : Parallelization
   Giovanni Bistoni       : ED, misc. LED, open-shell LED, HFLED
   Martin Brehm           : Molecular dynamics
   Dmytro Bykov           : SCF Hessian
   Vijay G. Chilkuri      : MRCI spin determinant printing, contributions to CSF-ICE
   Dipayan Datta          : RHF DLPNO-CCSD density
   Achintya Kumar Dutta   : EOM-CC, STEOM-CC
   Dmitry Ganyushin       : Spin-Orbit,Spin-Spin,Magnetic field MRCI
   Miquel Garcia          : C-PCM Hessian, Gaussian charge scheme
   Yang Guo               : DLPNO-NEVPT2, CIM, IAO-localization
   Andreas Hansen         : Spin unrestricted coupled pair/coupled cluster methods
   Benjamin Helmich-Paris : CASSCF linear response (MC-RPA)
   Lee Huntington         : MR-EOM, pCC
   Robert Izsak           : Overlap fitted RIJCOSX, COSX-SCS-MP3, EOM
   Christian Kollmar      : KDIIS, OOCD, Brueckner-CCSD(T), CCSD density
   Simone Kossmann        : Meta GGA functionals, TD-DFT gradient, OOMP2, MP2 Hessian
   Martin Krupicka        : AUTO-CI
   Lucas Lang             : DCDCAS
   Dagmar Lenk            : GEPOL surface, SMD
   Dimitrios Liakos       : Extrapolation schemes; Compound Job, initial MDCI parallelization
   Dimitrios Manganas     : Further ROCIS development; embedding schemes
   Dimitrios Pantazis     : SARC Basis sets
   Taras Petrenko         : DFT Hessian,TD-DFT gradient, ASA, ECA, R-Raman, ABS, FL, XAS/XES, NRVS
   Peter Pinski           : DLPNO-MP2, DLPNO-MP2 Gradient
   Christoph Reimann      : Effective Core Potentials
   Marius Retegan         : Local ZFS, SOC
   Christoph Riplinger    : Optimizer, TS searches, QM/MM, DLPNO-CCSD(T), (RO)-DLPNO pert. Triples
   Tobias Risthaus        : Range-separated hybrids, TD-DFT gradient, RPA, STAB
   Michael Roemelt        : Original ROCIS implementation
   Masaaki Saitow         : Open-shell DLPNO-CCSD energy and density
   Barbara Sandhoefer     : DKH picture change effects
   Avijit Sen             : IP-ROCIS
   Kantharuban Sivalingam : CASSCF convergence, NEVPT2, FIC-MRCI
   Bernardo de Souza      : ESD, SOC TD-DFT
   Georgi Stoychev        : AutoAux, RI-MP2 NMR
   Willem Van den Heuvel  : Paramagnetic NMR
   Boris Wezisla          : Elementary symmetry handling
   Frank Wennmohs         : Technical directorship


 We gratefully acknowledge several colleagues who have allowed us to
 interface, adapt or use parts of their codes:
   Stefan Grimme, W. Hujo, H. Kruse,             : VdW corrections, initial TS optimization,
                  C. Bannwarth                     DFT functionals, gCP, sTDA/sTD-DF
   Ed Valeev, F. Pavosevic, A. Kumar             : LibInt (2-el integral package), F12 methods
   Garnet Chan, S. Sharma, J. Yang, R. Olivares  : DMRG
   Ulf Ekstrom                                   : XCFun DFT Library
   Mihaly Kallay                                 : mrcc  (arbitrary order and MRCC methods)
   Andreas Klamt, Michael Diedenhofen            : otool_cosmo (COSMO solvation model)
   Jiri Pittner, Ondrej Demel                    : Mk-CCSD
   Frank Weinhold                                : gennbo (NPA and NBO analysis)
   Christopher J. Cramer and Donald G. Truhlar   : smd solvation model
   Lars Goerigk                                  : TD-DFT with DH, B97 family of functionals
   V. Asgeirsson, H. Jonsson                     : NEB implementation
   FAccTs GmbH                                   : IRC, NEB, NEB-TS, Multilevel, MM, QM/MM, CI optimization
   S Lehtola, MJT Oliveira, MAL Marques          : LibXC Library


 Your calculation uses the libint2 library for the computation of 2-el integrals
 For citations please refer to: http://libint.valeyev.net

 Your ORCA version has been built with support for libXC version: 4.2.3
 For citations please refer to: https://tddft.org/programs/libxc/

 This ORCA versions uses:
   CBLAS   interface :  Fast vector & matrix operations
   LAPACKE interface :  Fast linear algebra routines
   SCALAPACK package :  Parallel linear algebra routines


----- Orbital basis set information -----
Your calculation utilizes the basis: cc-pVTZ 
       H, B-Ne : Obtained from the ccRepo (grant-hill.group.shef.ac.uk/ccrepo) Feb. 2017
                 T. H. Dunning, Jr., J. Chem. Phys. 90, 1007 (1989)
            He : Obtained from the ccRepo (grant-hill.group.shef.ac.uk/ccrepo) Feb. 2017
                 D. E. Woon, T. H. Dunning, Jr., J. Chem. Phys. 100, 2975 (1994)
  Li-Be, Na-Mg : Obtained from the ccRepo (grant-hill.group.shef.ac.uk/ccrepo) Feb. 2017
                 B. P. Prascher, D. E. Woon, K. A. Peterson, T. H. Dunning, Jr., A. K. Wilson, Theor. Chem. Acc. 128, 69 (2011)
         Al-Ar : Obtained from the ccRepo (grant-hill.group.shef.ac.uk/ccrepo) Feb. 2017
                 D. E. Woon, T. H. Dunning, Jr., J. Chem. Phys. 98, 1358 (1993)
            Ca : Obtained from the Peterson Research Group Website (tyr0.chem.wsu.edu/~kipeters) Feb. 2017
                 J. Koput, K. A. Peterson, J. Phys. Chem. 106, 9595 (2002)
         Sc-Zn : Obtained from the ccRepo (grant-hill.group.shef.ac.uk/ccrepo) Feb. 2017
                 N. B. Balabanov, K. A. Peterson, J. Chem. Phys. 123, 064107 (2005)
                 N. B. Balabanov, K. A. Peterson, J. Chem. Phys. 125, 074110 (2006)
         Ga-Kr : Obtained from the ccRepo (grant-hill.group.shef.ac.uk/ccrepo) Feb. 2017
                 A. K. Wilson, D. E. Woon, K. A. Peterson, T. H. Dunning, Jr., J. Chem. Phys. 110, 7667 (1999)
             Y : Obtained from the ccRepo (grant-hill.group.shef.ac.uk/ccrepo) Feb. 2017
                 K. A. Peterson, D. Figgen, M. Dolg, H. Stoll, J. Chem. Phys. 126, 124101 (2007)
        Ag, Au : Obtained from the Peterson Research Group Website (tyr0.chem.wsu.edu/~kipeters) Feb. 2017
                 K. A. Peterson, C. Puzzarini, Theor. Chem. Acc. 114, 283 (2005)

----- AuxC basis set information -----
Your calculation utilizes the auxiliary basis: cc-pVTZ/C 
  Obtained from the EMSL Basis Set Exchange (bse.pnl.gov) Feb. 2017
  H-He, B-F, Al-Ar, Ga-Kr : F. Weigend, A. Kohn, C. Hattig, J. Chem. Phys. 116, 3175 (2002)
             Li-Be, Na-Mg : C. Haettig, Phys. Chem. Chem. Phys. 7, 59 (2005)
                       Ne : C. Haettig, Phys. Chem. Chem. Phys. 7, 59 (2005)
                            F. Weigend, A. Kohn, C. Hattig, J. Chem. Phys. 116, 3175 (2002)
                    Sc-Zn : J. G. Hill, J. A. Platts, J. Chem. Phys. 128, 044104 (2008)

================================================================================
                                        WARNINGS
                       Please study these warnings very carefully!
================================================================================


WARNING: No MP2 level density has been requested!
         To caclulate MP2 level properties use
         %mp2 Density relaxed end
         or
         %mp2 Density unrelaxed end

WARNING: Post HF methods need fully converged wavefunctions
  ===> : Setting SCFConvForced true
         You can overwrite this default with %scf ConvForced false 


INFO   : the flag for use of LIBINT has been found!

================================================================================
                                       INPUT FILE
================================================================================
NAME = CONFS/Conf587.orca
|  1> ! ri-mp2 cc-pvtz cc-pvtz/c TightSCF NoKeepInts
|  2> 
|  3> %scf
|  4>   MaxCore 4096
|  5> end
|  6> *xyz  0  1
|  7>     C       14.8101383   15.0470493   14.0257600
|  8>     C       15.4181089   14.8567539   15.4324266
|  9>     O       16.2757541   15.9410923   15.8655070
| 10>     C       16.0279019   17.2813116   15.7045167
| 11>     O       15.2380522   17.7337852   14.8955874
| 12>     C       16.7832484   18.1148262   16.7077728
| 13>     C       16.8875413   19.4611836   16.5577064
| 14>     C       16.1107947   20.3423820   15.6007787
| 15>     N       17.7939184   20.2031006   17.3188177
| 16>     C       18.7651772   19.6592345   18.1145251
| 17>     S       19.8694398   20.5957614   18.9141416
| 18>     N       18.7897070   18.2904722   18.1977266
| 19>     C       17.7873595   17.3795801   17.6135822
| 20>     C       17.1420031   16.4766508   18.6571031
| 21>     C       17.4505754   15.1046466   18.7068027
| 22>     C       16.8549517   14.2738999   19.6708644
| 23>     C       15.9467191   14.8207351   20.5937323
| 24>     C       15.6417711   16.1883331   20.5488488
| 25>     O       14.7668215   16.7190398   21.4398271
| 26>     C       16.2360195   17.0124291   19.5880257
| 27>     H       13.9758082   15.7589491   14.0433027
| 28>     H       14.4177407   14.0942643   13.6507807
| 29>     H       15.5664183   15.4061391   13.3166437
| 30>     H       14.5973866   14.7382938   16.1520273
| 31>     H       16.0006573   13.9268092   15.4473268
| 32>     H       15.0311679   20.1881365   15.7248239
| 33>     H       16.3594888   20.0972125   14.5603853
| 34>     H       16.3056655   21.4116172   15.7445721
| 35>     H       17.8003765   21.2081138   17.2493949
| 36>     H       19.4969323   17.9192809   18.8193272
| 37>     H       18.4265326   16.7950419   16.9367757
| 38>     H       18.1497126   14.6808824   17.9908547
| 39>     H       17.0979763   13.2132179   19.7015572
| 40>     H       15.4847407   14.1836132   21.3406988
| 41>     H       14.4869156   16.0064180   22.0336374
| 42>     H       15.9934769   18.0697432   19.5718386
| 43> *
| 44> 
| 45>                          ****END OF INPUT****
================================================================================

                       ****************************
                       * Single Point Calculation *
                       ****************************

---------------------------------
CARTESIAN COORDINATES (ANGSTROEM)
---------------------------------
  C     14.810138   15.047049   14.025760
  C     15.418109   14.856754   15.432427
  O     16.275754   15.941092   15.865507
  C     16.027902   17.281312   15.704517
  O     15.238052   17.733785   14.895587
  C     16.783248   18.114826   16.707773
  C     16.887541   19.461184   16.557706
  C     16.110795   20.342382   15.600779
  N     17.793918   20.203101   17.318818
  C     18.765177   19.659235   18.114525
  S     19.869440   20.595761   18.914142
  N     18.789707   18.290472   18.197727
  C     17.787360   17.379580   17.613582
  C     17.142003   16.476651   18.657103
  C     17.450575   15.104647   18.706803
  C     16.854952   14.273900   19.670864
  C     15.946719   14.820735   20.593732
  C     15.641771   16.188333   20.548849
  O     14.766822   16.719040   21.439827
  C     16.236020   17.012429   19.588026
  H     13.975808   15.758949   14.043303
  H     14.417741   14.094264   13.650781
  H     15.566418   15.406139   13.316644
  H     14.597387   14.738294   16.152027
  H     16.000657   13.926809   15.447327
  H     15.031168   20.188136   15.724824
  H     16.359489   20.097213   14.560385
  H     16.305665   21.411617   15.744572
  H     17.800376   21.208114   17.249395
  H     19.496932   17.919281   18.819327
  H     18.426533   16.795042   16.936776
  H     18.149713   14.680882   17.990855
  H     17.097976   13.213218   19.701557
  H     15.484741   14.183613   21.340699
  H     14.486916   16.006418   22.033637
  H     15.993477   18.069743   19.571839

----------------------------
CARTESIAN COORDINATES (A.U.)
----------------------------
  NO LB      ZA    FRAG     MASS         X           Y           Z
   0 C     6.0000    0    12.011   27.987105   28.434802   26.504845
   1 C     6.0000    0    12.011   29.136003   28.075196   29.163060
   2 O     8.0000    0    15.999   30.756718   30.124299   29.981463
   3 C     6.0000    0    12.011   30.288345   32.656946   29.677236
   4 O     8.0000    0    15.999   28.795745   33.511997   28.148581
   5 C     6.0000    0    12.011   31.715743   34.232060   31.573115
   6 C     6.0000    0    12.011   31.912828   36.776307   31.289531
   7 C     6.0000    0    12.011   30.444990   38.441531   29.481199
   8 N     7.0000    0    14.007   33.625633   38.178327   32.727822
   9 C     6.0000    0    12.011   35.461046   37.150569   34.231491
  10 S    16.0000    0    32.060   37.547800   38.920349   35.742548
  11 N     7.0000    0    14.007   35.507400   34.563983   34.388720
  12 C     6.0000    0    12.011   33.613238   32.842647   33.284847
  13 C     6.0000    0    12.011   32.393691   31.136358   35.256815
  14 C     6.0000    0    12.011   32.976808   28.543645   35.350734
  15 C     6.0000    0    12.011   31.851243   26.973762   37.172547
  16 C     6.0000    0    12.011   30.134932   28.007130   38.916514
  17 C     6.0000    0    12.011   29.558664   30.591516   38.831697
  18 O     8.0000    0    15.999   27.905249   31.594406   40.515402
  19 C     6.0000    0    12.011   30.681630   32.148832   37.016004
  20 H     1.0000    0     1.008   26.410450   29.780098   26.537996
  21 H     1.0000    0     1.008   27.245581   26.634300   25.796237
  22 H     1.0000    0     1.008   29.416267   29.113384   25.164810
  23 H     1.0000    0     1.008   27.585063   27.851339   30.522908
  24 H     1.0000    0     1.008   30.236860   26.317855   29.191217
  25 H     1.0000    0     1.008   28.404791   38.150049   29.715611
  26 H     1.0000    0     1.008   30.914954   37.978228   27.515141
  27 H     1.0000    0     1.008   30.813242   40.462093   29.752929
  28 H     1.0000    0     1.008   33.637837   40.077527   32.596632
  29 H     1.0000    0     1.008   36.843862   33.862533   35.563374
  30 H     1.0000    0     1.008   34.821100   31.738030   32.005868
  31 H     1.0000    0     1.008   34.297986   27.742847   33.997788
  32 H     1.0000    0     1.008   32.310493   24.969363   37.230548
  33 H     1.0000    0     1.008   29.261919   26.803145   40.328076
  34 H     1.0000    0     1.008   27.376303   30.247746   41.637540
  35 H     1.0000    0     1.008   30.223291   34.146866   36.985415

--------------------------------
INTERNAL COORDINATES (ANGSTROEM)
--------------------------------
 C      0   0   0     0.000000000000     0.00000000     0.00000000
 C      1   0   0     1.544199311385     0.00000000     0.00000000
 O      2   1   0     1.448759361544   114.40258810     0.00000000
 C      3   2   1     1.372419892683   126.08065476    42.61706724
 O      4   3   2     1.217769074860   123.91055385   340.69189776
 C      4   3   2     1.507255030067   111.80468253   157.01437926
 C      6   4   3     1.358703493016   120.85902874   166.88720361
 C      7   6   4     1.515109409845   127.35331480    12.22814808
 N      7   6   4     1.396871752625   121.05948075   192.85615134
 C      9   7   6     1.368314385557   124.49414623     9.76949069
 S     10   9   7     1.654045063248   122.00294313   175.96416491
 N     10   9   7     1.371508087687   116.40087771   357.00818486
 C     12  10   9     1.475008341892   125.46006564   353.69676495
 C     13  12  10     1.523385070347   112.49679301   237.57321004
 C     14  13  12     1.407154021202   120.61074554   252.10859593
 C     15  14  13     1.405105915214   120.51356784   179.94779518
 C     16  15  14     1.405560511864   119.62899225   359.84078324
 C     17  16  15     1.401903028344   119.93834504   359.92657787
 O     18  17  16     1.356845140403   120.05339200   180.09528849
 C     18  17  16     1.398372771335   120.29576518     0.08621510
 H      1   2   3     1.096911932349   111.39985177   283.01899110
 H      1   2   3     1.096532994551   110.20162006   164.05001167
 H      1   2   3     1.097155800144   110.95909423    44.39936854
 H      2   1   3     1.097926708141   108.42310516   122.00560743
 H      2   1   3     1.097443301205   109.01305704   238.44843892
 H      8   7   6     1.097621479924   110.55785363    53.73255373
 H      8   7   6     1.097440324514   110.64948584   294.90415492
 H      8   7   6     1.096318878564   113.15830315   174.09688926
 H      9   7   6     1.007428788744   119.76647516   185.23769873
 H     12  10   9     1.012095801827   114.56824871   182.11365420
 H     13  12  10     1.099224361750   100.20040854   120.01622749
 H     15  14  13     1.086715445887   119.86900712   359.54346262
 H     16  15  14     1.088599701130   120.05181631   179.90828483
 H     17  16  15     1.085037930051   119.91290060   180.05362691
 H     19  18  17     0.968910633173   107.52084322     1.69893675
 H     20  18  17     1.084897249089   119.31356065   180.39494275

---------------------------
INTERNAL COORDINATES (A.U.)
---------------------------
 C      0   0   0     0.000000000000     0.00000000     0.00000000
 C      1   0   0     2.918113794707     0.00000000     0.00000000
 O      2   1   0     2.737758427273   114.40258810     0.00000000
 C      3   2   1     2.593497737916   126.08065476    42.61706724
 O      4   3   2     2.301250045844   123.91055385   340.69189776
 C      4   3   2     2.848299220802   111.80468253   157.01437926
 C      6   4   3     2.567577499003   120.85902874   166.88720361
 C      7   6   4     2.863141847534   127.35331480    12.22814808
 N      7   6   4     2.639705056671   121.05948075   192.85615134
 C      9   7   6     2.585739453807   124.49414623     9.76949069
 S     10   9   7     3.125692182703   122.00294313   175.96416491
 N     10   9   7     2.591774676187   116.40087771   357.00818486
 C     12  10   9     2.787361811425   125.46006564   353.69676495
 C     13  12  10     2.878780579460   112.49679301   237.57321004
 C     14  13  12     2.659135728318   120.61074554   252.10859593
 C     15  14  13     2.655265368907   120.51356784   179.94779518
 C     16  15  14     2.656124432078   119.62899225   359.84078324
 C     17  16  15     2.649212789885   119.93834504   359.92657787
 O     18  17  16     2.564065721504   120.05339200   180.09528849
 C     18  17  16     2.642541570956   120.29576518     0.08621510
 H      1   2   3     2.072863145170   111.39985177   283.01899110
 H      1   2   3     2.072147056510   110.20162006   164.05001167
 H      1   2   3     2.073323988515   110.95909423    44.39936854
 H      2   1   3     2.074780793505   108.42310516   122.00560743
 H      2   1   3     2.073867286785   109.01305704   238.44843892
 H      8   7   6     2.074203995767   110.55785363    53.73255373
 H      8   7   6     2.073861661652   110.64948584   294.90415492
 H      8   7   6     2.071742435933   113.15830315   174.09688926
 H      9   7   6     1.903764510154   119.76647516   185.23769873
 H     12  10   9     1.912583886745   114.56824871   182.11365420
 H     13  12  10     2.077233003442   100.20040854   120.01622749
 H     15  14  13     2.053594578229   119.86900712   359.54346262
 H     16  15  14     2.057155304605   120.05181631   179.90828483
 H     17  16  15     2.050424532712   119.91290060   180.05362691
 H     19  18  17     1.830975744942   107.52084322     1.69893675
 H     20  18  17     2.050158684222   119.31356065   180.39494275

---------------------
BASIS SET INFORMATION
---------------------
There are 5 groups of distinct atoms

 Group   1 Type C   : 18s5p2d1f contracted to 4s3p2d1f pattern {8811/311/11/1}
 Group   2 Type O   : 18s5p2d1f contracted to 4s3p2d1f pattern {8811/311/11/1}
 Group   3 Type N   : 18s5p2d1f contracted to 4s3p2d1f pattern {8811/311/11/1}
 Group   4 Type S   : 41s16p2d1f contracted to 5s4p2d1f pattern {13131311/7711/11/1}
 Group   5 Type H   : 5s2p1d contracted to 3s2p1d pattern {311/11/1}

Atom   0C    basis set group =>   1
Atom   1C    basis set group =>   1
Atom   2O    basis set group =>   2
Atom   3C    basis set group =>   1
Atom   4O    basis set group =>   2
Atom   5C    basis set group =>   1
Atom   6C    basis set group =>   1
Atom   7C    basis set group =>   1
Atom   8N    basis set group =>   3
Atom   9C    basis set group =>   1
Atom  10S    basis set group =>   4
Atom  11N    basis set group =>   3
Atom  12C    basis set group =>   1
Atom  13C    basis set group =>   1
Atom  14C    basis set group =>   1
Atom  15C    basis set group =>   1
Atom  16C    basis set group =>   1
Atom  17C    basis set group =>   1
Atom  18O    basis set group =>   2
Atom  19C    basis set group =>   1
Atom  20H    basis set group =>   5
Atom  21H    basis set group =>   5
Atom  22H    basis set group =>   5
Atom  23H    basis set group =>   5
Atom  24H    basis set group =>   5
Atom  25H    basis set group =>   5
Atom  26H    basis set group =>   5
Atom  27H    basis set group =>   5
Atom  28H    basis set group =>   5
Atom  29H    basis set group =>   5
Atom  30H    basis set group =>   5
Atom  31H    basis set group =>   5
Atom  32H    basis set group =>   5
Atom  33H    basis set group =>   5
Atom  34H    basis set group =>   5
Atom  35H    basis set group =>   5
---------------------------------
AUXILIARY/C BASIS SET INFORMATION
---------------------------------
There are 5 groups of distinct atoms

 Group   1 Type C   : 8s6p5d3f1g contracted to 8s6p5d3f1g pattern {11111111/111111/11111/111/1}
 Group   2 Type O   : 8s6p5d3f1g contracted to 8s6p5d3f1g pattern {11111111/111111/11111/111/1}
 Group   3 Type N   : 8s6p5d3f1g contracted to 8s6p5d3f1g pattern {11111111/111111/11111/111/1}
 Group   4 Type S   : 10s8p7d5f2g contracted to 10s8p7d5f2g pattern {1111111111/11111111/1111111/11111/11}
 Group   5 Type H   : 4s3p2d1f contracted to 4s3p2d1f pattern {1111/111/11/1}

Atom   0C    basis set group =>   1
Atom   1C    basis set group =>   1
Atom   2O    basis set group =>   2
Atom   3C    basis set group =>   1
Atom   4O    basis set group =>   2
Atom   5C    basis set group =>   1
Atom   6C    basis set group =>   1
Atom   7C    basis set group =>   1
Atom   8N    basis set group =>   3
Atom   9C    basis set group =>   1
Atom  10S    basis set group =>   4
Atom  11N    basis set group =>   3
Atom  12C    basis set group =>   1
Atom  13C    basis set group =>   1
Atom  14C    basis set group =>   1
Atom  15C    basis set group =>   1
Atom  16C    basis set group =>   1
Atom  17C    basis set group =>   1
Atom  18O    basis set group =>   2
Atom  19C    basis set group =>   1
Atom  20H    basis set group =>   5
Atom  21H    basis set group =>   5
Atom  22H    basis set group =>   5
Atom  23H    basis set group =>   5
Atom  24H    basis set group =>   5
Atom  25H    basis set group =>   5
Atom  26H    basis set group =>   5
Atom  27H    basis set group =>   5
Atom  28H    basis set group =>   5
Atom  29H    basis set group =>   5
Atom  30H    basis set group =>   5
Atom  31H    basis set group =>   5
Atom  32H    basis set group =>   5
Atom  33H    basis set group =>   5
Atom  34H    basis set group =>   5
Atom  35H    basis set group =>   5
------------------------------------------------------------------------------
                           ORCA GTO INTEGRAL CALCULATION
------------------------------------------------------------------------------

                         BASIS SET STATISTICS AND STARTUP INFO

 # of primitive gaussian shells          ...  682
 # of primitive gaussian functions       ... 1312
 # of contracted shells                  ...  298
 # of contracted basis functions         ...  828
 Highest angular momentum                ...    3
 Maximum contraction depth               ...   13
 Integral package used                   ... LIBINT
 Integral threshhold            Thresh   ...  2.500e-11
 Primitive cut-off              TCut     ...  2.500e-12


------------------------------ INTEGRAL EVALUATION ----------------------------


 * One electron integrals 
 Pre-screening matrix                    ... done
 Shell pair data                         ... done (   0.012 sec)

-------------------------------------------------------------------------------
                                 ORCA SCF
-------------------------------------------------------------------------------

------------
SCF SETTINGS
------------
Hamiltonian:
 Ab initio Hamiltonian  Method          .... Hartree-Fock(GTOs)


General Settings:
 Integral files         IntName         .... CONFS/Conf587.orca
 Hartree-Fock type      HFTyp           .... RHF
 Total Charge           Charge          ....    0
 Multiplicity           Mult            ....    1
 Number of Electrons    NEL             ....  154
 Basis Dimension        Dim             ....  828
 Nuclear Repulsion      ENuc            ....   1685.5686301489 Eh

Convergence Acceleration:
 DIIS                   CNVDIIS         .... on
   Start iteration      DIISMaxIt       ....    12
   Startup error        DIISStart       ....  0.200000
   # of expansion vecs  DIISMaxEq       ....     5
   Bias factor          DIISBfac        ....   1.050
   Max. coefficient     DIISMaxC        ....  10.000
 Newton-Raphson         CNVNR           .... off
 SOSCF                  CNVSOSCF        .... on
   Start iteration      SOSCFMaxIt      ....   150
   Startup grad/error   SOSCFStart      ....  0.003300
 Level Shifting         CNVShift        .... on
   Level shift para.    LevelShift      ....    0.2500
   Turn off err/grad.   ShiftErr        ....    0.0010
 Zerner damping         CNVZerner       .... off
 Static damping         CNVDamp         .... on
   Fraction old density DampFac         ....    0.7000
   Max. Damping (<1)    DampMax         ....    0.9800
   Min. Damping (>=0)   DampMin         ....    0.0000
   Turn off err/grad.   DampErr         ....    0.1000
 Fernandez-Rico         CNVRico         .... off

SCF Procedure:
 Maximum # iterations   MaxIter         ....   125
 SCF integral mode      SCFMode         .... Direct
   Integral package                     .... LIBINT
 Reset frequency        DirectResetFreq ....    20
 Integral Threshold     Thresh          ....  2.500e-11 Eh
 Primitive CutOff       TCut            ....  2.500e-12 Eh

Convergence Tolerance:
 Convergence Check Mode ConvCheckMode   .... Total+1el-Energy
 Convergence forced     ConvForced      .... 1
 Energy Change          TolE            ....  1.000e-08 Eh
 1-El. energy change                    ....  1.000e-05 Eh
 Orbital Gradient       TolG            ....  1.000e-05
 Orbital Rotation angle TolX            ....  1.000e-05
 DIIS Error             TolErr          ....  5.000e-07


Diagonalization of the overlap matrix:
Smallest eigenvalue                        ... 3.486e-05
Time for diagonalization                   ...    0.281 sec
Threshold for overlap eigenvalues          ... 1.000e-08
Number of eigenvalues below threshold      ... 0
Time for construction of square roots      ...    0.247 sec
Total time needed                          ...    0.530 sec

-------------------
DFT GRID GENERATION
-------------------

General Integration Accuracy     IntAcc      ...  4.340
Radial Grid Type                 RadialGrid  ... Gauss-Chebyshev
Angular Grid (max. acc.)         AngularGrid ... Lebedev-110
Angular grid pruning method      GridPruning ... 3 (G Style)
Weight generation scheme         WeightScheme... Becke
Basis function cutoff            BFCut       ...    1.0000e-11
Integration weight cutoff        WCut        ...    1.0000e-14
Grids for H and He will be reduced by one unit

# of grid points (after initial pruning)     ...  46246 (   0.0 sec)
# of grid points (after weights+screening)   ...  41388 (   0.3 sec)
nearest neighbour list constructed           ...    0.0 sec
Grid point re-assignment to atoms done       ...    0.0 sec
Grid point division into batches done        ...    0.0 sec
Reduced shell lists constructed in    0.8 sec

Total number of grid points                  ...    41388
Total number of batches                      ...      668
Average number of points per batch           ...       61
Average number of grid points per atom       ...     1150
Average number of shells per batch           ...   144.93 (48.64%)
Average number of basis functions per batch  ...   368.28 (44.48%)
Average number of large shells per batch     ...    92.48 (63.81%)
Average number of large basis fcns per batch ...   238.53 (64.77%)
Maximum spatial batch extension              ...  20.87, 19.46, 22.44 au
Average spatial batch extension              ...   3.63,  3.34,  3.46 au

Time for grid setup =    1.060 sec

------------------------------
INITIAL GUESS: MODEL POTENTIAL
------------------------------
Loading Hartree-Fock densities                     ... done
Calculating cut-offs                               ... done
Setting up the integral package                    ... done
Initializing the effective Hamiltonian             ... done
Starting the Coulomb interaction                   ... done (   2.8 sec)
Reading the grid                                   ... done
Mapping shells                                     ... done
Starting the XC term evaluation                    ... done (   1.0 sec)
Transforming the Hamiltonian                       ... done (   0.2 sec)
Diagonalizing the Hamiltonian                      ... done (   0.3 sec)
Back transforming the eigenvectors                 ... done (   0.1 sec)
Now organizing SCF variables                       ... done
                      ------------------
                      INITIAL GUESS DONE (   5.6 sec)
                      ------------------
--------------
SCF ITERATIONS
--------------
ITER       Energy         Delta-E        Max-DP      RMS-DP      [F,P]     Damp
               ***  Starting incremental Fock matrix formation  ***
  0  -1270.0056752875   0.000000000000 0.04931305  0.00042167  0.3045210 0.7000
  1  -1270.2734765657  -0.267801278229 0.03607760  0.00033668  0.1788682 0.7000
                               ***Turning on DIIS***
  2  -1270.4406343457  -0.167157779960 0.02583438  0.00022824  0.1096133 0.7000
  3  -1272.5823327200  -2.141698374345 0.06312668  0.00050470  0.0828761 0.0000
  4  -1270.7482453937   1.834087326343 0.00675120  0.00009009  0.0070712 0.0000
  5  -1270.8091519685  -0.060906574799 0.00261605  0.00004687  0.0049206 0.0000
                      *** Initiating the SOSCF procedure ***
                           *** Shutting down DIIS ***
                      *** Re-Reading the Fockian *** 
                      *** Removing any level shift *** 
ITER      Energy       Delta-E        Grad      Rot      Max-DP    RMS-DP
  6  -1270.78891710   0.0202348708  0.001637  0.001637  0.001675  0.000024
               *** Restarting incremental Fock matrix formation ***
  7  -1270.80383526  -0.0149181593  0.000914  0.002319  0.001268  0.000014
  8  -1270.80387840  -0.0000431423  0.000389  0.002558  0.001387  0.000015
  9  -1270.80389437  -0.0000159724  0.000167  0.000326  0.000348  0.000004
 10  -1270.80389633  -0.0000019572  0.000047  0.000126  0.000113  0.000001
 11  -1270.80389652  -0.0000001926  0.000025  0.000121  0.000053  0.000001
 12  -1270.80389658  -0.0000000598  0.000010  0.000041  0.000033  0.000000
 13  -1270.80389658   0.0000000006  0.000003  0.000012  0.000007  0.000000
                  ***Gradient check signals convergence***
              ***Rediagonalizing the Fockian in SOSCF/NRSCF***

               *****************************************************
               *                     SUCCESS                       *
               *           SCF CONVERGED AFTER  14 CYCLES          *
               *****************************************************


----------------
TOTAL SCF ENERGY
----------------

Total Energy       :        -1270.80389657 Eh          -34580.33206 eV

Components:
Nuclear Repulsion  :         1685.56863015 Eh           45866.65424 eV
Electronic Energy  :        -2956.37252671 Eh          -80446.98630 eV
One Electron Energy:        -5092.54414195 Eh         -138575.17113 eV
Two Electron Energy:         2136.17161523 Eh           58128.18483 eV

Virial components:
Potential Energy   :        -2539.71588188 Eh          -69109.18259 eV
Kinetic Energy     :         1268.91198532 Eh           34528.85053 eV
Virial Ratio       :            2.00149097


---------------
SCF CONVERGENCE
---------------

  Last Energy change         ...    1.5527e-08  Tolerance :   1.0000e-08
  Last MAX-Density change    ...    1.8248e-06  Tolerance :   1.0000e-07
  Last RMS-Density change    ...    2.7638e-08  Tolerance :   5.0000e-09
  Last Orbital Gradient      ...    1.3204e-06  Tolerance :   1.0000e-05
  Last Orbital Rotation      ...    3.0226e-06  Tolerance :   1.0000e-05

             **** THE GBW FILE WAS UPDATED (CONFS/Conf587.orca.gbw) ****
             **** DENSITY FILE WAS UPDATED (CONFS/Conf587.orca.scfp) ****
             **** ENERGY FILE WAS UPDATED (CONFS/Conf587.orca.en.tmp) ****
             **** THE GBW FILE WAS UPDATED (CONFS/Conf587.orca.gbw) ****
             **** DENSITY FILE WAS UPDATED (CONFS/Conf587.orca.scfp) ****
----------------
ORBITAL ENERGIES
----------------

  NO   OCC          E(Eh)            E(eV) 
   0   2.0000     -91.888130     -2500.4031 
   1   2.0000     -20.596804      -560.4675 
   2   2.0000     -20.596234      -560.4520 
   3   2.0000     -20.540742      -558.9420 
   4   2.0000     -15.628384      -425.2700 
   5   2.0000     -15.606080      -424.6630 
   6   2.0000     -11.397227      -310.1343 
   7   2.0000     -11.382651      -309.7377 
   8   2.0000     -11.336459      -308.4807 
   9   2.0000     -11.313327      -307.8513 
  10   2.0000     -11.306378      -307.6622 
  11   2.0000     -11.302138      -307.5468 
  12   2.0000     -11.260289      -306.4080 
  13   2.0000     -11.258261      -306.3528 
  14   2.0000     -11.254842      -306.2598 
  15   2.0000     -11.251056      -306.1568 
  16   2.0000     -11.243074      -305.9396 
  17   2.0000     -11.238293      -305.8095 
  18   2.0000     -11.238204      -305.8071 
  19   2.0000     -11.220937      -305.3372 
  20   2.0000      -8.893209      -241.9965 
  21   2.0000      -6.574784      -178.9090 
  22   2.0000      -6.572784      -178.8546 
  23   2.0000      -6.572196      -178.8385 
  24   2.0000      -1.443944       -39.2917 
  25   2.0000      -1.415882       -38.5281 
  26   2.0000      -1.354347       -36.8537 
  27   2.0000      -1.339628       -36.4531 
  28   2.0000      -1.237463       -33.6731 
  29   2.0000      -1.156890       -31.4806 
  30   2.0000      -1.119796       -30.4712 
  31   2.0000      -1.042014       -28.3546 
  32   2.0000      -1.035673       -28.1821 
  33   2.0000      -1.014506       -27.6061 
  34   2.0000      -0.995125       -27.0787 
  35   2.0000      -0.983265       -26.7560 
  36   2.0000      -0.921006       -25.0618 
  37   2.0000      -0.895385       -24.3647 
  38   2.0000      -0.846262       -23.0280 
  39   2.0000      -0.837628       -22.7930 
  40   2.0000      -0.833689       -22.6858 
  41   2.0000      -0.818632       -22.2761 
  42   2.0000      -0.747641       -20.3443 
  43   2.0000      -0.731597       -19.9078 
  44   2.0000      -0.718332       -19.5468 
  45   2.0000      -0.694903       -18.9093 
  46   2.0000      -0.687739       -18.7143 
  47   2.0000      -0.678042       -18.4505 
  48   2.0000      -0.668301       -18.1854 
  49   2.0000      -0.656671       -17.8689 
  50   2.0000      -0.648373       -17.6431 
  51   2.0000      -0.644559       -17.5394 
  52   2.0000      -0.633938       -17.2503 
  53   2.0000      -0.606634       -16.5073 
  54   2.0000      -0.601181       -16.3590 
  55   2.0000      -0.598698       -16.2914 
  56   2.0000      -0.596112       -16.2210 
  57   2.0000      -0.582725       -15.8567 
  58   2.0000      -0.574911       -15.6441 
  59   2.0000      -0.569178       -15.4881 
  60   2.0000      -0.561807       -15.2876 
  61   2.0000      -0.539562       -14.6822 
  62   2.0000      -0.535482       -14.5712 
  63   2.0000      -0.523707       -14.2508 
  64   2.0000      -0.521272       -14.1845 
  65   2.0000      -0.511905       -13.9296 
  66   2.0000      -0.501443       -13.6450 
  67   2.0000      -0.497168       -13.5286 
  68   2.0000      -0.483032       -13.1440 
  69   2.0000      -0.462727       -12.5914 
  70   2.0000      -0.453552       -12.3418 
  71   2.0000      -0.438998       -11.9458 
  72   2.0000      -0.352015        -9.5788 
  73   2.0000      -0.349198        -9.5022 
  74   2.0000      -0.327366        -8.9081 
  75   2.0000      -0.320703        -8.7268 
  76   2.0000      -0.317363        -8.6359 
  77   0.0000       0.077452         2.1076 
  78   0.0000       0.105961         2.8834 
  79   0.0000       0.124807         3.3962 
  80   0.0000       0.133240         3.6257 
  81   0.0000       0.136927         3.7260 
  82   0.0000       0.140846         3.8326 
  83   0.0000       0.150759         4.1023 
  84   0.0000       0.159214         4.3324 
  85   0.0000       0.163712         4.4548 
  86   0.0000       0.172660         4.6983 
  87   0.0000       0.179650         4.8885 
  88   0.0000       0.183703         4.9988 
  89   0.0000       0.192727         5.2444 
  90   0.0000       0.199178         5.4199 
  91   0.0000       0.208566         5.6754 
  92   0.0000       0.211376         5.7518 
  93   0.0000       0.221113         6.0168 
  94   0.0000       0.223892         6.0924 
  95   0.0000       0.232016         6.3135 
  96   0.0000       0.247155         6.7254 
  97   0.0000       0.250092         6.8054 
  98   0.0000       0.264166         7.1883 
  99   0.0000       0.268875         7.3164 
 100   0.0000       0.295998         8.0545 
 101   0.0000       0.307870         8.3776 
 102   0.0000       0.315570         8.5871 
 103   0.0000       0.317858         8.6494 
 104   0.0000       0.326841         8.8938 
 105   0.0000       0.334876         9.1124 
 106   0.0000       0.343420         9.3449 
 107   0.0000       0.347754         9.4629 
 108   0.0000       0.359907         9.7936 
 109   0.0000       0.363185         9.8828 
 110   0.0000       0.368355        10.0234 
 111   0.0000       0.373224        10.1559 
 112   0.0000       0.378233        10.2922 
 113   0.0000       0.389298        10.5933 
 114   0.0000       0.392968        10.6932 
 115   0.0000       0.404693        11.0123 
 116   0.0000       0.422522        11.4974 
 117   0.0000       0.432429        11.7670 
 118   0.0000       0.437028        11.8921 
 119   0.0000       0.439298        11.9539 
 120   0.0000       0.445649        12.1267 
 121   0.0000       0.452352        12.3091 
 122   0.0000       0.455554        12.3963 
 123   0.0000       0.459598        12.5063 
 124   0.0000       0.462837        12.5944 
 125   0.0000       0.471049        12.8179 
 126   0.0000       0.471560        12.8318 
 127   0.0000       0.479548        13.0492 
 128   0.0000       0.485786        13.2189 
 129   0.0000       0.495207        13.4753 
 130   0.0000       0.497834        13.5467 
 131   0.0000       0.506649        13.7866 
 132   0.0000       0.515824        14.0363 
 133   0.0000       0.516982        14.0678 
 134   0.0000       0.524965        14.2850 
 135   0.0000       0.525378        14.2963 
 136   0.0000       0.533885        14.5278 
 137   0.0000       0.539220        14.6729 
 138   0.0000       0.541548        14.7363 
 139   0.0000       0.546052        14.8588 
 140   0.0000       0.553336        15.0570 
 141   0.0000       0.561542        15.2803 
 142   0.0000       0.566965        15.4279 
 143   0.0000       0.569389        15.4939 
 144   0.0000       0.571184        15.5427 
 145   0.0000       0.574930        15.6446 
 146   0.0000       0.585036        15.9196 
 147   0.0000       0.586339        15.9551 
 148   0.0000       0.593889        16.1605 
 149   0.0000       0.599610        16.3162 
 150   0.0000       0.604229        16.4419 
 151   0.0000       0.606692        16.5089 
 152   0.0000       0.609878        16.5956 
 153   0.0000       0.613692        16.6994 
 154   0.0000       0.619238        16.8503 
 155   0.0000       0.619832        16.8665 
 156   0.0000       0.623394        16.9634 
 157   0.0000       0.630127        17.1466 
 158   0.0000       0.634433        17.2638 
 159   0.0000       0.640439        17.4272 
 160   0.0000       0.649761        17.6809 
 161   0.0000       0.652173        17.7465 
 162   0.0000       0.659024        17.9330 
 163   0.0000       0.661938        18.0122 
 164   0.0000       0.664406        18.0794 
 165   0.0000       0.670359        18.2414 
 166   0.0000       0.672299        18.2942 
 167   0.0000       0.677947        18.4479 
 168   0.0000       0.687311        18.7027 
 169   0.0000       0.695617        18.9287 
 170   0.0000       0.698941        19.0192 
 171   0.0000       0.704110        19.1598 
 172   0.0000       0.711306        19.3556 
 173   0.0000       0.714445        19.4410 
 174   0.0000       0.719463        19.5776 
 175   0.0000       0.727057        19.7842 
 176   0.0000       0.733176        19.9507 
 177   0.0000       0.737091        20.0573 
 178   0.0000       0.740443        20.1485 
 179   0.0000       0.749834        20.4040 
 180   0.0000       0.756908        20.5965 
 181   0.0000       0.767920        20.8962 
 182   0.0000       0.771834        21.0027 
 183   0.0000       0.782254        21.2862 
 184   0.0000       0.792613        21.5681 
 185   0.0000       0.806685        21.9510 
 186   0.0000       0.818744        22.2791 
 187   0.0000       0.822896        22.3921 
 188   0.0000       0.824627        22.4392 
 189   0.0000       0.829899        22.5827 
 190   0.0000       0.841811        22.9069 
 191   0.0000       0.844565        22.9818 
 192   0.0000       0.852387        23.1946 
 193   0.0000       0.861270        23.4364 
 194   0.0000       0.862465        23.4689 
 195   0.0000       0.873500        23.7691 
 196   0.0000       0.885807        24.1040 
 197   0.0000       0.886723        24.1289 
 198   0.0000       0.894087        24.3293 
 199   0.0000       0.909910        24.7599 
 200   0.0000       0.913983        24.8707 
 201   0.0000       0.917213        24.9586 
 202   0.0000       0.926767        25.2186 
 203   0.0000       0.938702        25.5434 
 204   0.0000       0.941905        25.6306 
 205   0.0000       0.946922        25.7671 
 206   0.0000       0.950216        25.8567 
 207   0.0000       0.956227        26.0203 
 208   0.0000       0.966079        26.2883 
 209   0.0000       0.970269        26.4024 
 210   0.0000       0.983166        26.7533 
 211   0.0000       0.992126        26.9971 
 212   0.0000       0.995876        27.0992 
 213   0.0000       1.005871        27.3711 
 214   0.0000       1.011051        27.5121 
 215   0.0000       1.017545        27.6888 
 216   0.0000       1.023886        27.8614 
 217   0.0000       1.028227        27.9795 
 218   0.0000       1.038106        28.2483 
 219   0.0000       1.039152        28.2768 
 220   0.0000       1.049664        28.5628 
 221   0.0000       1.059746        28.8371 
 222   0.0000       1.060529        28.8585 
 223   0.0000       1.069715        29.1084 
 224   0.0000       1.071217        29.1493 
 225   0.0000       1.084700        29.5162 
 226   0.0000       1.099810        29.9274 
 227   0.0000       1.102087        29.9893 
 228   0.0000       1.114017        30.3139 
 229   0.0000       1.122470        30.5440 
 230   0.0000       1.125203        30.6183 
 231   0.0000       1.131979        30.8027 
 232   0.0000       1.145362        31.1669 
 233   0.0000       1.150725        31.3128 
 234   0.0000       1.156554        31.4714 
 235   0.0000       1.158322        31.5195 
 236   0.0000       1.172688        31.9105 
 237   0.0000       1.175936        31.9988 
 238   0.0000       1.176680        32.0191 
 239   0.0000       1.180775        32.1305 
 240   0.0000       1.181743        32.1569 
 241   0.0000       1.200860        32.6771 
 242   0.0000       1.203034        32.7362 
 243   0.0000       1.211627        32.9700 
 244   0.0000       1.217899        33.1407 
 245   0.0000       1.228598        33.4318 
 246   0.0000       1.231757        33.5178 
 247   0.0000       1.239064        33.7167 
 248   0.0000       1.248159        33.9641 
 249   0.0000       1.260604        34.3028 
 250   0.0000       1.263135        34.3716 
 251   0.0000       1.270913        34.5833 
 252   0.0000       1.276893        34.7460 
 253   0.0000       1.282448        34.8972 
 254   0.0000       1.295119        35.2420 
 255   0.0000       1.299687        35.3663 
 256   0.0000       1.304828        35.5062 
 257   0.0000       1.318457        35.8771 
 258   0.0000       1.324738        36.0480 
 259   0.0000       1.331547        36.2332 
 260   0.0000       1.342207        36.5233 
 261   0.0000       1.346966        36.6528 
 262   0.0000       1.352013        36.7901 
 263   0.0000       1.358876        36.9769 
 264   0.0000       1.362617        37.0787 
 265   0.0000       1.380300        37.5599 
 266   0.0000       1.393176        37.9103 
 267   0.0000       1.400389        38.1065 
 268   0.0000       1.411607        38.4118 
 269   0.0000       1.416822        38.5537 
 270   0.0000       1.422024        38.6952 
 271   0.0000       1.428714        38.8773 
 272   0.0000       1.440098        39.1871 
 273   0.0000       1.446819        39.3699 
 274   0.0000       1.455069        39.5944 
 275   0.0000       1.460566        39.7440 
 276   0.0000       1.475340        40.1460 
 277   0.0000       1.477340        40.2005 
 278   0.0000       1.487647        40.4809 
 279   0.0000       1.492376        40.6096 
 280   0.0000       1.494539        40.6685 
 281   0.0000       1.499766        40.8107 
 282   0.0000       1.508415        41.0460 
 283   0.0000       1.510500        41.1028 
 284   0.0000       1.521076        41.3906 
 285   0.0000       1.524755        41.4907 
 286   0.0000       1.530099        41.6361 
 287   0.0000       1.537717        41.8434 
 288   0.0000       1.540731        41.9254 
 289   0.0000       1.548943        42.1489 
 290   0.0000       1.551850        42.2280 
 291   0.0000       1.553950        42.2851 
 292   0.0000       1.570837        42.7447 
 293   0.0000       1.576696        42.9041 
 294   0.0000       1.585276        43.1376 
 295   0.0000       1.588215        43.2175 
 296   0.0000       1.607390        43.7393 
 297   0.0000       1.609830        43.8057 
 298   0.0000       1.616626        43.9906 
 299   0.0000       1.620895        44.1068 
 300   0.0000       1.632562        44.4243 
 301   0.0000       1.640099        44.6294 
 302   0.0000       1.650512        44.9127 
 303   0.0000       1.656264        45.0692 
 304   0.0000       1.666454        45.3465 
 305   0.0000       1.672586        45.5134 
 306   0.0000       1.683879        45.8207 
 307   0.0000       1.686291        45.8863 
 308   0.0000       1.698927        46.2302 
 309   0.0000       1.702746        46.3341 
 310   0.0000       1.712414        46.5972 
 311   0.0000       1.724703        46.9316 
 312   0.0000       1.730484        47.0889 
 313   0.0000       1.738311        47.3019 
 314   0.0000       1.754447        47.7409 
 315   0.0000       1.758436        47.8495 
 316   0.0000       1.770991        48.1911 
 317   0.0000       1.783860        48.5413 
 318   0.0000       1.790057        48.7099 
 319   0.0000       1.792335        48.7719 
 320   0.0000       1.803101        49.0649 
 321   0.0000       1.816050        49.4172 
 322   0.0000       1.829615        49.7864 
 323   0.0000       1.836365        49.9700 
 324   0.0000       1.847596        50.2756 
 325   0.0000       1.854813        50.4720 
 326   0.0000       1.861608        50.6569 
 327   0.0000       1.877687        51.0945 
 328   0.0000       1.902124        51.7594 
 329   0.0000       1.910816        51.9959 
 330   0.0000       1.913524        52.0696 
 331   0.0000       1.915525        52.1241 
 332   0.0000       1.934586        52.6428 
 333   0.0000       1.935284        52.6617 
 334   0.0000       1.947019        52.9811 
 335   0.0000       1.964146        53.4471 
 336   0.0000       1.977335        53.8060 
 337   0.0000       1.995001        54.2867 
 338   0.0000       2.009300        54.6758 
 339   0.0000       2.016622        54.8751 
 340   0.0000       2.023833        55.0713 
 341   0.0000       2.032215        55.2994 
 342   0.0000       2.042034        55.5666 
 343   0.0000       2.079317        56.5811 
 344   0.0000       2.097284        57.0700 
 345   0.0000       2.113740        57.5178 
 346   0.0000       2.129516        57.9471 
 347   0.0000       2.133390        58.0525 
 348   0.0000       2.152185        58.5639 
 349   0.0000       2.158012        58.7225 
 350   0.0000       2.170189        59.0538 
 351   0.0000       2.186375        59.4943 
 352   0.0000       2.203233        59.9530 
 353   0.0000       2.210662        60.1552 
 354   0.0000       2.228314        60.6355 
 355   0.0000       2.258155        61.4475 
 356   0.0000       2.265626        61.6508 
 357   0.0000       2.280515        62.0560 
 358   0.0000       2.297683        62.5231 
 359   0.0000       2.299096        62.5616 
 360   0.0000       2.311412        62.8967 
 361   0.0000       2.323698        63.2310 
 362   0.0000       2.338199        63.6256 
 363   0.0000       2.343998        63.7834 
 364   0.0000       2.364302        64.3359 
 365   0.0000       2.370226        64.4971 
 366   0.0000       2.376297        64.6623 
 367   0.0000       2.395509        65.1851 
 368   0.0000       2.411665        65.6248 
 369   0.0000       2.430291        66.1316 
 370   0.0000       2.452540        66.7370 
 371   0.0000       2.458791        66.9071 
 372   0.0000       2.473540        67.3084 
 373   0.0000       2.477728        67.4224 
 374   0.0000       2.478266        67.4371 
 375   0.0000       2.493422        67.8495 
 376   0.0000       2.502314        68.0914 
 377   0.0000       2.521915        68.6248 
 378   0.0000       2.538183        69.0675 
 379   0.0000       2.547164        69.3119 
 380   0.0000       2.556578        69.5680 
 381   0.0000       2.571684        69.9791 
 382   0.0000       2.578496        70.1644 
 383   0.0000       2.596178        70.6456 
 384   0.0000       2.609186        70.9996 
 385   0.0000       2.615877        71.1816 
 386   0.0000       2.624770        71.4236 
 387   0.0000       2.637835        71.7791 
 388   0.0000       2.655534        72.2608 
 389   0.0000       2.667869        72.5964 
 390   0.0000       2.678644        72.8896 
 391   0.0000       2.691856        73.2491 
 392   0.0000       2.700981        73.4974 
 393   0.0000       2.718129        73.9641 
 394   0.0000       2.725080        74.1532 
 395   0.0000       2.736595        74.4665 
 396   0.0000       2.747737        74.7697 
 397   0.0000       2.754953        74.9661 
 398   0.0000       2.758550        75.0640 
 399   0.0000       2.774439        75.4963 
 400   0.0000       2.777841        75.5889 
 401   0.0000       2.784202        75.7620 
 402   0.0000       2.795741        76.0760 
 403   0.0000       2.813734        76.5656 
 404   0.0000       2.822820        76.8128 
 405   0.0000       2.827591        76.9427 
 406   0.0000       2.839371        77.2632 
 407   0.0000       2.850906        77.5771 
 408   0.0000       2.852027        77.6076 
 409   0.0000       2.865719        77.9802 
 410   0.0000       2.878396        78.3251 
 411   0.0000       2.883286        78.4582 
 412   0.0000       2.892917        78.7203 
 413   0.0000       2.899832        78.9085 
 414   0.0000       2.902689        78.9862 
 415   0.0000       2.913825        79.2892 
 416   0.0000       2.922108        79.5146 
 417   0.0000       2.938587        79.9630 
 418   0.0000       2.944113        80.1134 
 419   0.0000       2.948387        80.2297 
 420   0.0000       2.963354        80.6369 
 421   0.0000       2.976230        80.9873 
 422   0.0000       2.986025        81.2539 
 423   0.0000       2.991847        81.4123 
 424   0.0000       2.992019        81.4170 
 425   0.0000       3.010495        81.9197 
 426   0.0000       3.021121        82.2089 
 427   0.0000       3.029243        82.4299 
 428   0.0000       3.035345        82.5959 
 429   0.0000       3.038779        82.6894 
 430   0.0000       3.045021        82.8592 
 431   0.0000       3.050795        83.0163 
 432   0.0000       3.052410        83.0603 
 433   0.0000       3.078065        83.7584 
 434   0.0000       3.082768        83.8864 
 435   0.0000       3.088235        84.0352 
 436   0.0000       3.095349        84.2287 
 437   0.0000       3.103283        84.4446 
 438   0.0000       3.109938        84.6257 
 439   0.0000       3.112386        84.6923 
 440   0.0000       3.120713        84.9189 
 441   0.0000       3.123370        84.9912 
 442   0.0000       3.126825        85.0852 
 443   0.0000       3.142582        85.5140 
 444   0.0000       3.143849        85.5485 
 445   0.0000       3.149276        85.6962 
 446   0.0000       3.152482        85.7834 
 447   0.0000       3.161524        86.0295 
 448   0.0000       3.183800        86.6356 
 449   0.0000       3.187259        86.7297 
 450   0.0000       3.193858        86.9093 
 451   0.0000       3.199410        87.0604 
 452   0.0000       3.206063        87.2414 
 453   0.0000       3.213233        87.4365 
 454   0.0000       3.229919        87.8906 
 455   0.0000       3.235304        88.0371 
 456   0.0000       3.241622        88.2090 
 457   0.0000       3.250818        88.4593 
 458   0.0000       3.255665        88.5911 
 459   0.0000       3.258001        88.6547 
 460   0.0000       3.262666        88.7817 
 461   0.0000       3.268759        88.9475 
 462   0.0000       3.288386        89.4815 
 463   0.0000       3.289181        89.5032 
 464   0.0000       3.294690        89.6531 
 465   0.0000       3.301218        89.8307 
 466   0.0000       3.309011        90.0428 
 467   0.0000       3.314073        90.1805 
 468   0.0000       3.316268        90.2402 
 469   0.0000       3.328147        90.5635 
 470   0.0000       3.336253        90.7841 
 471   0.0000       3.342376        90.9507 
 472   0.0000       3.351160        91.1897 
 473   0.0000       3.355898        91.3186 
 474   0.0000       3.358746        91.3961 
 475   0.0000       3.361509        91.4713 
 476   0.0000       3.369431        91.6869 
 477   0.0000       3.379137        91.9510 
 478   0.0000       3.382912        92.0537 
 479   0.0000       3.387588        92.1810 
 480   0.0000       3.389982        92.2461 
 481   0.0000       3.396075        92.4119 
 482   0.0000       3.400711        92.5381 
 483   0.0000       3.405567        92.6702 
 484   0.0000       3.411932        92.8434 
 485   0.0000       3.414411        92.9109 
 486   0.0000       3.424947        93.1976 
 487   0.0000       3.430505        93.3488 
 488   0.0000       3.436994        93.5254 
 489   0.0000       3.441124        93.6378 
 490   0.0000       3.441837        93.6572 
 491   0.0000       3.445680        93.7617 
 492   0.0000       3.457835        94.0925 
 493   0.0000       3.460625        94.1684 
 494   0.0000       3.465392        94.2981 
 495   0.0000       3.474395        94.5431 
 496   0.0000       3.480945        94.7213 
 497   0.0000       3.489883        94.9645 
 498   0.0000       3.491372        95.0051 
 499   0.0000       3.500900        95.2643 
 500   0.0000       3.507192        95.4356 
 501   0.0000       3.518174        95.7344 
 502   0.0000       3.522283        95.8462 
 503   0.0000       3.526804        95.9692 
 504   0.0000       3.533188        96.1429 
 505   0.0000       3.544029        96.4379 
 506   0.0000       3.546740        96.5117 
 507   0.0000       3.564019        96.9819 
 508   0.0000       3.565464        97.0212 
 509   0.0000       3.581706        97.4632 
 510   0.0000       3.585055        97.5543 
 511   0.0000       3.590285        97.6966 
 512   0.0000       3.604131        98.0734 
 513   0.0000       3.615629        98.3863 
 514   0.0000       3.619922        98.5031 
 515   0.0000       3.626077        98.6706 
 516   0.0000       3.627665        98.7138 
 517   0.0000       3.635891        98.9376 
 518   0.0000       3.641921        99.1017 
 519   0.0000       3.644937        99.1838 
 520   0.0000       3.650713        99.3410 
 521   0.0000       3.653816        99.4254 
 522   0.0000       3.661248        99.6276 
 523   0.0000       3.664429        99.7142 
 524   0.0000       3.671367        99.9030 
 525   0.0000       3.677196       100.0616 
 526   0.0000       3.681456       100.1775 
 527   0.0000       3.684354       100.2564 
 528   0.0000       3.692927       100.4896 
 529   0.0000       3.705336       100.8273 
 530   0.0000       3.706654       100.8632 
 531   0.0000       3.718510       101.1858 
 532   0.0000       3.727205       101.4224 
 533   0.0000       3.731450       101.5379 
 534   0.0000       3.737203       101.6945 
 535   0.0000       3.743228       101.8584 
 536   0.0000       3.748358       101.9980 
 537   0.0000       3.756844       102.2289 
 538   0.0000       3.759393       102.2983 
 539   0.0000       3.766671       102.4963 
 540   0.0000       3.773711       102.6879 
 541   0.0000       3.776842       102.7731 
 542   0.0000       3.799516       103.3901 
 543   0.0000       3.802125       103.4611 
 544   0.0000       3.806473       103.5794 
 545   0.0000       3.817858       103.8892 
 546   0.0000       3.820960       103.9736 
 547   0.0000       3.825165       104.0880 
 548   0.0000       3.839967       104.4908 
 549   0.0000       3.845115       104.6309 
 550   0.0000       3.851946       104.8168 
 551   0.0000       3.857744       104.9745 
 552   0.0000       3.867697       105.2454 
 553   0.0000       3.878487       105.5390 
 554   0.0000       3.885895       105.7406 
 555   0.0000       3.894482       105.9742 
 556   0.0000       3.908006       106.3423 
 557   0.0000       3.916291       106.5677 
 558   0.0000       3.920012       106.6690 
 559   0.0000       3.930392       106.9514 
 560   0.0000       3.933038       107.0234 
 561   0.0000       3.943153       107.2986 
 562   0.0000       3.956982       107.6750 
 563   0.0000       3.966102       107.9231 
 564   0.0000       3.969515       108.0160 
 565   0.0000       3.980935       108.3268 
 566   0.0000       3.995680       108.7280 
 567   0.0000       4.001839       108.8956 
 568   0.0000       4.010626       109.1347 
 569   0.0000       4.017180       109.3130 
 570   0.0000       4.026479       109.5661 
 571   0.0000       4.033495       109.7570 
 572   0.0000       4.044276       110.0503 
 573   0.0000       4.049183       110.1839 
 574   0.0000       4.054938       110.3405 
 575   0.0000       4.066710       110.6608 
 576   0.0000       4.068614       110.7126 
 577   0.0000       4.077462       110.9534 
 578   0.0000       4.092575       111.3646 
 579   0.0000       4.106583       111.7458 
 580   0.0000       4.109992       111.8386 
 581   0.0000       4.120282       112.1186 
 582   0.0000       4.124493       112.2332 
 583   0.0000       4.133735       112.4847 
 584   0.0000       4.138483       112.6138 
 585   0.0000       4.151456       112.9669 
 586   0.0000       4.156521       113.1047 
 587   0.0000       4.164941       113.3338 
 588   0.0000       4.170453       113.4838 
 589   0.0000       4.175070       113.6094 
 590   0.0000       4.184098       113.8551 
 591   0.0000       4.186068       113.9087 
 592   0.0000       4.191576       114.0586 
 593   0.0000       4.201795       114.3366 
 594   0.0000       4.206730       114.4709 
 595   0.0000       4.212528       114.6287 
 596   0.0000       4.215030       114.6968 
 597   0.0000       4.221164       114.8637 
 598   0.0000       4.226753       115.0158 
 599   0.0000       4.241271       115.4108 
 600   0.0000       4.246489       115.5528 
 601   0.0000       4.251673       115.6939 
 602   0.0000       4.256790       115.8332 
 603   0.0000       4.271961       116.2460 
 604   0.0000       4.285007       116.6010 
 605   0.0000       4.302214       117.0692 
 606   0.0000       4.311674       117.3266 
 607   0.0000       4.320812       117.5753 
 608   0.0000       4.324987       117.6889 
 609   0.0000       4.337940       118.0413 
 610   0.0000       4.342747       118.1721 
 611   0.0000       4.347244       118.2945 
 612   0.0000       4.349749       118.3627 
 613   0.0000       4.352255       118.4309 
 614   0.0000       4.362790       118.7175 
 615   0.0000       4.369061       118.8882 
 616   0.0000       4.381212       119.2188 
 617   0.0000       4.393268       119.5469 
 618   0.0000       4.398704       119.6948 
 619   0.0000       4.408930       119.9731 
 620   0.0000       4.412597       120.0729 
 621   0.0000       4.421901       120.3260 
 622   0.0000       4.425471       120.4232 
 623   0.0000       4.430542       120.5612 
 624   0.0000       4.447202       121.0145 
 625   0.0000       4.457146       121.2851 
 626   0.0000       4.466060       121.5277 
 627   0.0000       4.467640       121.5707 
 628   0.0000       4.473865       121.7400 
 629   0.0000       4.489465       122.1645 
 630   0.0000       4.495510       122.3290 
 631   0.0000       4.499463       122.4366 
 632   0.0000       4.516938       122.9121 
 633   0.0000       4.529536       123.2549 
 634   0.0000       4.530867       123.2911 
 635   0.0000       4.544475       123.6615 
 636   0.0000       4.554021       123.9212 
 637   0.0000       4.556466       123.9877 
 638   0.0000       4.567590       124.2904 
 639   0.0000       4.573127       124.4411 
 640   0.0000       4.584809       124.7590 
 641   0.0000       4.597780       125.1120 
 642   0.0000       4.607205       125.3684 
 643   0.0000       4.611713       125.4911 
 644   0.0000       4.611994       125.4987 
 645   0.0000       4.620202       125.7221 
 646   0.0000       4.630408       125.9998 
 647   0.0000       4.638356       126.2161 
 648   0.0000       4.643041       126.3436 
 649   0.0000       4.648081       126.4807 
 650   0.0000       4.656486       126.7094 
 651   0.0000       4.672206       127.1372 
 652   0.0000       4.673677       127.1772 
 653   0.0000       4.681942       127.4021 
 654   0.0000       4.687992       127.5667 
 655   0.0000       4.701122       127.9240 
 656   0.0000       4.713787       128.2687 
 657   0.0000       4.721357       128.4746 
 658   0.0000       4.724370       128.5567 
 659   0.0000       4.742573       129.0520 
 660   0.0000       4.744179       129.0957 
 661   0.0000       4.757853       129.4678 
 662   0.0000       4.771027       129.8263 
 663   0.0000       4.775291       129.9423 
 664   0.0000       4.805994       130.7777 
 665   0.0000       4.812619       130.9580 
 666   0.0000       4.832723       131.5051 
 667   0.0000       4.854025       132.0847 
 668   0.0000       4.860554       132.2624 
 669   0.0000       4.884770       132.9213 
 670   0.0000       4.908333       133.5625 
 671   0.0000       4.924758       134.0095 
 672   0.0000       4.930916       134.1770 
 673   0.0000       4.952563       134.7661 
 674   0.0000       4.966431       135.1435 
 675   0.0000       4.993565       135.8818 
 676   0.0000       5.008951       136.3005 
 677   0.0000       5.023390       136.6934 
 678   0.0000       5.031207       136.9061 
 679   0.0000       5.036535       137.0511 
 680   0.0000       5.053075       137.5012 
 681   0.0000       5.058710       137.6545 
 682   0.0000       5.089069       138.4806 
 683   0.0000       5.098813       138.7458 
 684   0.0000       5.104207       138.8925 
 685   0.0000       5.112484       139.1178 
 686   0.0000       5.130528       139.6088 
 687   0.0000       5.132251       139.6557 
 688   0.0000       5.140141       139.8704 
 689   0.0000       5.142908       139.9456 
 690   0.0000       5.167528       140.6156 
 691   0.0000       5.179817       140.9500 
 692   0.0000       5.185324       141.0998 
 693   0.0000       5.189615       141.2166 
 694   0.0000       5.194982       141.3626 
 695   0.0000       5.213863       141.8764 
 696   0.0000       5.216211       141.9403 
 697   0.0000       5.225204       142.1850 
 698   0.0000       5.230309       142.3239 
 699   0.0000       5.246507       142.7647 
 700   0.0000       5.267353       143.3320 
 701   0.0000       5.287411       143.8778 
 702   0.0000       5.300941       144.2459 
 703   0.0000       5.303711       144.3213 
 704   0.0000       5.325643       144.9181 
 705   0.0000       5.332074       145.0931 
 706   0.0000       5.350570       145.5964 
 707   0.0000       5.356633       145.7614 
 708   0.0000       5.368740       146.0909 
 709   0.0000       5.378192       146.3480 
 710   0.0000       5.389475       146.6551 
 711   0.0000       5.402821       147.0182 
 712   0.0000       5.424330       147.6035 
 713   0.0000       5.449566       148.2902 
 714   0.0000       5.473807       148.9499 
 715   0.0000       5.483046       149.2013 
 716   0.0000       5.492367       149.4549 
 717   0.0000       5.503230       149.7505 
 718   0.0000       5.518407       150.1635 
 719   0.0000       5.526454       150.3825 
 720   0.0000       5.537756       150.6900 
 721   0.0000       5.553847       151.1279 
 722   0.0000       5.560858       151.3186 
 723   0.0000       5.565618       151.4482 
 724   0.0000       5.590116       152.1148 
 725   0.0000       5.604801       152.5144 
 726   0.0000       5.613648       152.7551 
 727   0.0000       5.615278       152.7995 
 728   0.0000       5.637014       153.3909 
 729   0.0000       5.642799       153.5484 
 730   0.0000       5.650665       153.7624 
 731   0.0000       5.672077       154.3451 
 732   0.0000       5.681544       154.6027 
 733   0.0000       5.687636       154.7684 
 734   0.0000       5.693714       154.9338 
 735   0.0000       5.711258       155.4112 
 736   0.0000       5.725715       155.8046 
 737   0.0000       5.736300       156.0927 
 738   0.0000       5.748952       156.4369 
 739   0.0000       5.764842       156.8693 
 740   0.0000       5.768087       156.9576 
 741   0.0000       5.786388       157.4556 
 742   0.0000       5.808317       158.0524 
 743   0.0000       5.821458       158.4099 
 744   0.0000       5.827438       158.5727 
 745   0.0000       5.837224       158.8389 
 746   0.0000       5.842090       158.9713 
 747   0.0000       5.890709       160.2943 
 748   0.0000       5.898993       160.5198 
 749   0.0000       5.929556       161.3514 
 750   0.0000       5.960139       162.1836 
 751   0.0000       5.972863       162.5299 
 752   0.0000       5.974047       162.5621 
 753   0.0000       5.981398       162.7621 
 754   0.0000       5.999976       163.2677 
 755   0.0000       6.012316       163.6034 
 756   0.0000       6.050332       164.6379 
 757   0.0000       6.057295       164.8274 
 758   0.0000       6.073887       165.2789 
 759   0.0000       6.096518       165.8947 
 760   0.0000       6.106703       166.1718 
 761   0.0000       6.158982       167.5944 
 762   0.0000       6.210933       169.0081 
 763   0.0000       6.223458       169.3489 
 764   0.0000       6.228438       169.4844 
 765   0.0000       6.248761       170.0374 
 766   0.0000       6.276247       170.7854 
 767   0.0000       6.303661       171.5313 
 768   0.0000       6.339825       172.5154 
 769   0.0000       6.350772       172.8133 
 770   0.0000       6.365411       173.2116 
 771   0.0000       6.389757       173.8741 
 772   0.0000       6.408120       174.3738 
 773   0.0000       6.454891       175.6465 
 774   0.0000       6.457134       175.7076 
 775   0.0000       6.490380       176.6122 
 776   0.0000       6.510996       177.1732 
 777   0.0000       6.523372       177.5100 
 778   0.0000       6.556931       178.4232 
 779   0.0000       6.601435       179.6342 
 780   0.0000       6.636750       180.5952 
 781   0.0000       6.680214       181.7779 
 782   0.0000       6.724612       182.9860 
 783   0.0000       6.778137       184.4425 
 784   0.0000       6.824466       185.7032 
 785   0.0000       6.908074       187.9783 
 786   0.0000       6.913946       188.1380 
 787   0.0000       6.921269       188.3373 
 788   0.0000       6.927336       188.5024 
 789   0.0000       7.040365       191.5781 
 790   0.0000       7.057420       192.0422 
 791   0.0000       7.072473       192.4518 
 792   0.0000       7.081395       192.6946 
 793   0.0000       7.130637       194.0345 
 794   0.0000       7.185393       195.5245 
 795   0.0000       7.245163       197.1509 
 796   0.0000       7.260981       197.5813 
 797   0.0000       7.281722       198.1457 
 798   0.0000       7.340332       199.7406 
 799   0.0000       7.365546       200.4267 
 800   0.0000       7.447976       202.6697 
 801   0.0000       7.533871       205.0071 
 802   0.0000       7.579867       206.2587 
 803   0.0000       7.599414       206.7906 
 804   0.0000       7.723145       210.1575 
 805   0.0000       7.815376       212.6672 
 806   0.0000       7.838023       213.2834 
 807   0.0000       7.934307       215.9035 
 808   0.0000       7.977269       217.0725 
 809   0.0000       9.323688       253.7105 
 810   0.0000       9.467780       257.6314 
 811   0.0000      10.692453       290.9564 
 812   0.0000      11.312368       307.8252 
 813   0.0000      11.686224       317.9983 
 814   0.0000      12.539215       341.2094 
 815   0.0000      12.879503       350.4691 
 816   0.0000      12.939396       352.0989 
 817   0.0000      13.054540       355.2321 
 818   0.0000      13.118136       356.9626 
 819   0.0000      13.359819       363.5392 
 820   0.0000      13.553802       368.8177 
 821   0.0000      13.714323       373.1857 
 822   0.0000      13.870491       377.4353 
 823   0.0000      13.948478       379.5574 
 824   0.0000      14.077856       383.0779 
 825   0.0000      14.565789       396.3553 
 826   0.0000      14.638160       398.3246 
 827   0.0000      15.970068       434.5676 

                    ********************************
                    * MULLIKEN POPULATION ANALYSIS *
                    ********************************

-----------------------
MULLIKEN ATOMIC CHARGES
-----------------------
   0 C :   -0.283973
   1 C :    0.049828
   2 O :   -0.362465
   3 C :    0.438445
   4 O :   -0.434553
   5 C :   -0.214028
   6 C :    0.173044
   7 C :   -0.267747
   8 N :   -0.125646
   9 C :    0.211194
  10 S :   -0.443282
  11 N :   -0.215740
  12 C :    0.061942
  13 C :    0.049588
  14 C :   -0.186610
  15 C :   -0.131563
  16 C :   -0.277120
  17 C :    0.316858
  18 O :   -0.356867
  19 C :   -0.250587
  20 H :    0.118354
  21 H :    0.093554
  22 H :    0.098514
  23 H :    0.089238
  24 H :    0.096960
  25 H :    0.133338
  26 H :    0.128307
  27 H :    0.094520
  28 H :    0.199528
  29 H :    0.200257
  30 H :    0.151218
  31 H :    0.152165
  32 H :    0.160253
  33 H :    0.129925
  34 H :    0.240510
  35 H :    0.162640
Sum of atomic charges:   -0.0000000

--------------------------------
MULLIKEN REDUCED ORBITAL CHARGES
--------------------------------
  0 C s       :     3.252825  s :     3.252825
      pz      :     0.913362  p :     2.953367
      px      :     1.023034
      py      :     1.016972
      dz2     :     0.019168  d :     0.073370
      dxz     :     0.019323
      dyz     :     0.008188
      dx2y2   :     0.007683
      dxy     :     0.019008
      f0      :     0.000982  f :     0.004410
      f+1     :     0.001430
      f-1     :     0.000237
      f+2     :     0.000183
      f-2     :     0.000611
      f+3     :     0.000424
      f-3     :     0.000544
  1 C s       :     3.174523  s :     3.174523
      pz      :     0.940345  p :     2.615682
      px      :     0.866017
      py      :     0.809320
      dz2     :     0.027590  d :     0.148701
      dxz     :     0.035276
      dyz     :     0.025518
      dx2y2   :     0.023580
      dxy     :     0.036737
      f0      :     0.001434  f :     0.011265
      f+1     :     0.001862
      f-1     :     0.001580
      f+2     :     0.000851
      f-2     :     0.001750
      f+3     :     0.002126
      f-3     :     0.001661
  2 O s       :     3.712052  s :     3.712052
      pz      :     1.784818  p :     4.616358
      px      :     1.645838
      py      :     1.185702
      dz2     :     0.003699  d :     0.031792
      dxz     :     0.003048
      dyz     :     0.006727
      dx2y2   :     0.007940
      dxy     :     0.010377
      f0      :     0.000260  f :     0.002263
      f+1     :     0.000112
      f-1     :     0.000448
      f+2     :     0.000226
      f-2     :     0.000231
      f+3     :     0.000491
      f-3     :     0.000495
  3 C s       :     3.073094  s :     3.073094
      pz      :     0.748471  p :     2.162130
      px      :     0.711731
      py      :     0.701928
      dz2     :     0.067330  d :     0.299838
      dxz     :     0.031074
      dyz     :     0.068879
      dx2y2   :     0.066752
      dxy     :     0.065803
      f0      :     0.003343  f :     0.026493
      f+1     :     0.003287
      f-1     :     0.003180
      f+2     :     0.005444
      f-2     :     0.003139
      f+3     :     0.004586
      f-3     :     0.003513
  4 O s       :     3.771106  s :     3.771106
      pz      :     1.452074  p :     4.626087
      px      :     1.420818
      py      :     1.753196
      dz2     :     0.008669  d :     0.034961
      dxz     :     0.008971
      dyz     :     0.006066
      dx2y2   :     0.005783
      dxy     :     0.005472
      f0      :     0.000283  f :     0.002398
      f+1     :     0.000460
      f-1     :     0.000274
      f+2     :     0.000397
      f-2     :     0.000543
      f+3     :     0.000193
      f-3     :     0.000248
  5 C s       :     3.197289  s :     3.197289
      pz      :     1.025319  p :     2.923430
      px      :     1.032863
      py      :     0.865249
      dz2     :     0.012280  d :     0.083142
      dxz     :     0.008096
      dyz     :     0.028210
      dx2y2   :     0.009151
      dxy     :     0.025405
      f0      :     0.000875  f :     0.010167
      f+1     :     0.001112
      f-1     :     0.001195
      f+2     :     0.002001
      f-2     :     0.001771
      f+3     :     0.001771
      f-3     :     0.001442
  6 C s       :     3.177689  s :     3.177689
      pz      :     0.796147  p :     2.458834
      px      :     0.818116
      py      :     0.844571
      dz2     :     0.028936  d :     0.176034
      dxz     :     0.020017
      dyz     :     0.044825
      dx2y2   :     0.028745
      dxy     :     0.053511
      f0      :     0.001613  f :     0.014400
      f+1     :     0.001725
      f-1     :     0.001812
      f+2     :     0.002447
      f-2     :     0.002155
      f+3     :     0.002617
      f-3     :     0.002031
  7 C s       :     3.269709  s :     3.269709
      pz      :     0.970782  p :     2.924209
      px      :     1.008052
      py      :     0.945375
      dz2     :     0.020054  d :     0.069168
      dxz     :     0.008584
      dyz     :     0.010780
      dx2y2   :     0.019928
      dxy     :     0.009822
      f0      :     0.000722  f :     0.004661
      f+1     :     0.000639
      f-1     :     0.000759
      f+2     :     0.000344
      f-2     :     0.000811
      f+3     :     0.000778
      f-3     :     0.000609
  8 N s       :     3.343555  s :     3.343555
      pz      :     1.382808  p :     3.717850
      px      :     1.261570
      py      :     1.073471
      dz2     :     0.009711  d :     0.059292
      dxz     :     0.010908
      dyz     :     0.009563
      dx2y2   :     0.017084
      dxy     :     0.012026
      f0      :     0.000584  f :     0.004950
      f+1     :     0.000974
      f-1     :     0.000364
      f+2     :     0.000890
      f-2     :     0.001052
      f+3     :     0.000492
      f-3     :     0.000593
  9 C s       :     3.155915  s :     3.155915
      pz      :     0.736351  p :     2.353151
      px      :     0.798668
      py      :     0.818132
      dz2     :     0.047167  d :     0.262148
      dxz     :     0.029618
      dyz     :     0.059649
      dx2y2   :     0.069935
      dxy     :     0.055778
      f0      :     0.001848  f :     0.017592
      f+1     :     0.002740
      f-1     :     0.002028
      f+2     :     0.003349
      f-2     :     0.001700
      f+3     :     0.003161
      f-3     :     0.002765
 10 S s       :     5.855943  s :     5.855943
      pz      :     3.507647  p :    10.492459
      px      :     3.378174
      py      :     3.606638
      dz2     :     0.011028  d :     0.084758
      dxz     :     0.018158
      dyz     :     0.018787
      dx2y2   :     0.008798
      dxy     :     0.027986
      f0      :     0.001106  f :     0.010122
      f+1     :     0.001097
      f-1     :     0.000898
      f+2     :     0.000715
      f-2     :     0.003236
      f+3     :     0.001035
      f-3     :     0.002035
 11 N s       :     3.385726  s :     3.385726
      pz      :     1.460911  p :     3.767404
      px      :     1.294133
      py      :     1.012360
      dz2     :     0.004831  d :     0.058171
      dxz     :     0.007955
      dyz     :     0.013459
      dx2y2   :     0.015059
      dxy     :     0.016866
      f0      :     0.000575  f :     0.004439
      f+1     :     0.000390
      f-1     :     0.000633
      f+2     :     0.000670
      f-2     :     0.000580
      f+3     :     0.000748
      f-3     :     0.000843
 12 C s       :     3.125711  s :     3.125711
      pz      :     0.891723  p :     2.616774
      px      :     0.849495
      py      :     0.875556
      dz2     :     0.030316  d :     0.184238
      dxz     :     0.037595
      dyz     :     0.043032
      dx2y2   :     0.025208
      dxy     :     0.048087
      f0      :     0.001027  f :     0.011336
      f+1     :     0.001634
      f-1     :     0.001472
      f+2     :     0.001385
      f-2     :     0.003028
      f+3     :     0.001230
      f-3     :     0.001560
 13 C s       :     3.103734  s :     3.103734
      pz      :     0.884961  p :     2.724574
      px      :     0.914613
      py      :     0.925001
      dz2     :     0.020386  d :     0.110766
      dxz     :     0.009543
      dyz     :     0.033972
      dx2y2   :     0.019424
      dxy     :     0.027441
      f0      :     0.001217  f :     0.011338
      f+1     :     0.001554
      f-1     :     0.001431
[...]
      f-1     :     0.005719
      f+2     :     0.007361
      f-2     :     0.004798
      f+3     :     0.006380
      f-3     :     0.006925
 15 C s       :     2.705849  s :     2.705849
      pz      :     0.931423  p :     2.797824
      px      :     0.897590
      py      :     0.968810
      dz2     :     0.112612  d :     0.416539
      dxz     :     0.068929
      dyz     :     0.074430
      dx2y2   :     0.096881
      dxy     :     0.063687
      f0      :     0.004406  f :     0.041013
      f+1     :     0.005585
      f-1     :     0.007319
      f+2     :     0.007439
      f-2     :     0.006533
      f+3     :     0.004792
      f-3     :     0.004939
 16 C s       :     2.701949  s :     2.701949
      pz      :     0.949092  p :     2.868903
      px      :     0.943791
      py      :     0.976020
      dz2     :     0.059055  d :     0.390201
      dxz     :     0.050612
      dyz     :     0.105432
      dx2y2   :     0.084123
      dxy     :     0.090979
      f0      :     0.005327  f :     0.040240
      f+1     :     0.004718
      f-1     :     0.004940
      f+2     :     0.006478
      f-2     :     0.005152
      f+3     :     0.007883
      f-3     :     0.005741
 17 C s       :     2.701839  s :     2.701839
      pz      :     0.851574  p :     2.681146
      px      :     0.816133
      py      :     1.013439
      dz2     :     0.147009  d :     0.707590
      dxz     :     0.103537
      dyz     :     0.168883
      dx2y2   :     0.139784
      dxy     :     0.148376
      f0      :     0.013963  f :     0.099137
      f+1     :     0.013791
      f-1     :     0.012798
      f+2     :     0.017967
      f-2     :     0.014974
      f+3     :     0.013639
      f-3     :     0.012005
 18 O s       :     3.177231  s :     3.177231
      pz      :     1.366716  p :     4.347210
      px      :     1.479608
      py      :     1.500886
      dz2     :     0.010908  d :     0.075504
      dxz     :     0.016634
      dyz     :     0.023390
      dx2y2   :     0.011291
      dxy     :     0.013281
      f0      :     0.000702  f :     0.005065
      f+1     :     0.000634
      f-1     :     0.000621
      f+2     :     0.000905
      f-2     :     0.001074
      f+3     :     0.000539
      f-3     :     0.000589
 19 C s       :     2.695391  s :     2.695391
      pz      :     0.947257  p :     2.843261
      px      :     0.929976
      py      :     0.966028
      dz2     :     0.092460  d :     0.387699
      dxz     :     0.067047
      dyz     :     0.078167
      dx2y2   :     0.084508
      dxy     :     0.065517
      f0      :     0.004306  f :     0.040787
      f+1     :     0.006102
      f-1     :     0.006938
      f+2     :     0.007274
      f-2     :     0.007045
      f+3     :     0.004627
      f-3     :     0.004495
 20 H s       :     0.845027  s :     0.845027
      pz      :     0.037267  p :     0.153278
      px      :     0.058774
      py      :     0.057236
      dz2     :     0.002363  d :     0.027788
      dxz     :     0.005378
      dyz     :     0.003470
      dx2y2   :     0.009412
      dxy     :     0.007165
 21 H s       :     0.850019  s :     0.850019
      pz      :     0.042925  p :     0.152125
      px      :     0.044754
      py      :     0.064445
      dz2     :     0.003757  d :     0.027519
      dxz     :     0.002318
      dyz     :     0.006940
      dx2y2   :     0.006671
      dxy     :     0.007834
 22 H s       :     0.847980  s :     0.847980
      pz      :     0.052819  p :     0.150050
      px      :     0.054139
      py      :     0.043092
      dz2     :     0.006972  d :     0.027599
      dxz     :     0.006428
      dyz     :     0.004092
      dx2y2   :     0.004826
      dxy     :     0.005282
 23 H s       :     0.855565  s :     0.855565
      pz      :     0.056574  p :     0.146177
      px      :     0.059725
      py      :     0.029878
      dz2     :     0.007000  d :     0.027103
      dxz     :     0.007635
      dyz     :     0.003154
      dx2y2   :     0.004297
      dxy     :     0.005017
 24 H s       :     0.854085  s :     0.854085
      pz      :     0.040377  p :     0.144011
      px      :     0.042772
      py      :     0.060862
      dz2     :     0.002690  d :     0.026952
      dxz     :     0.003292
      dyz     :     0.006457
      dx2y2   :     0.006974
      dxy     :     0.007539
 25 H s       :     0.825838  s :     0.825838
      pz      :     0.038677  p :     0.150984
      px      :     0.073921
      py      :     0.038386
      dz2     :     0.002663  d :     0.027775
      dxz     :     0.008929
      dyz     :     0.000159
      dx2y2   :     0.007599
      dxy     :     0.008426
 26 H s       :     0.826210  s :     0.826210
      pz      :     0.071238  p :     0.151423
      px      :     0.040850
      py      :     0.039334
      dz2     :     0.009430  d :     0.027777
      dxz     :     0.008378
      dyz     :     0.007937
      dx2y2   :     0.001453
      dxy     :     0.000579
 27 H s       :     0.845669  s :     0.845669
      pz      :     0.038974  p :     0.150470
      px      :     0.040814
      py      :     0.070682
      dz2     :     0.002736  d :     0.027728
      dxz     :     0.000277
      dyz     :     0.008654
      dx2y2   :     0.007411
      dxy     :     0.008649
 28 H s       :     0.741736  s :     0.741736
      pz      :     0.070911  p :     0.253774
      px      :     0.061542
      py      :     0.121320
      dz2     :     0.005363  d :     0.061840
      dxz     :     0.000377
      dyz     :     0.020914
      dx2y2   :     0.015972
      dxy     :     0.019214
 29 H s       :     0.748785  s :     0.748785
      pz      :     0.104837  p :     0.254330
      px      :     0.099119
      py      :     0.050375
      dz2     :     0.017295  d :     0.061427
      dxz     :     0.013530
      dyz     :     0.008446
      dx2y2   :     0.011282
      dxy     :     0.010874
 30 H s       :     0.830960  s :     0.830960
      pz      :     0.053920  p :     0.153761
      px      :     0.049405
      py      :     0.050436
      dz2     :     0.006068  d :     0.029301
      dxz     :     0.006432
      dyz     :     0.005974
      dx2y2   :     0.004703
      dxy     :     0.006124
 31 H s       :     0.845131  s :     0.845131
      pz      :     0.058404  p :     0.156863
      px      :     0.059658
      py      :     0.038801
      dz2     :     0.006487  d :     0.027528
      dxz     :     0.006488
      dyz     :     0.005045
      dx2y2   :     0.004765
      dxy     :     0.004743
 32 H s       :     0.843590  s :     0.843590
      pz      :     0.035717  p :     0.151423
      px      :     0.039216
      py      :     0.076491
      dz2     :     0.002668  d :     0.026468
      dxz     :     0.000458
      dyz     :     0.007766
      dx2y2   :     0.007727
      dxy     :     0.007850
 33 H s       :     0.848731  s :     0.848731
      pz      :     0.060058  p :     0.159109
      px      :     0.049682
      py      :     0.049370
      dz2     :     0.006994  d :     0.027763
      dxz     :     0.005239
      dyz     :     0.006484
      dx2y2   :     0.004666
      dxy     :     0.004380
 34 H s       :     0.706615  s :     0.706615
      pz      :     0.109967  p :     0.347858
      px      :     0.093136
      py      :     0.144755
      dz2     :     0.023809  d :     0.099582
      dxz     :     0.013188
      dyz     :     0.024113
      dx2y2   :     0.018717
      dxy     :     0.019754
 35 H s       :     0.838520  s :     0.838520
      pz      :     0.036655  p :     0.156427
      px      :     0.041780
      py      :     0.077993
      dz2     :     0.002701  d :     0.027923
      dxz     :     0.000468
      dyz     :     0.008349
      dx2y2   :     0.007942
      dxy     :     0.008463


                      *****************************
                      * MAYER POPULATION ANALYSIS *
                      *****************************

  NA   - Mulliken gross atomic population
  ZA   - Total nuclear charge
  QA   - Mulliken gross atomic charge
  VA   - Mayer's total valence
  BVA  - Mayer's bonded valence
  FA   - Mayer's free valence

  ATOM       NA         ZA         QA         VA         BVA        FA
  0 C      6.2840     6.0000    -0.2840     3.8745     3.8745    -0.0000
  1 C      5.9502     6.0000     0.0498     3.8790     3.8790    -0.0000
  2 O      8.3625     8.0000    -0.3625     2.0493     2.0493     0.0000
  3 C      5.5616     6.0000     0.4384     4.2196     4.2196     0.0000
  4 O      8.4346     8.0000    -0.4346     2.0706     2.0706    -0.0000
  5 C      6.2140     6.0000    -0.2140     3.6803     3.6803     0.0000
  6 C      5.8270     6.0000     0.1730     3.8509     3.8509     0.0000
  7 C      6.2677     6.0000    -0.2677     3.9010     3.9010    -0.0000
  8 N      7.1256     7.0000    -0.1256     3.3071     3.3071    -0.0000
  9 C      5.7888     6.0000     0.2112     4.1545     4.1545    -0.0000
 10 S     16.4433    16.0000    -0.4433     1.7522     1.7522    -0.0000
 11 N      7.2157     7.0000    -0.2157     3.2388     3.2388     0.0000
 12 C      5.9381     6.0000     0.0619     3.9076     3.9076     0.0000
 13 C      5.9504     6.0000     0.0496     3.7483     3.7483    -0.0000
 14 C      6.1866     6.0000    -0.1866     3.8473     3.8473     0.0000
 15 C      6.1316     6.0000    -0.1316     3.8003     3.8003    -0.0000
 16 C      6.2771     6.0000    -0.2771     3.7988     3.7988    -0.0000
 17 C      5.6831     6.0000     0.3169     3.8603     3.8603    -0.0000
 18 O      8.3569     8.0000    -0.3569     2.1180     2.1180     0.0000
 19 C      6.2506     6.0000    -0.2506     3.8564     3.8564    -0.0000
 20 H      0.8816     1.0000     0.1184     0.9852     0.9852     0.0000
 21 H      0.9064     1.0000     0.0936     0.9794     0.9794    -0.0000
 22 H      0.9015     1.0000     0.0985     0.9855     0.9855     0.0000
 23 H      0.9108     1.0000     0.0892     0.9722     0.9722    -0.0000
 24 H      0.9030     1.0000     0.0970     0.9764     0.9764     0.0000
 25 H      0.8667     1.0000     0.1333     0.9800     0.9800    -0.0000
 26 H      0.8717     1.0000     0.1283     0.9816     0.9816    -0.0000
 27 H      0.9055     1.0000     0.0945     0.9856     0.9856     0.0000
 28 H      0.8005     1.0000     0.1995     1.0211     1.0211    -0.0000
 29 H      0.7997     1.0000     0.2003     1.0154     1.0154     0.0000
 30 H      0.8488     1.0000     0.1512     0.9900     0.9900     0.0000
 31 H      0.8478     1.0000     0.1522     0.9849     0.9849     0.0000
 32 H      0.8397     1.0000     0.1603     0.9769     0.9769    -0.0000
 33 H      0.8701     1.0000     0.1299     0.9921     0.9921    -0.0000
 34 H      0.7595     1.0000     0.2405     1.0106     1.0106    -0.0000
 35 H      0.8374     1.0000     0.1626     0.9901     0.9901    -0.0000

  Mayer bond orders larger than 0.100000
B(  0-C ,  1-C ) :   0.9778 B(  0-C , 20-H ) :   0.9725 B(  0-C , 21-H ) :   0.9762 
B(  0-C , 22-H ) :   0.9752 B(  1-C ,  2-O ) :   0.8996 B(  1-C , 23-H ) :   0.9751 
B(  1-C , 24-H ) :   0.9825 B(  2-O ,  3-C ) :   1.1362 B(  3-C ,  4-O ) :   1.9649 
B(  3-C ,  5-C ) :   1.0807 B(  5-C ,  6-C ) :   1.6371 B(  5-C , 12-C ) :   0.9562 
B(  6-C ,  7-C ) :   0.9658 B(  6-C ,  8-N ) :   1.1518 B(  7-C , 25-H ) :   0.9610 
B(  7-C , 26-H ) :   0.9590 B(  7-C , 27-H ) :   0.9911 B(  8-N ,  9-C ) :   1.1879 
B(  8-N , 28-H ) :   0.9464 B(  9-C , 10-S ) :   1.6044 B(  9-C , 11-N ) :   1.3102 
B( 11-N , 12-C ) :   0.9651 B( 11-N , 29-H ) :   0.9484 B( 12-C , 13-C ) :   0.9638 
B( 12-C , 30-H ) :   1.0010 B( 13-C , 14-C ) :   1.3513 B( 13-C , 19-C ) :   1.3816 
B( 14-C , 15-C ) :   1.3937 B( 14-C , 31-H ) :   0.9718 B( 15-C , 16-C ) :   1.3600 
B( 15-C , 32-H ) :   0.9708 B( 16-C , 17-C ) :   1.3341 B( 16-C , 33-H ) :   0.9851 
B( 17-C , 18-O ) :   1.1044 B( 17-C , 19-C ) :   1.3646 B( 18-O , 34-H ) :   0.9799 
B( 19-C , 35-H ) :   0.9597 

-------
TIMINGS
-------

Total SCF time: 0 days 1 hours 25 min 48 sec 

Total time                  ....    5148.120 sec
Sum of individual times     ....    5139.358 sec  ( 99.8%)

Fock matrix formation       ....    5116.871 sec  ( 99.4%)
Diagonalization             ....       4.422 sec  (  0.1%)
Density matrix formation    ....       0.185 sec  (  0.0%)
Population analysis         ....       0.949 sec  (  0.0%)
Initial guess               ....       4.505 sec  (  0.1%)
Orbital Transformation      ....       0.000 sec  (  0.0%)
Orbital Orthonormalization  ....       0.000 sec  (  0.0%)
DIIS solution               ....       5.495 sec  (  0.1%)
SOSCF solution              ....       5.871 sec  (  0.1%)

------------------------------------------------------------------------------
                                ORCA  MP2 
------------------------------------------------------------------------------

Freezing NCore=48 chemical core electrons

-------------
RI-MP2 ENERGY
-------------
Dimension of the basis                    ...  828
Memory devoted to MP2                     ...  256 MB   
Data format for buffers                   ... DOUBLE
Compression type for matrix containers    ... UNCOMPRESSED
Overall scaling of the MP2 energy         ...   1.000e+00
Calculating two index integrals           ... done (    0.032 sec)
Cholesky decomposition of V**-1           ... done (    1.674 sec)

-----------------
RI-TRANSFORMATION (AUX index driven)
-----------------

Dimension of the orbital-basis         ... 828
Dimension of the aux-basis             ... 2141
Transformation of internal/external MOs...   24-  76 to   77- 827
Number Format for Storage              ... Double (8 Byte)
Integral mode                          ... Direct

First Phase: integral generation and transformation of MO indices
  Aux angular momentum 0               ... done (    8.435 sec)
  Aux angular momentum 1               ... done (   15.680 sec)
  Aux angular momentum 2               ... done (   20.709 sec)
  Aux angular momentum 3               ... done (   15.539 sec)
  Aux angular momentum 4               ... done (    5.281 sec)
Closing buffer VIA ( 0.63 GB; CompressionRatio= 1.00)
  Phase 1 completed in    65.893 sec
Second Phase: sorting and transformation of aux index

IA-Transformation
Memory available                       ... 167 MB 
Max. # MO pairs treated in a batch     ... 12    
# of internal orbitals                 ... 53
# batches for internal orbitals        ... 5
Closing buffer IAV ( 0.63 GB; CompressionRatio= 1.00)
(ia|v) transformation done in    71.549 sec

  Phase 2 completed in    71.555 sec
RI-Integral transformation completed in   137.529 sec
Opening buffers                              ... done

Starting loop over batches of integrals:

Operator 0  - window                       ... ( 24- 76)x( 77-827)
Operator 0  - Memory available             ...   256 MB
Operator 0  - Memory needed per MO         ...  12.3 MB
Operator 0  - Number of orbitals per batch ... 13
Operator 0  - Number of batches            ... 5

OPERATOR  0   PASS   0:  MOs    24 ...   36
  Reading integrals       ... ok
  Internal MO  26
  Internal MO  29
  Internal MO  32
  Internal MO  35
OPERATOR  0   PASS   1:  MOs    37 ...   49
  Reading integrals       ... ok
  Internal MO  38
  Internal MO  41
  Internal MO  44
  Internal MO  47
OPERATOR  0   PASS   2:  MOs    50 ...   62
  Reading integrals       ... ok
  Internal MO  50
  Internal MO  53
  Internal MO  56
  Internal MO  59
  Internal MO  62
OPERATOR  0   PASS   3:  MOs    63 ...   75
  Reading integrals       ... ok
  Internal MO  65
  Internal MO  68
  Internal MO  71
  Internal MO  74
OPERATOR  0   PASS   4:  MOs    76 ...   76
  Reading integrals       ... ok
Time spent in pair loops =   472.069 sec
Deleting buffer (Ka|jb)[aa] ...done

-----------------------------------------------
 RI-MP2 CORRELATION ENERGY:     -3.529477106 Eh
-----------------------------------------------


-------
TIMINGS
-------

Total time                :  611.503 sec
Integral trafo            :  137.538 sec ( 22.5%)
I/O of integrals          :    5.908 sec (  1.0%)
K(i,j) Operators          :  388.657 sec ( 63.6%)
T(i,j) pair energies      :    3.757 sec (  0.6%)
V-calculation             :    0.032 sec (  0.0%)
V**(-1/2)                 :    1.674 sec (  0.3%)
Gamma(ia|P)               :    0.000 sec (  0.0%)
Gamma-Trafo               :    0.000 sec (  0.0%)
D(virtual)                :    0.000 sec (  0.0%)
D(internal)               :    0.000 sec (  0.0%)
W(virtual)                :    0.000 sec (  0.0%)
W(internal)               :    0.000 sec (  0.0%)
L(virtual)                :    0.000 sec (  0.0%)
L(internal)               :    0.000 sec (  0.0%)
G(D)                      :    0.000 sec (  0.0%)
G(Z)                      :    0.000 sec (  0.0%)
Z-Vector Solution         :    0.000 sec (  0.0%)
3-Index Derivative        :    0.000 sec (  0.0%)
2-Index Derivative        :    0.000 sec (  0.0%)
Separable Gradient        :    0.000 sec (  0.0%)


---------------------------------------
MP2 TOTAL ENERGY:    -1274.333373671 Eh
---------------------------------------

-------------------------   --------------------
FINAL SINGLE POINT ENERGY     -1274.333373670635
-------------------------   --------------------


                            ***************************************
                            *     ORCA property calculations      *
                            ***************************************


  WARNING: The energy has been calculated at the MP2 level but the densities
           used in the property calculations are still SCF densities
           MP2 response densities have not been calculated 
           use %mp2 Density relaxed end
           or  %mp2 Density unrelaxed end

                                    ---------------------
                                    Active property flags
                                    ---------------------
   (+) Dipole Moment


------------------------------------------------------------------------------
                       ORCA ELECTRIC PROPERTIES CALCULATION
------------------------------------------------------------------------------

Dipole Moment Calculation                       ... on
Quadrupole Moment Calculation                   ... off
Polarizability Calculation                      ... off
GBWName                                         ... CONFS/Conf587.orca.gbw
Electron density file                           ... CONFS/Conf587.orca.scfp
The origin for moment calculation is the CENTER OF MASS  = (31.905874, 33.032834 33.524661)

-------------
DIPOLE MOMENT
-------------
                                X             Y             Z
Electronic contribution:      9.33250       9.59953      10.54359
Nuclear contribution   :    -10.40934     -11.34583     -10.89779
                        -----------------------------------------
Total Dipole Moment    :     -1.07684      -1.74630      -0.35421
                        -----------------------------------------
Magnitude (a.u.)       :      2.08197
Magnitude (Debye)      :      5.29196



--------------------
Rotational spectrum 
--------------------
 
Rotational constants in cm-1:     0.010710     0.008774     0.005777 
Rotational constants in MHz :   321.063832   263.051881   173.175961 

 Dipole components along the rotational axes: 
x,y,z [a.u.] :    -2.078610     0.091671    -0.074751 
x,y,z [Debye]:    -5.283408     0.233009    -0.190003 

 

Timings for individual modules:

Sum of individual times         ...     5761.616 sec (=  96.027 min)
GTO integral calculation        ...        1.191 sec (=   0.020 min)   0.0 %
SCF iterations                  ...     5148.205 sec (=  85.803 min)  89.4 %
MP2 module                      ...      612.220 sec (=  10.204 min)  10.6 %
                             ****ORCA TERMINATED NORMALLY****
TOTAL RUN TIME: 0 days 1 hours 36 minutes 3 seconds 71 msec
