
                                 *****************
                                 * O   R   C   A *
                                 *****************

           --- An Ab Initio, DFT and Semiempirical electronic structure package ---

                  #######################################################
                  #                        -***-                        #
                  #          Department of theory and spectroscopy      #
                  #               Directorship: Frank Neese             #
                  #        Max Planck Institute fuer Kohlenforschung    #
                  #                Kaiser Wilhelm Platz 1               #
                  #                 D-45470 Muelheim/Ruhr               #
                  #                      Germany                        #
                  #                                                     #
                  #                  All rights reserved                #
                  #                        -***-                        #
                  #######################################################


                         Program Version 4.2.0 -  RELEASE  -


 With contributions from (in alphabetic order):
   Daniel Aravena         : Magnetic Suceptibility
   Michael Atanasov       : Ab Initio Ligand Field Theory (pilot matlab implementation)
   Alexander A. Auer      : GIAO ZORA, VPT2
   Ute Becker             : Parallelization
   Giovanni Bistoni       : ED, misc. LED, open-shell LED, HFLED
   Martin Brehm           : Molecular dynamics
   Dmytro Bykov           : SCF Hessian
   Vijay G. Chilkuri      : MRCI spin determinant printing, contributions to CSF-ICE
   Dipayan Datta          : RHF DLPNO-CCSD density
   Achintya Kumar Dutta   : EOM-CC, STEOM-CC
   Dmitry Ganyushin       : Spin-Orbit,Spin-Spin,Magnetic field MRCI
   Miquel Garcia          : C-PCM Hessian, Gaussian charge scheme
   Yang Guo               : DLPNO-NEVPT2, CIM, IAO-localization
   Andreas Hansen         : Spin unrestricted coupled pair/coupled cluster methods
   Benjamin Helmich-Paris : CASSCF linear response (MC-RPA)
   Lee Huntington         : MR-EOM, pCC
   Robert Izsak           : Overlap fitted RIJCOSX, COSX-SCS-MP3, EOM
   Christian Kollmar      : KDIIS, OOCD, Brueckner-CCSD(T), CCSD density
   Simone Kossmann        : Meta GGA functionals, TD-DFT gradient, OOMP2, MP2 Hessian
   Martin Krupicka        : AUTO-CI
   Lucas Lang             : DCDCAS
   Dagmar Lenk            : GEPOL surface, SMD
   Dimitrios Liakos       : Extrapolation schemes; Compound Job, initial MDCI parallelization
   Dimitrios Manganas     : Further ROCIS development; embedding schemes
   Dimitrios Pantazis     : SARC Basis sets
   Taras Petrenko         : DFT Hessian,TD-DFT gradient, ASA, ECA, R-Raman, ABS, FL, XAS/XES, NRVS
   Peter Pinski           : DLPNO-MP2, DLPNO-MP2 Gradient
   Christoph Reimann      : Effective Core Potentials
   Marius Retegan         : Local ZFS, SOC
   Christoph Riplinger    : Optimizer, TS searches, QM/MM, DLPNO-CCSD(T), (RO)-DLPNO pert. Triples
   Tobias Risthaus        : Range-separated hybrids, TD-DFT gradient, RPA, STAB
   Michael Roemelt        : Original ROCIS implementation
   Masaaki Saitow         : Open-shell DLPNO-CCSD energy and density
   Barbara Sandhoefer     : DKH picture change effects
   Avijit Sen             : IP-ROCIS
   Kantharuban Sivalingam : CASSCF convergence, NEVPT2, FIC-MRCI
   Bernardo de Souza      : ESD, SOC TD-DFT
   Georgi Stoychev        : AutoAux, RI-MP2 NMR
   Willem Van den Heuvel  : Paramagnetic NMR
   Boris Wezisla          : Elementary symmetry handling
   Frank Wennmohs         : Technical directorship


 We gratefully acknowledge several colleagues who have allowed us to
 interface, adapt or use parts of their codes:
   Stefan Grimme, W. Hujo, H. Kruse,             : VdW corrections, initial TS optimization,
                  C. Bannwarth                     DFT functionals, gCP, sTDA/sTD-DF
   Ed Valeev, F. Pavosevic, A. Kumar             : LibInt (2-el integral package), F12 methods
   Garnet Chan, S. Sharma, J. Yang, R. Olivares  : DMRG
   Ulf Ekstrom                                   : XCFun DFT Library
   Mihaly Kallay                                 : mrcc  (arbitrary order and MRCC methods)
   Andreas Klamt, Michael Diedenhofen            : otool_cosmo (COSMO solvation model)
   Jiri Pittner, Ondrej Demel                    : Mk-CCSD
   Frank Weinhold                                : gennbo (NPA and NBO analysis)
   Christopher J. Cramer and Donald G. Truhlar   : smd solvation model
   Lars Goerigk                                  : TD-DFT with DH, B97 family of functionals
   V. Asgeirsson, H. Jonsson                     : NEB implementation
   FAccTs GmbH                                   : IRC, NEB, NEB-TS, Multilevel, MM, QM/MM, CI optimization
   S Lehtola, MJT Oliveira, MAL Marques          : LibXC Library


 Your calculation uses the libint2 library for the computation of 2-el integrals
 For citations please refer to: http://libint.valeyev.net

 Your ORCA version has been built with support for libXC version: 4.2.3
 For citations please refer to: https://tddft.org/programs/libxc/

 This ORCA versions uses:
   CBLAS   interface :  Fast vector & matrix operations
   LAPACKE interface :  Fast linear algebra routines
   SCALAPACK package :  Parallel linear algebra routines


----- Orbital basis set information -----
Your calculation utilizes the basis: cc-pVTZ 
       H, B-Ne : Obtained from the ccRepo (grant-hill.group.shef.ac.uk/ccrepo) Feb. 2017
                 T. H. Dunning, Jr., J. Chem. Phys. 90, 1007 (1989)
            He : Obtained from the ccRepo (grant-hill.group.shef.ac.uk/ccrepo) Feb. 2017
                 D. E. Woon, T. H. Dunning, Jr., J. Chem. Phys. 100, 2975 (1994)
  Li-Be, Na-Mg : Obtained from the ccRepo (grant-hill.group.shef.ac.uk/ccrepo) Feb. 2017
                 B. P. Prascher, D. E. Woon, K. A. Peterson, T. H. Dunning, Jr., A. K. Wilson, Theor. Chem. Acc. 128, 69 (2011)
         Al-Ar : Obtained from the ccRepo (grant-hill.group.shef.ac.uk/ccrepo) Feb. 2017
                 D. E. Woon, T. H. Dunning, Jr., J. Chem. Phys. 98, 1358 (1993)
            Ca : Obtained from the Peterson Research Group Website (tyr0.chem.wsu.edu/~kipeters) Feb. 2017
                 J. Koput, K. A. Peterson, J. Phys. Chem. 106, 9595 (2002)
         Sc-Zn : Obtained from the ccRepo (grant-hill.group.shef.ac.uk/ccrepo) Feb. 2017
                 N. B. Balabanov, K. A. Peterson, J. Chem. Phys. 123, 064107 (2005)
                 N. B. Balabanov, K. A. Peterson, J. Chem. Phys. 125, 074110 (2006)
         Ga-Kr : Obtained from the ccRepo (grant-hill.group.shef.ac.uk/ccrepo) Feb. 2017
                 A. K. Wilson, D. E. Woon, K. A. Peterson, T. H. Dunning, Jr., J. Chem. Phys. 110, 7667 (1999)
             Y : Obtained from the ccRepo (grant-hill.group.shef.ac.uk/ccrepo) Feb. 2017
                 K. A. Peterson, D. Figgen, M. Dolg, H. Stoll, J. Chem. Phys. 126, 124101 (2007)
        Ag, Au : Obtained from the Peterson Research Group Website (tyr0.chem.wsu.edu/~kipeters) Feb. 2017
                 K. A. Peterson, C. Puzzarini, Theor. Chem. Acc. 114, 283 (2005)

----- AuxC basis set information -----
Your calculation utilizes the auxiliary basis: cc-pVTZ/C 
  Obtained from the EMSL Basis Set Exchange (bse.pnl.gov) Feb. 2017
  H-He, B-F, Al-Ar, Ga-Kr : F. Weigend, A. Kohn, C. Hattig, J. Chem. Phys. 116, 3175 (2002)
             Li-Be, Na-Mg : C. Haettig, Phys. Chem. Chem. Phys. 7, 59 (2005)
                       Ne : C. Haettig, Phys. Chem. Chem. Phys. 7, 59 (2005)
                            F. Weigend, A. Kohn, C. Hattig, J. Chem. Phys. 116, 3175 (2002)
                    Sc-Zn : J. G. Hill, J. A. Platts, J. Chem. Phys. 128, 044104 (2008)

================================================================================
                                        WARNINGS
                       Please study these warnings very carefully!
================================================================================


WARNING: No MP2 level density has been requested!
         To caclulate MP2 level properties use
         %mp2 Density relaxed end
         or
         %mp2 Density unrelaxed end

WARNING: Post HF methods need fully converged wavefunctions
  ===> : Setting SCFConvForced true
         You can overwrite this default with %scf ConvForced false 


INFO   : the flag for use of LIBINT has been found!

================================================================================
                                       INPUT FILE
================================================================================
NAME = CONFS/Conf366.orca
|  1> ! ri-mp2 cc-pvtz cc-pvtz/c TightSCF NoKeepInts
|  2> 
|  3> %scf
|  4>   MaxCore 4096
|  5> end
|  6> *xyz  0  1
|  7>     C       14.5804581   15.4125177   16.1087628
|  8>     C       15.8529794   14.8426926   15.4439703
|  9>     O       16.9753505   15.7440443   15.5561512
| 10>     C       16.8193780   17.0570146   15.2239557
| 11>     O       16.4025571   17.3727479   14.1233672
| 12>     C       17.0524750   18.0000770   16.3763952
| 13>     C       17.0001796   19.3435439   16.1786860
| 14>     C       16.4179382   20.0757890   14.9868850
| 15>     N       17.5158725   20.2330693   17.1239152
| 16>     C       18.3024740   19.8661251   18.1812825
| 17>     S       18.9817474   20.9801043   19.1975998
| 18>     N       18.5191874   18.5213695   18.3402482
| 19>     C       17.8521369   17.4516398   17.5735689
| 20>     C       17.0987135   16.4823984   18.4743308
| 21>     C       17.4892142   15.1337904   18.5682395
| 22>     C       16.7968548   14.2475077   19.4104060
| 23>     C       15.7119625   14.7161557   20.1712986
| 24>     C       15.3291791   16.0621898   20.0889643
| 25>     O       14.2827464   16.5173698   20.8225800
| 26>     C       16.0184375   16.9412206   19.2475848
| 27>     H       14.7493289   15.6208107   17.1698557
| 28>     H       13.7629500   14.6849497   16.0391829
| 29>     H       14.2452173   16.3340464   15.6168445
| 30>     H       16.1108640   13.8827274   15.9093029
| 31>     H       15.6440817   14.6554988   14.3820375
| 32>     H       17.0477527   19.9318030   14.0995574
| 33>     H       16.3178471   21.1549584   15.1523327
| 34>     H       15.4187861   19.6910184   14.7457953
| 35>     H       17.3880362   21.2247150   17.0000023
| 36>     H       19.0830321   18.2785079   19.1451041
| 37>     H       18.7353045   16.9653678   17.1352851
| 38>     H       18.3266874   14.7705528   17.9781212
| 39>     H       17.1028974   13.2046117   19.4733137
| 40>     H       15.1750183   14.0356976   20.8240902
| 41>     H       13.9670168   15.7822050   21.3693009
| 42>     H       15.7123375   17.9811620   19.1996821
| 43> *
| 44> 
| 45>                          ****END OF INPUT****
================================================================================

                       ****************************
                       * Single Point Calculation *
                       ****************************

---------------------------------
CARTESIAN COORDINATES (ANGSTROEM)
---------------------------------
  C     14.580458   15.412518   16.108763
  C     15.852979   14.842693   15.443970
  O     16.975351   15.744044   15.556151
  C     16.819378   17.057015   15.223956
  O     16.402557   17.372748   14.123367
  C     17.052475   18.000077   16.376395
  C     17.000180   19.343544   16.178686
  C     16.417938   20.075789   14.986885
  N     17.515873   20.233069   17.123915
  C     18.302474   19.866125   18.181282
  S     18.981747   20.980104   19.197600
  N     18.519187   18.521369   18.340248
  C     17.852137   17.451640   17.573569
  C     17.098713   16.482398   18.474331
  C     17.489214   15.133790   18.568240
  C     16.796855   14.247508   19.410406
  C     15.711963   14.716156   20.171299
  C     15.329179   16.062190   20.088964
  O     14.282746   16.517370   20.822580
  C     16.018438   16.941221   19.247585
  H     14.749329   15.620811   17.169856
  H     13.762950   14.684950   16.039183
  H     14.245217   16.334046   15.616844
  H     16.110864   13.882727   15.909303
  H     15.644082   14.655499   14.382037
  H     17.047753   19.931803   14.099557
  H     16.317847   21.154958   15.152333
  H     15.418786   19.691018   14.745795
  H     17.388036   21.224715   17.000002
  H     19.083032   18.278508   19.145104
  H     18.735305   16.965368   17.135285
  H     18.326687   14.770553   17.978121
  H     17.102897   13.204612   19.473314
  H     15.175018   14.035698   20.824090
  H     13.967017   15.782205   21.369301
  H     15.712338   17.981162   19.199682

----------------------------
CARTESIAN COORDINATES (A.U.)
----------------------------
  NO LB      ZA    FRAG     MASS         X           Y           Z
   0 C     6.0000    0    12.011   27.553073   29.125437   30.441150
   1 C     6.0000    0    12.011   29.957789   28.048624   29.184874
   2 O     8.0000    0    15.999   32.078763   29.751932   29.396865
   3 C     6.0000    0    12.011   31.784018   32.233086   28.769107
   4 O     8.0000    0    15.999   30.996341   32.829736   26.689296
   5 C     6.0000    0    12.011   32.224508   34.015216   30.946902
   6 C     6.0000    0    12.011   32.125684   36.554000   30.573286
   7 C     6.0000    0    12.011   31.025407   37.937743   28.321108
   8 N     7.0000    0    14.007   33.100202   38.234960   32.359510
   9 C     6.0000    0    12.011   34.586663   37.541536   34.357645
  10 S    16.0000    0    32.060   35.870304   39.646651   36.278206
  11 N     7.0000    0    14.007   34.996192   35.000316   34.658046
  12 C     6.0000    0    12.011   33.735650   32.978820   33.209232
  13 C     6.0000    0    12.011   32.311886   31.147219   34.911426
  14 C     6.0000    0    12.011   33.049825   28.598719   35.088887
  15 C     6.0000    0    12.011   31.741455   26.923888   36.680351
  16 C     6.0000    0    12.011   29.691306   27.809504   38.118230
  17 C     6.0000    0    12.011   28.967950   30.353140   37.962641
  18 O     8.0000    0    15.999   26.990479   31.213305   39.348974
  19 C     6.0000    0    12.011   30.270460   32.014267   36.372664
  20 H     1.0000    0     1.008   27.872192   29.519054   32.446325
  21 H     1.0000    0     1.008   26.008206   27.750533   30.309663
  22 H     1.0000    0     1.008   26.919559   30.866874   29.511559
  23 H     1.0000    0     1.008   30.445121   26.234553   30.064225
  24 H     1.0000    0     1.008   29.563030   27.694879   27.178112
  25 H     1.0000    0     1.008   32.215584   37.665649   26.644302
  26 H     1.0000    0     1.008   30.836262   39.977078   28.633759
  27 H     1.0000    0     1.008   29.137283   37.210632   27.865515
  28 H     1.0000    0     1.008   32.858626   40.108899   32.125349
  29 H     1.0000    0     1.008   36.061704   34.541374   36.179004
  30 H     1.0000    0     1.008   35.404595   32.059899   32.380996
  31 H     1.0000    0     1.008   34.632420   27.912300   33.973725
  32 H     1.0000    0     1.008   32.319792   24.953100   36.799230
  33 H     1.0000    0     1.008   28.676629   26.523625   39.351827
  34 H     1.0000    0     1.008   26.393837   29.824045   40.382126
  35 H     1.0000    0     1.008   29.692015   33.979472   36.282141

--------------------------------
INTERNAL COORDINATES (ANGSTROEM)
--------------------------------
 C      0   0   0     0.000000000000     0.00000000     0.00000000
 C      1   0   0     1.544655356900     0.00000000     0.00000000
 O      2   1   0     1.443861602624   112.12690194     0.00000000
 C      3   2   1     1.363294641543   119.56129134   311.17545277
 O      4   3   2     1.218491783205   120.58279728   304.61135769
 C      4   3   2     1.507255022504   113.48961277   117.92271439
 C      6   4   3     1.358943357179   120.09042423   176.59689988
 C      7   6   4     1.515116351291   127.37424772    15.42735147
 N      7   6   4     1.396657740783   121.12925812   195.45374613
 C      9   7   6     1.367996919889   124.37288599    11.78782223
 S     10   9   7     1.653863012544   122.03699062   175.02074507
 N     10   9   7     1.371350580722   116.32723840   356.18692753
 C     12  10   9     1.475491494269   125.39873728   352.30124708
 C     13  12  10     1.522644972288   112.19797197   238.37586086
 C     14  13  12     1.407143623906   120.81279111   244.59277063
 C     15  14  13     1.405027749480   120.51769430   179.43518320
 C     16  15  14     1.405553200430   119.63745367   359.54504953
 C     17  16  15     1.401823764471   119.94221119   359.84563801
 O     18  17  16     1.356614250005   120.06876994   180.02312042
 C     18  17  16     1.398460493664   120.28543309     0.29636825
 H      1   2   3     1.094450301920   111.12228564   301.36880007
 H      1   2   3     1.096592928426   110.00432546   182.28347407
 H      1   2   3     1.097080285477   111.63126756    63.00678587
 H      2   1   3     1.097529990821   109.49719125   121.49067363
 H      2   1   3     1.098353786145   108.80203369   239.06809057
 H      8   7   6     1.097610378198   110.60977340   289.46167461
 H      8   7   6     1.096356585984   113.08495290   168.61286120
 H      8   7   6     1.097486937054   110.68405480    48.35792825
 H      9   7   6     1.007500729882   119.78756006   185.87031105
 H     12  10   9     1.012272503942   114.54798036   181.62129870
 H     13  12  10     1.099335325102    99.47737423   121.41796862
 H     15  14  13     1.086987820892   119.85769894   358.83364416
 H     16  15  14     1.088692573021   120.02449775   179.70898652
 H     17  16  15     1.085112516194   119.90218354   180.07927226
 H     19  18  17     0.969049124643   107.56969805     3.06978596
 H     20  18  17     1.085112894634   119.33599016   180.31747866

---------------------------
INTERNAL COORDINATES (A.U.)
---------------------------
 C      0   0   0     0.000000000000     0.00000000     0.00000000
 C      1   0   0     2.918975595835     0.00000000     0.00000000
 O      2   1   0     2.728503004245   112.12690194     0.00000000
 C      3   2   1     2.576253512358   119.56129134   311.17545277
 O      4   3   2     2.302615766691   120.58279728   304.61135769
 C      4   3   2     2.848299206510   113.48961277   117.92271439
 C      6   4   3     2.568030776580   120.09042423   176.59689988
 C      7   6   4     2.863154964966   127.37424772    15.42735147
 N      7   6   4     2.639300632900   121.12925812   195.45374613
 C      9   7   6     2.585139530638   124.37288599    11.78782223
 S     10   9   7     3.125348156729   122.03699062   175.02074507
 N     10   9   7     2.591477031159   116.32723840   356.18692753
 C     12  10   9     2.788274837099   125.39873728   352.30124708
 C     13  12  10     2.877381996816   112.19797197   238.37586086
 C     14  13  12     2.659116080276   120.81279111   244.59277063
 C     15  14  13     2.655117657078   120.51769430   179.43518320
 C     16  15  14     2.656110615469   119.63745367   359.54504953
 C     17  16  15     2.649063002872   119.94221119   359.84563801
 O     18  17  16     2.563629401884   120.06876994   180.02312042
 C     18  17  16     2.642707342134   120.28543309     0.29636825
 H      1   2   3     2.068211337816   111.12228564   301.36880007
 H      1   2   3     2.072260315120   110.00432546   182.28347407
 H      1   2   3     2.073181286476   111.63126756    63.00678587
 H      2   1   3     2.074031106416   109.49719125   121.49067363
 H      2   1   3     2.075587853970   108.80203369   239.06809057
 H      8   7   6     2.074183016544   110.60977340   289.46167461
 H      8   7   6     2.071813692631   113.08495290   168.61286120
 H      8   7   6     2.073949746589   110.68405480    48.35792825
 H      9   7   6     1.903900459203   119.78756006   185.87031105
 H     12  10   9     1.912917805350   114.54798036   181.62129870
 H     13  12  10     2.077442693787    99.47737423   121.41796862
 H     15  14  13     2.054109292393   119.85769894   358.83364416
 H     16  15  14     2.057330807043   120.02449775   179.70898652
 H     17  16  15     2.050565480096   119.90218354   180.07927226
 H     19  18  17     1.831237455892   107.56969805     3.06978596
 H     20  18  17     2.050566195245   119.33599016   180.31747866

---------------------
BASIS SET INFORMATION
---------------------
There are 5 groups of distinct atoms

 Group   1 Type C   : 18s5p2d1f contracted to 4s3p2d1f pattern {8811/311/11/1}
 Group   2 Type O   : 18s5p2d1f contracted to 4s3p2d1f pattern {8811/311/11/1}
 Group   3 Type N   : 18s5p2d1f contracted to 4s3p2d1f pattern {8811/311/11/1}
 Group   4 Type S   : 41s16p2d1f contracted to 5s4p2d1f pattern {13131311/7711/11/1}
 Group   5 Type H   : 5s2p1d contracted to 3s2p1d pattern {311/11/1}

Atom   0C    basis set group =>   1
Atom   1C    basis set group =>   1
Atom   2O    basis set group =>   2
Atom   3C    basis set group =>   1
Atom   4O    basis set group =>   2
Atom   5C    basis set group =>   1
Atom   6C    basis set group =>   1
Atom   7C    basis set group =>   1
Atom   8N    basis set group =>   3
Atom   9C    basis set group =>   1
Atom  10S    basis set group =>   4
Atom  11N    basis set group =>   3
Atom  12C    basis set group =>   1
Atom  13C    basis set group =>   1
Atom  14C    basis set group =>   1
Atom  15C    basis set group =>   1
Atom  16C    basis set group =>   1
Atom  17C    basis set group =>   1
Atom  18O    basis set group =>   2
Atom  19C    basis set group =>   1
Atom  20H    basis set group =>   5
Atom  21H    basis set group =>   5
Atom  22H    basis set group =>   5
Atom  23H    basis set group =>   5
Atom  24H    basis set group =>   5
Atom  25H    basis set group =>   5
Atom  26H    basis set group =>   5
Atom  27H    basis set group =>   5
Atom  28H    basis set group =>   5
Atom  29H    basis set group =>   5
Atom  30H    basis set group =>   5
Atom  31H    basis set group =>   5
Atom  32H    basis set group =>   5
Atom  33H    basis set group =>   5
Atom  34H    basis set group =>   5
Atom  35H    basis set group =>   5
---------------------------------
AUXILIARY/C BASIS SET INFORMATION
---------------------------------
There are 5 groups of distinct atoms

 Group   1 Type C   : 8s6p5d3f1g contracted to 8s6p5d3f1g pattern {11111111/111111/11111/111/1}
 Group   2 Type O   : 8s6p5d3f1g contracted to 8s6p5d3f1g pattern {11111111/111111/11111/111/1}
 Group   3 Type N   : 8s6p5d3f1g contracted to 8s6p5d3f1g pattern {11111111/111111/11111/111/1}
 Group   4 Type S   : 10s8p7d5f2g contracted to 10s8p7d5f2g pattern {1111111111/11111111/1111111/11111/11}
 Group   5 Type H   : 4s3p2d1f contracted to 4s3p2d1f pattern {1111/111/11/1}

Atom   0C    basis set group =>   1
Atom   1C    basis set group =>   1
Atom   2O    basis set group =>   2
Atom   3C    basis set group =>   1
Atom   4O    basis set group =>   2
Atom   5C    basis set group =>   1
Atom   6C    basis set group =>   1
Atom   7C    basis set group =>   1
Atom   8N    basis set group =>   3
Atom   9C    basis set group =>   1
Atom  10S    basis set group =>   4
Atom  11N    basis set group =>   3
Atom  12C    basis set group =>   1
Atom  13C    basis set group =>   1
Atom  14C    basis set group =>   1
Atom  15C    basis set group =>   1
Atom  16C    basis set group =>   1
Atom  17C    basis set group =>   1
Atom  18O    basis set group =>   2
Atom  19C    basis set group =>   1
Atom  20H    basis set group =>   5
Atom  21H    basis set group =>   5
Atom  22H    basis set group =>   5
Atom  23H    basis set group =>   5
Atom  24H    basis set group =>   5
Atom  25H    basis set group =>   5
Atom  26H    basis set group =>   5
Atom  27H    basis set group =>   5
Atom  28H    basis set group =>   5
Atom  29H    basis set group =>   5
Atom  30H    basis set group =>   5
Atom  31H    basis set group =>   5
Atom  32H    basis set group =>   5
Atom  33H    basis set group =>   5
Atom  34H    basis set group =>   5
Atom  35H    basis set group =>   5
------------------------------------------------------------------------------
                           ORCA GTO INTEGRAL CALCULATION
------------------------------------------------------------------------------

                         BASIS SET STATISTICS AND STARTUP INFO

 # of primitive gaussian shells          ...  682
 # of primitive gaussian functions       ... 1312
 # of contracted shells                  ...  298
 # of contracted basis functions         ...  828
 Highest angular momentum                ...    3
 Maximum contraction depth               ...   13
 Integral package used                   ... LIBINT
 Integral threshhold            Thresh   ...  2.500e-11
 Primitive cut-off              TCut     ...  2.500e-12


------------------------------ INTEGRAL EVALUATION ----------------------------


 * One electron integrals 
 Pre-screening matrix                    ... done
 Shell pair data                         ... done (   0.012 sec)

-------------------------------------------------------------------------------
                                 ORCA SCF
-------------------------------------------------------------------------------

------------
SCF SETTINGS
------------
Hamiltonian:
 Ab initio Hamiltonian  Method          .... Hartree-Fock(GTOs)


General Settings:
 Integral files         IntName         .... CONFS/Conf366.orca
 Hartree-Fock type      HFTyp           .... RHF
 Total Charge           Charge          ....    0
 Multiplicity           Mult            ....    1
 Number of Electrons    NEL             ....  154
 Basis Dimension        Dim             ....  828
 Nuclear Repulsion      ENuc            ....   1717.5311957020 Eh

Convergence Acceleration:
 DIIS                   CNVDIIS         .... on
   Start iteration      DIISMaxIt       ....    12
   Startup error        DIISStart       ....  0.200000
   # of expansion vecs  DIISMaxEq       ....     5
   Bias factor          DIISBfac        ....   1.050
   Max. coefficient     DIISMaxC        ....  10.000
 Newton-Raphson         CNVNR           .... off
 SOSCF                  CNVSOSCF        .... on
   Start iteration      SOSCFMaxIt      ....   150
   Startup grad/error   SOSCFStart      ....  0.003300
 Level Shifting         CNVShift        .... on
   Level shift para.    LevelShift      ....    0.2500
   Turn off err/grad.   ShiftErr        ....    0.0010
 Zerner damping         CNVZerner       .... off
 Static damping         CNVDamp         .... on
   Fraction old density DampFac         ....    0.7000
   Max. Damping (<1)    DampMax         ....    0.9800
   Min. Damping (>=0)   DampMin         ....    0.0000
   Turn off err/grad.   DampErr         ....    0.1000
 Fernandez-Rico         CNVRico         .... off

SCF Procedure:
 Maximum # iterations   MaxIter         ....   125
 SCF integral mode      SCFMode         .... Direct
   Integral package                     .... LIBINT
 Reset frequency        DirectResetFreq ....    20
 Integral Threshold     Thresh          ....  2.500e-11 Eh
 Primitive CutOff       TCut            ....  2.500e-12 Eh

Convergence Tolerance:
 Convergence Check Mode ConvCheckMode   .... Total+1el-Energy
 Convergence forced     ConvForced      .... 1
 Energy Change          TolE            ....  1.000e-08 Eh
 1-El. energy change                    ....  1.000e-05 Eh
 Orbital Gradient       TolG            ....  1.000e-05
 Orbital Rotation angle TolX            ....  1.000e-05
 DIIS Error             TolErr          ....  5.000e-07


Diagonalization of the overlap matrix:
Smallest eigenvalue                        ... 3.343e-05
Time for diagonalization                   ...    0.289 sec
Threshold for overlap eigenvalues          ... 1.000e-08
Number of eigenvalues below threshold      ... 0
Time for construction of square roots      ...    0.358 sec
Total time needed                          ...    0.648 sec

-------------------
DFT GRID GENERATION
-------------------

General Integration Accuracy     IntAcc      ...  4.340
Radial Grid Type                 RadialGrid  ... Gauss-Chebyshev
Angular Grid (max. acc.)         AngularGrid ... Lebedev-110
Angular grid pruning method      GridPruning ... 3 (G Style)
Weight generation scheme         WeightScheme... Becke
Basis function cutoff            BFCut       ...    1.0000e-11
Integration weight cutoff        WCut        ...    1.0000e-14
Grids for H and He will be reduced by one unit

# of grid points (after initial pruning)     ...  46246 (   0.0 sec)
# of grid points (after weights+screening)   ...  41205 (   0.3 sec)
nearest neighbour list constructed           ...    0.0 sec
Grid point re-assignment to atoms done       ...    0.0 sec
Grid point division into batches done        ...    0.1 sec
Reduced shell lists constructed in    1.1 sec

Total number of grid points                  ...    41205
Total number of batches                      ...      658
Average number of points per batch           ...       62
Average number of grid points per atom       ...     1145
Average number of shells per batch           ...   152.33 (51.12%)
Average number of basis functions per batch  ...   387.89 (46.85%)
Average number of large shells per batch     ...    97.91 (64.28%)
Average number of large basis fcns per batch ...   251.04 (64.72%)
Maximum spatial batch extension              ...  22.44, 24.13, 22.57 au
Average spatial batch extension              ...   3.53,  3.23,  3.45 au

Time for grid setup =    1.699 sec

------------------------------
INITIAL GUESS: MODEL POTENTIAL
------------------------------
Loading Hartree-Fock densities                     ... done
Calculating cut-offs                               ... done
Setting up the integral package                    ... done
Initializing the effective Hamiltonian             ... done
Starting the Coulomb interaction                   ... done (   3.4 sec)
Reading the grid                                   ... done
Mapping shells                                     ... done
Starting the XC term evaluation                    ... done (   1.4 sec)
Transforming the Hamiltonian                       ... done (   0.2 sec)
Diagonalizing the Hamiltonian                      ... done (   0.3 sec)
Back transforming the eigenvectors                 ... done (   0.1 sec)
Now organizing SCF variables                       ... done
                      ------------------
                      INITIAL GUESS DONE (   8.3 sec)
                      ------------------
--------------
SCF ITERATIONS
--------------
ITER       Energy         Delta-E        Max-DP      RMS-DP      [F,P]     Damp
               ***  Starting incremental Fock matrix formation  ***
  0  -1270.0043541640   0.000000000000 0.04935508  0.00042989  0.3234738 0.7000
  1  -1270.2703135596  -0.265959395526 0.03610182  0.00034501  0.1940445 0.7000
                               ***Turning on DIIS***
  2  -1270.4362299445  -0.165916384921 0.02584740  0.00023184  0.1095993 0.7000
  3  -1272.5754898931  -2.139259948580 0.06314017  0.00050653  0.0828514 0.0000
  4  -1270.7448652127   1.830624680408 0.00980195  0.00009672  0.0070120 0.0000
  5  -1270.8002001295  -0.055334916894 0.00377590  0.00005048  0.0049735 0.0000
  6  -1270.7819818869   0.018218242683 0.00182210  0.00002605  0.0033018 0.0000
                      *** Initiating the SOSCF procedure ***
                           *** Shutting down DIIS ***
                      *** Re-Reading the Fockian *** 
                      *** Removing any level shift *** 
ITER      Energy       Delta-E        Grad      Rot      Max-DP    RMS-DP
  7  -1270.79742223  -0.0154403386  0.001246  0.001246  0.001121  0.000014
               *** Restarting incremental Fock matrix formation ***
  8  -1270.79699483   0.0004273924  0.000673  0.001719  0.000546  0.000007
  9  -1270.79700894  -0.0000141040  0.000314  0.001993  0.000771  0.000009
 10  -1270.79701462  -0.0000056829  0.000070  0.000125  0.000182  0.000002
 11  -1270.79701519  -0.0000005722  0.000033  0.000070  0.000063  0.000001
 12  -1270.79701530  -0.0000001112  0.000012  0.000049  0.000031  0.000000
 13  -1270.79701532  -0.0000000155  0.000009  0.000040  0.000018  0.000000
                  ***Gradient check signals convergence***
              ***Rediagonalizing the Fockian in SOSCF/NRSCF***

               *****************************************************
               *                     SUCCESS                       *
               *           SCF CONVERGED AFTER  14 CYCLES          *
               *****************************************************


----------------
TOTAL SCF ENERGY
----------------

Total Energy       :        -1270.79701533 Eh          -34580.14481 eV

Components:
Nuclear Repulsion  :         1717.53119570 Eh           46736.39987 eV
Electronic Energy  :        -2988.32821103 Eh          -81316.54468 eV
One Electron Energy:        -5156.14110961 Eh         -140305.73260 eV
Two Electron Energy:         2167.81289858 Eh           58989.18792 eV

Virial components:
Potential Energy   :        -2539.78382058 Eh          -69111.03130 eV
Kinetic Energy     :         1268.98680525 Eh           34530.88649 eV
Virial Ratio       :            2.00142650


---------------
SCF CONVERGENCE
---------------

  Last Energy change         ...   -1.3395e-08  Tolerance :   1.0000e-08
  Last MAX-Density change    ...    2.5048e-06  Tolerance :   1.0000e-07
  Last RMS-Density change    ...    4.1783e-08  Tolerance :   5.0000e-09
  Last Orbital Gradient      ...    2.0039e-06  Tolerance :   1.0000e-05
  Last Orbital Rotation      ...    6.0053e-06  Tolerance :   1.0000e-05

             **** THE GBW FILE WAS UPDATED (CONFS/Conf366.orca.gbw) ****
             **** DENSITY FILE WAS UPDATED (CONFS/Conf366.orca.scfp) ****
             **** ENERGY FILE WAS UPDATED (CONFS/Conf366.orca.en.tmp) ****
             **** THE GBW FILE WAS UPDATED (CONFS/Conf366.orca.gbw) ****
             **** DENSITY FILE WAS UPDATED (CONFS/Conf366.orca.scfp) ****
----------------
ORBITAL ENERGIES
----------------

  NO   OCC          E(Eh)            E(eV) 
   0   2.0000     -91.890809     -2500.4760 
   1   2.0000     -20.599569      -560.5428 
   2   2.0000     -20.584824      -560.1415 
   3   2.0000     -20.544032      -559.0315 
   4   2.0000     -15.631148      -425.3452 
   5   2.0000     -15.608634      -424.7325 
   6   2.0000     -11.392957      -310.0181 
   7   2.0000     -11.385023      -309.8022 
   8   2.0000     -11.339659      -308.5678 
   9   2.0000     -11.317100      -307.9539 
  10   2.0000     -11.310196      -307.7661 
  11   2.0000     -11.298521      -307.4484 
  12   2.0000     -11.263802      -306.5036 
  13   2.0000     -11.259686      -306.3916 
  14   2.0000     -11.258658      -306.3637 
  15   2.0000     -11.253070      -306.2116 
  16   2.0000     -11.247355      -306.0561 
  17   2.0000     -11.242116      -305.9135 
  18   2.0000     -11.241649      -305.9008 
  19   2.0000     -11.223841      -305.4162 
  20   2.0000      -8.895855      -242.0685 
  21   2.0000      -6.577421      -178.9807 
  22   2.0000      -6.575430      -178.9265 
  23   2.0000      -6.574831      -178.9103 
  24   2.0000      -1.446769       -39.3686 
  25   2.0000      -1.419348       -38.6224 
  26   2.0000      -1.351058       -36.7641 
  27   2.0000      -1.342602       -36.5341 
  28   2.0000      -1.240454       -33.7545 
  29   2.0000      -1.160608       -31.5817 
  30   2.0000      -1.122299       -30.5393 
  31   2.0000      -1.045278       -28.4435 
  32   2.0000      -1.031868       -28.0786 
  33   2.0000      -1.018431       -27.7129 
  34   2.0000      -0.999057       -27.1857 
  35   2.0000      -0.987079       -26.8598 
  36   2.0000      -0.924074       -25.1453 
  37   2.0000      -0.895696       -24.3731 
  38   2.0000      -0.848488       -23.0885 
  39   2.0000      -0.841322       -22.8935 
  40   2.0000      -0.837576       -22.7916 
  41   2.0000      -0.816507       -22.2183 
  42   2.0000      -0.749176       -20.3861 
  43   2.0000      -0.736092       -20.0301 
  44   2.0000      -0.723040       -19.6749 
  45   2.0000      -0.698022       -18.9941 
  46   2.0000      -0.690435       -18.7877 
  47   2.0000      -0.674751       -18.3609 
  48   2.0000      -0.671878       -18.2827 
  49   2.0000      -0.663506       -18.0549 
  50   2.0000      -0.648483       -17.6461 
  51   2.0000      -0.642547       -17.4846 
  52   2.0000      -0.636943       -17.3321 
  53   2.0000      -0.616792       -16.7838 
  54   2.0000      -0.609762       -16.5925 
  55   2.0000      -0.602491       -16.3946 
  56   2.0000      -0.601266       -16.3613 
  57   2.0000      -0.579533       -15.7699 
  58   2.0000      -0.570575       -15.5261 
  59   2.0000      -0.566611       -15.4183 
  60   2.0000      -0.550774       -14.9873 
  61   2.0000      -0.545407       -14.8413 
  62   2.0000      -0.537347       -14.6219 
  63   2.0000      -0.530601       -14.4384 
  64   2.0000      -0.525837       -14.3087 
  65   2.0000      -0.514838       -14.0095 
  66   2.0000      -0.501667       -13.6510 
  67   2.0000      -0.499974       -13.6050 
  68   2.0000      -0.479464       -13.0469 
  69   2.0000      -0.465027       -12.6540 
  70   2.0000      -0.453118       -12.3300 
  71   2.0000      -0.444671       -12.1001 
  72   2.0000      -0.354710        -9.6522 
  73   2.0000      -0.352492        -9.5918 
  74   2.0000      -0.329879        -8.9765 
  75   2.0000      -0.324964        -8.8427 
  76   2.0000      -0.320282        -8.7153 
  77   0.0000       0.071307         1.9404 
  78   0.0000       0.101659         2.7663 
  79   0.0000       0.122805         3.3417 
  80   0.0000       0.129804         3.5321 
  81   0.0000       0.134176         3.6511 
  82   0.0000       0.141068         3.8386 
  83   0.0000       0.149803         4.0764 
  84   0.0000       0.153100         4.1661 
  85   0.0000       0.160910         4.3786 
  86   0.0000       0.171385         4.6636 
  87   0.0000       0.178043         4.8448 
  88   0.0000       0.188847         5.1388 
  89   0.0000       0.191485         5.2106 
  90   0.0000       0.198363         5.3977 
  91   0.0000       0.204156         5.5554 
  92   0.0000       0.217374         5.9150 
  93   0.0000       0.223293         6.0761 
  94   0.0000       0.226365         6.1597 
  95   0.0000       0.238642         6.4938 
  96   0.0000       0.245196         6.6721 
  97   0.0000       0.254212         6.9175 
  98   0.0000       0.274806         7.4778 
  99   0.0000       0.283998         7.7280 
 100   0.0000       0.297759         8.1024 
 101   0.0000       0.306877         8.3505 
 102   0.0000       0.311849         8.4858 
 103   0.0000       0.317965         8.6523 
 104   0.0000       0.323592         8.8054 
 105   0.0000       0.330407         8.9908 
 106   0.0000       0.339286         9.2324 
 107   0.0000       0.352735         9.5984 
 108   0.0000       0.359624         9.7859 
 109   0.0000       0.366878         9.9833 
 110   0.0000       0.370269        10.0755 
 111   0.0000       0.373832        10.1725 
 112   0.0000       0.376799        10.2532 
 113   0.0000       0.388041        10.5591 
 114   0.0000       0.393735        10.7141 
 115   0.0000       0.403384        10.9766 
 116   0.0000       0.415245        11.2994 
 117   0.0000       0.428552        11.6615 
 118   0.0000       0.430627        11.7179 
 119   0.0000       0.441388        12.0108 
 120   0.0000       0.446132        12.1399 
 121   0.0000       0.449348        12.2274 
 122   0.0000       0.450880        12.2691 
 123   0.0000       0.458999        12.4900 
 124   0.0000       0.466444        12.6926 
 125   0.0000       0.474327        12.9071 
 126   0.0000       0.479559        13.0495 
 127   0.0000       0.485431        13.2093 
 128   0.0000       0.494707        13.4617 
 129   0.0000       0.498940        13.5769 
 130   0.0000       0.502385        13.6706 
 131   0.0000       0.505471        13.7546 
 132   0.0000       0.517299        14.0764 
 133   0.0000       0.520404        14.1609 
 134   0.0000       0.525768        14.3069 
 135   0.0000       0.530331        14.4310 
 136   0.0000       0.535135        14.5618 
 137   0.0000       0.538433        14.6515 
 138   0.0000       0.543677        14.7942 
 139   0.0000       0.554650        15.0928 
 140   0.0000       0.559204        15.2167 
 141   0.0000       0.560875        15.2622 
 142   0.0000       0.562867        15.3164 
 143   0.0000       0.569741        15.5034 
 144   0.0000       0.572015        15.5653 
 145   0.0000       0.576771        15.6947 
 146   0.0000       0.587615        15.9898 
 147   0.0000       0.592286        16.1169 
 148   0.0000       0.598168        16.2770 
 149   0.0000       0.603119        16.4117 
 150   0.0000       0.607944        16.5430 
 151   0.0000       0.609055        16.5732 
 152   0.0000       0.610045        16.6002 
 153   0.0000       0.617343        16.7988 
 154   0.0000       0.619301        16.8520 
 155   0.0000       0.623687        16.9714 
 156   0.0000       0.626110        17.0373 
 157   0.0000       0.630995        17.1702 
 158   0.0000       0.638692        17.3797 
 159   0.0000       0.642232        17.4760 
 160   0.0000       0.650489        17.7007 
 161   0.0000       0.656095        17.8533 
 162   0.0000       0.666105        18.1256 
 163   0.0000       0.671749        18.2792 
 164   0.0000       0.675043        18.3689 
 165   0.0000       0.677279        18.4297 
 166   0.0000       0.684776        18.6337 
 167   0.0000       0.689127        18.7521 
 168   0.0000       0.693911        18.8823 
 169   0.0000       0.695995        18.9390 
 170   0.0000       0.705672        19.2023 
 171   0.0000       0.707289        19.2463 
 172   0.0000       0.714582        19.4448 
 173   0.0000       0.717511        19.5245 
 174   0.0000       0.726949        19.7813 
 175   0.0000       0.733078        19.9481 
 176   0.0000       0.739690        20.1280 
 177   0.0000       0.744741        20.2654 
 178   0.0000       0.754488        20.5307 
 179   0.0000       0.758521        20.6404 
 180   0.0000       0.770168        20.9573 
 181   0.0000       0.775179        21.0937 
 182   0.0000       0.784666        21.3518 
 183   0.0000       0.800391        21.7797 
 184   0.0000       0.803817        21.8730 
 185   0.0000       0.816473        22.2174 
 186   0.0000       0.824394        22.4329 
 187   0.0000       0.829943        22.5839 
 188   0.0000       0.833111        22.6701 
 189   0.0000       0.837861        22.7993 
 190   0.0000       0.849717        23.1220 
 191   0.0000       0.852230        23.1904 
 192   0.0000       0.861461        23.4415 
 193   0.0000       0.867940        23.6178 
 194   0.0000       0.877941        23.8900 
 195   0.0000       0.880915        23.9709 
 196   0.0000       0.884707        24.0741 
 197   0.0000       0.888155        24.1679 
 198   0.0000       0.904163        24.6035 
 199   0.0000       0.911140        24.7934 
 200   0.0000       0.914294        24.8792 
 201   0.0000       0.926259        25.2048 
 202   0.0000       0.932979        25.3877 
 203   0.0000       0.935154        25.4468 
 204   0.0000       0.939890        25.5757 
 205   0.0000       0.945724        25.7345 
 206   0.0000       0.959100        26.0984 
 207   0.0000       0.962281        26.1850 
 208   0.0000       0.971639        26.4396 
 209   0.0000       0.976088        26.5607 
 210   0.0000       0.987354        26.8673 
 211   0.0000       0.989814        26.9342 
 212   0.0000       1.006719        27.3942 
 213   0.0000       1.008146        27.4330 
 214   0.0000       1.013874        27.5889 
 215   0.0000       1.017810        27.6960 
 216   0.0000       1.023855        27.8605 
 217   0.0000       1.031005        28.0551 
 218   0.0000       1.040436        28.3117 
 219   0.0000       1.045071        28.4378 
 220   0.0000       1.055952        28.7339 
 221   0.0000       1.059820        28.8392 
 222   0.0000       1.064228        28.9591 
 223   0.0000       1.079612        29.3777 
 224   0.0000       1.085350        29.5339 
 225   0.0000       1.094375        29.7795 
 226   0.0000       1.108314        30.1588 
 227   0.0000       1.110350        30.2142 
 228   0.0000       1.117366        30.4051 
 229   0.0000       1.123447        30.5705 
 230   0.0000       1.131719        30.7956 
 231   0.0000       1.135076        30.8870 
 232   0.0000       1.142918        31.1004 
 233   0.0000       1.153953        31.4007 
 234   0.0000       1.158906        31.5354 
 235   0.0000       1.165932        31.7266 
 236   0.0000       1.170744        31.8576 
 237   0.0000       1.174936        31.9716 
 238   0.0000       1.184053        32.2197 
 239   0.0000       1.187434        32.3117 
 240   0.0000       1.191920        32.4338 
 241   0.0000       1.207748        32.8645 
 242   0.0000       1.211134        32.9566 
 243   0.0000       1.212640        32.9976 
 244   0.0000       1.223671        33.2978 
 245   0.0000       1.236267        33.6405 
 246   0.0000       1.242781        33.8178 
 247   0.0000       1.249086        33.9894 
 248   0.0000       1.251225        34.0476 
 249   0.0000       1.262758        34.3614 
 250   0.0000       1.264654        34.4130 
 251   0.0000       1.274859        34.6907 
 252   0.0000       1.281876        34.8816 
 253   0.0000       1.283786        34.9336 
 254   0.0000       1.292838        35.1799 
 255   0.0000       1.307366        35.5752 
 256   0.0000       1.317929        35.8627 
 257   0.0000       1.329047        36.1652 
 258   0.0000       1.334797        36.3217 
 259   0.0000       1.342156        36.5219 
 260   0.0000       1.354613        36.8609 
 261   0.0000       1.360488        37.0208 
 262   0.0000       1.365924        37.1687 
 263   0.0000       1.369403        37.2633 
 264   0.0000       1.381915        37.6038 
 265   0.0000       1.390614        37.8405 
 266   0.0000       1.394264        37.9398 
 267   0.0000       1.403941        38.2032 
 268   0.0000       1.409967        38.3672 
 269   0.0000       1.420210        38.6459 
 270   0.0000       1.427372        38.8408 
 271   0.0000       1.435535        39.0629 
 272   0.0000       1.441662        39.2296 
 273   0.0000       1.453294        39.5461 
 274   0.0000       1.461709        39.7751 
 275   0.0000       1.474131        40.1131 
 276   0.0000       1.476301        40.1722 
 277   0.0000       1.482601        40.3436 
 278   0.0000       1.485765        40.4297 
 279   0.0000       1.493807        40.6486 
 280   0.0000       1.501663        40.8623 
 281   0.0000       1.505205        40.9587 
 282   0.0000       1.509582        41.0778 
 283   0.0000       1.515189        41.2304 
 284   0.0000       1.524127        41.4736 
 285   0.0000       1.531607        41.6771 
 286   0.0000       1.533263        41.7222 
 287   0.0000       1.537010        41.8242 
 288   0.0000       1.548326        42.1321 
 289   0.0000       1.549769        42.1714 
 290   0.0000       1.560088        42.4521 
 291   0.0000       1.564605        42.5751 
 292   0.0000       1.576992        42.9121 
 293   0.0000       1.585877        43.1539 
 294   0.0000       1.588489        43.2250 
 295   0.0000       1.608369        43.7660 
 296   0.0000       1.613403        43.9029 
 297   0.0000       1.614379        43.9295 
 298   0.0000       1.624513        44.2052 
 299   0.0000       1.629130        44.3309 
 300   0.0000       1.635539        44.5053 
 301   0.0000       1.649610        44.8882 
 302   0.0000       1.654835        45.0303 
 303   0.0000       1.672496        45.5109 
 304   0.0000       1.678951        45.6866 
 305   0.0000       1.688084        45.9351 
 306   0.0000       1.691666        46.0326 
 307   0.0000       1.702144        46.3177 
 308   0.0000       1.710783        46.5528 
 309   0.0000       1.719448        46.7886 
 310   0.0000       1.731058        47.1045 
 311   0.0000       1.736483        47.2521 
 312   0.0000       1.739445        47.3327 
 313   0.0000       1.757862        47.8339 
 314   0.0000       1.760912        47.9169 
 315   0.0000       1.780525        48.4505 
 316   0.0000       1.790049        48.7097 
 317   0.0000       1.792097        48.7654 
 318   0.0000       1.804644        49.1069 
 319   0.0000       1.812082        49.3093 
 320   0.0000       1.818780        49.4915 
 321   0.0000       1.826306        49.6963 
 322   0.0000       1.840396        50.0797 
 323   0.0000       1.862459        50.6801 
 324   0.0000       1.865063        50.7510 
 325   0.0000       1.873116        50.9701 
 326   0.0000       1.885175        51.2982 
 327   0.0000       1.910057        51.9753 
 328   0.0000       1.910932        51.9991 
 329   0.0000       1.927289        52.4442 
 330   0.0000       1.935663        52.6721 
 331   0.0000       1.939703        52.7820 
 332   0.0000       1.942462        52.8571 
 333   0.0000       1.956349        53.2350 
 334   0.0000       1.957693        53.2715 
 335   0.0000       1.984257        53.9944 
 336   0.0000       1.991348        54.1873 
 337   0.0000       2.001463        54.4626 
 338   0.0000       2.014202        54.8092 
 339   0.0000       2.024052        55.0773 
 340   0.0000       2.036390        55.4130 
 341   0.0000       2.038967        55.4831 
 342   0.0000       2.060312        56.0639 
 343   0.0000       2.075478        56.4766 
 344   0.0000       2.095151        57.0120 
 345   0.0000       2.115202        57.5576 
 346   0.0000       2.129150        57.9371 
 347   0.0000       2.134020        58.0696 
 348   0.0000       2.153404        58.5971 
 349   0.0000       2.166334        58.9489 
 350   0.0000       2.184348        59.4391 
 351   0.0000       2.205414        60.0124 
 352   0.0000       2.221892        60.4608 
 353   0.0000       2.222450        60.4759 
 354   0.0000       2.233786        60.7844 
 355   0.0000       2.251962        61.2790 
 356   0.0000       2.272786        61.8457 
 357   0.0000       2.282697        62.1153 
 358   0.0000       2.299236        62.5654 
 359   0.0000       2.309877        62.8550 
 360   0.0000       2.314202        62.9726 
 361   0.0000       2.330520        63.4167 
 362   0.0000       2.337800        63.6148 
 363   0.0000       2.351308        63.9823 
 364   0.0000       2.368342        64.4459 
 365   0.0000       2.371750        64.5386 
 366   0.0000       2.379048        64.7372 
 367   0.0000       2.388209        64.9865 
 368   0.0000       2.410363        65.5893 
 369   0.0000       2.433907        66.2300 
 370   0.0000       2.463586        67.0376 
 371   0.0000       2.476180        67.3803 
 372   0.0000       2.478000        67.4298 
 373   0.0000       2.497189        67.9520 
 374   0.0000       2.507467        68.2316 
 375   0.0000       2.512791        68.3765 
 376   0.0000       2.516505        68.4776 
 377   0.0000       2.543871        69.2222 
 378   0.0000       2.547349        69.3169 
 379   0.0000       2.564054        69.7714 
 380   0.0000       2.570243        69.9399 
 381   0.0000       2.577370        70.1338 
 382   0.0000       2.601564        70.7921 
 383   0.0000       2.601902        70.8013 
 384   0.0000       2.617517        71.2262 
 385   0.0000       2.637841        71.7793 
 386   0.0000       2.641035        71.8662 
 387   0.0000       2.647889        72.0527 
 388   0.0000       2.664221        72.4971 
 389   0.0000       2.672807        72.7308 
 390   0.0000       2.691801        73.2476 
 391   0.0000       2.707173        73.6659 
 392   0.0000       2.713053        73.8259 
 393   0.0000       2.722532        74.0839 
 394   0.0000       2.738061        74.5064 
 395   0.0000       2.740144        74.5631 
 396   0.0000       2.749540        74.8188 
 397   0.0000       2.756886        75.0187 
 398   0.0000       2.768827        75.3436 
 399   0.0000       2.781097        75.6775 
 400   0.0000       2.791827        75.9695 
 401   0.0000       2.808675        76.4279 
 402   0.0000       2.810772        76.4850 
 403   0.0000       2.821859        76.7867 
 404   0.0000       2.828970        76.9802 
 405   0.0000       2.836976        77.1980 
 406   0.0000       2.847550        77.4858 
 407   0.0000       2.850538        77.5671 
 408   0.0000       2.861487        77.8650 
 409   0.0000       2.864546        77.9483 
 410   0.0000       2.877918        78.3121 
 411   0.0000       2.897849        78.8545 
 412   0.0000       2.905921        79.0741 
 413   0.0000       2.913434        79.2786 
 414   0.0000       2.921849        79.5076 
 415   0.0000       2.933946        79.8367 
 416   0.0000       2.937263        79.9270 
 417   0.0000       2.947228        80.1982 
 418   0.0000       2.953038        80.3562 
 419   0.0000       2.958514        80.5053 
 420   0.0000       2.970943        80.8435 
 421   0.0000       2.975009        80.9541 
 422   0.0000       2.981642        81.1346 
 423   0.0000       2.989501        81.3484 
 424   0.0000       2.997494        81.5660 
 425   0.0000       3.015719        82.0619 
 426   0.0000       3.020425        82.1899 
 427   0.0000       3.031801        82.4995 
 428   0.0000       3.037218        82.6469 
 429   0.0000       3.043062        82.8059 
 430   0.0000       3.051867        83.0455 
 431   0.0000       3.054071        83.1055 
 432   0.0000       3.057525        83.1995 
 433   0.0000       3.075665        83.6931 
 434   0.0000       3.080834        83.8338 
 435   0.0000       3.084611        83.9365 
 436   0.0000       3.089461        84.0685 
 437   0.0000       3.100350        84.3648 
 438   0.0000       3.105415        84.5026 
 439   0.0000       3.115118        84.7667 
 440   0.0000       3.118563        84.8604 
 441   0.0000       3.125051        85.0370 
 442   0.0000       3.128653        85.1350 
 443   0.0000       3.135879        85.3316 
 444   0.0000       3.148612        85.6781 
 445   0.0000       3.152892        85.7945 
 446   0.0000       3.157787        85.9278 
 447   0.0000       3.162842        86.0653 
 448   0.0000       3.178065        86.4796 
 449   0.0000       3.184527        86.6554 
 450   0.0000       3.197443        87.0068 
 451   0.0000       3.205611        87.2291 
 452   0.0000       3.216181        87.5167 
 453   0.0000       3.220658        87.6386 
 454   0.0000       3.230139        87.8966 
 455   0.0000       3.241455        88.2045 
 456   0.0000       3.245065        88.3027 
 457   0.0000       3.252151        88.4955 
 458   0.0000       3.258963        88.6809 
 459   0.0000       3.264975        88.8445 
 460   0.0000       3.267458        88.9120 
 461   0.0000       3.279166        89.2306 
 462   0.0000       3.284403        89.3732 
 463   0.0000       3.294475        89.6472 
 464   0.0000       3.297173        89.7206 
 465   0.0000       3.305396        89.9444 
 466   0.0000       3.314146        90.1825 
 467   0.0000       3.318812        90.3095 
 468   0.0000       3.331547        90.6560 
 469   0.0000       3.334143        90.7266 
 470   0.0000       3.343328        90.9766 
 471   0.0000       3.349013        91.1313 
 472   0.0000       3.354240        91.2735 
 473   0.0000       3.355639        91.3116 
 474   0.0000       3.363902        91.5364 
 475   0.0000       3.373050        91.7854 
 476   0.0000       3.378673        91.9384 
 477   0.0000       3.389956        92.2454 
 478   0.0000       3.391663        92.2918 
 479   0.0000       3.393390        92.3388 
 480   0.0000       3.401788        92.5673 
 481   0.0000       3.410696        92.8098 
 482   0.0000       3.415985        92.9537 
 483   0.0000       3.417570        92.9968 
 484   0.0000       3.425231        93.2053 
 485   0.0000       3.431595        93.3785 
 486   0.0000       3.434087        93.4462 
 487   0.0000       3.439048        93.5812 
 488   0.0000       3.443964        93.7150 
 489   0.0000       3.445342        93.7525 
 490   0.0000       3.446160        93.7748 
 491   0.0000       3.454637        94.0054 
 492   0.0000       3.461170        94.1832 
 493   0.0000       3.470136        94.4272 
 494   0.0000       3.480961        94.7218 
 495   0.0000       3.484206        94.8101 
 496   0.0000       3.487892        94.9104 
 497   0.0000       3.499728        95.2324 
 498   0.0000       3.504036        95.3497 
 499   0.0000       3.511938        95.5647 
 500   0.0000       3.515151        95.6521 
 501   0.0000       3.525371        95.9302 
 502   0.0000       3.526369        95.9574 
 503   0.0000       3.530887        96.0803 
 504   0.0000       3.542138        96.3865 
 505   0.0000       3.550239        96.6069 
 506   0.0000       3.559297        96.8534 
 507   0.0000       3.568598        97.1065 
 508   0.0000       3.572168        97.2036 
 509   0.0000       3.587964        97.6335 
 510   0.0000       3.596090        97.8546 
 511   0.0000       3.601220        97.9942 
 512   0.0000       3.607419        98.1629 
 513   0.0000       3.621945        98.5581 
 514   0.0000       3.624176        98.6188 
 515   0.0000       3.631572        98.8201 
 516   0.0000       3.635644        98.9309 
 517   0.0000       3.640174        99.0542 
 518   0.0000       3.644220        99.1643 
 519   0.0000       3.645738        99.2056 
 520   0.0000       3.649477        99.3073 
 521   0.0000       3.661810        99.6429 
 522   0.0000       3.663410        99.6865 
 523   0.0000       3.668072        99.8133 
 524   0.0000       3.670614        99.8825 
 525   0.0000       3.683556       100.2346 
 526   0.0000       3.697131       100.6041 
 527   0.0000       3.698146       100.6317 
 528   0.0000       3.705492       100.8316 
 529   0.0000       3.717218       101.1506 
 530   0.0000       3.718777       101.1931 
 531   0.0000       3.727894       101.4411 
 532   0.0000       3.735183       101.6395 
 533   0.0000       3.735923       101.6596 
 534   0.0000       3.750460       102.0552 
 535   0.0000       3.758350       102.2699 
 536   0.0000       3.760063       102.3165 
 537   0.0000       3.762621       102.3861 
 538   0.0000       3.770374       102.5971 
 539   0.0000       3.775725       102.7427 
 540   0.0000       3.785096       102.9977 
 541   0.0000       3.792404       103.1965 
 542   0.0000       3.801633       103.4477 
 543   0.0000       3.806214       103.5724 
 544   0.0000       3.809971       103.6746 
 545   0.0000       3.816977       103.8652 
 546   0.0000       3.823146       104.0331 
 547   0.0000       3.827124       104.1413 
 548   0.0000       3.840653       104.5095 
 549   0.0000       3.851913       104.8159 
 550   0.0000       3.863152       105.1217 
 551   0.0000       3.870912       105.3329 
 552   0.0000       3.873102       105.3925 
 553   0.0000       3.880377       105.5904 
 554   0.0000       3.887904       105.7953 
 555   0.0000       3.903200       106.2115 
 556   0.0000       3.907902       106.3394 
 557   0.0000       3.913861       106.5016 
 558   0.0000       3.920739       106.6887 
 559   0.0000       3.942070       107.2692 
 560   0.0000       3.945659       107.3668 
 561   0.0000       3.951967       107.5385 
 562   0.0000       3.957163       107.6799 
 563   0.0000       3.973513       108.1248 
 564   0.0000       3.977938       108.2452 
 565   0.0000       3.989007       108.5464 
 566   0.0000       4.002083       108.9022 
 567   0.0000       4.007254       109.0429 
 568   0.0000       4.015294       109.2617 
 569   0.0000       4.019422       109.3740 
 570   0.0000       4.031312       109.6976 
 571   0.0000       4.036764       109.8459 
 572   0.0000       4.048558       110.1669 
 573   0.0000       4.055553       110.3572 
 574   0.0000       4.061688       110.5241 
 575   0.0000       4.072009       110.8050 
 576   0.0000       4.078439       110.9800 
 577   0.0000       4.080745       111.0427 
 578   0.0000       4.094118       111.4066 
 579   0.0000       4.102009       111.6214 
 580   0.0000       4.110534       111.8533 
 581   0.0000       4.113566       111.9358 
 582   0.0000       4.131863       112.4337 
 583   0.0000       4.141425       112.6939 
 584   0.0000       4.147859       112.8690 
 585   0.0000       4.152921       113.0067 
 586   0.0000       4.160255       113.2063 
 587   0.0000       4.166690       113.3814 
 588   0.0000       4.167856       113.4131 
 589   0.0000       4.178137       113.6929 
 590   0.0000       4.181502       113.7845 
 591   0.0000       4.185264       113.8868 
 592   0.0000       4.197660       114.2241 
 593   0.0000       4.203218       114.3754 
 594   0.0000       4.207452       114.4906 
 595   0.0000       4.217176       114.7552 
 596   0.0000       4.223176       114.9185 
 597   0.0000       4.230024       115.1048 
 598   0.0000       4.236623       115.2844 
 599   0.0000       4.241064       115.4052 
 600   0.0000       4.250475       115.6613 
 601   0.0000       4.255628       115.8015 
 602   0.0000       4.264576       116.0450 
 603   0.0000       4.269470       116.1782 
 604   0.0000       4.290234       116.7432 
 605   0.0000       4.309439       117.2658 
 606   0.0000       4.317776       117.4927 
 607   0.0000       4.325799       117.7110 
 608   0.0000       4.329397       117.8089 
 609   0.0000       4.331852       117.8757 
 610   0.0000       4.340712       118.1168 
 611   0.0000       4.351770       118.4177 
 612   0.0000       4.356718       118.5523 
 613   0.0000       4.361484       118.6820 
 614   0.0000       4.371602       118.9573 
 615   0.0000       4.387988       119.4032 
 616   0.0000       4.391375       119.4954 
 617   0.0000       4.396218       119.6272 
 618   0.0000       4.404873       119.8627 
 619   0.0000       4.411125       120.0328 
 620   0.0000       4.419262       120.2542 
 621   0.0000       4.429342       120.5285 
 622   0.0000       4.431286       120.5814 
 623   0.0000       4.444902       120.9519 
 624   0.0000       4.455315       121.2353 
 625   0.0000       4.457522       121.2953 
 626   0.0000       4.459858       121.3589 
 627   0.0000       4.479242       121.8864 
 628   0.0000       4.484487       122.0291 
 629   0.0000       4.497299       122.3777 
 630   0.0000       4.509290       122.7040 
 631   0.0000       4.511087       122.7529 
 632   0.0000       4.518270       122.9484 
 633   0.0000       4.522473       123.0628 
 634   0.0000       4.543154       123.6255 
 635   0.0000       4.547775       123.7512 
 636   0.0000       4.560648       124.1015 
 637   0.0000       4.562358       124.1481 
 638   0.0000       4.574316       124.4735 
 639   0.0000       4.583158       124.7141 
 640   0.0000       4.598177       125.1228 
 641   0.0000       4.606855       125.3589 
 642   0.0000       4.611033       125.4726 
 643   0.0000       4.616146       125.6117 
 644   0.0000       4.622593       125.7872 
 645   0.0000       4.628740       125.9544 
 646   0.0000       4.633298       126.0785 
 647   0.0000       4.643110       126.3454 
 648   0.0000       4.646334       126.4332 
 649   0.0000       4.657741       126.7436 
 650   0.0000       4.661382       126.8426 
 651   0.0000       4.663689       126.9054 
 652   0.0000       4.675681       127.2317 
 653   0.0000       4.685989       127.5122 
 654   0.0000       4.693876       127.7268 
 655   0.0000       4.706905       128.0814 
 656   0.0000       4.724238       128.5531 
 657   0.0000       4.728338       128.6646 
 658   0.0000       4.744435       129.1026 
 659   0.0000       4.753416       129.3470 
 660   0.0000       4.765502       129.6759 
 661   0.0000       4.770384       129.8087 
 662   0.0000       4.782428       130.1365 
 663   0.0000       4.794819       130.4736 
 664   0.0000       4.815322       131.0316 
 665   0.0000       4.830707       131.4502 
 666   0.0000       4.844374       131.8221 
 667   0.0000       4.865031       132.3842 
 668   0.0000       4.867195       132.4431 
 669   0.0000       4.877045       132.7111 
 670   0.0000       4.907832       133.5489 
 671   0.0000       4.932129       134.2101 
 672   0.0000       4.944349       134.5426 
 673   0.0000       4.959896       134.9656 
 674   0.0000       4.968769       135.2071 
 675   0.0000       4.994663       135.9117 
 676   0.0000       5.015949       136.4909 
 677   0.0000       5.018966       136.5730 
 678   0.0000       5.027085       136.7940 
 679   0.0000       5.046048       137.3099 
 680   0.0000       5.053725       137.5189 
 681   0.0000       5.067881       137.9040 
 682   0.0000       5.072305       138.0244 
 683   0.0000       5.098082       138.7259 
 684   0.0000       5.105680       138.9326 
 685   0.0000       5.114881       139.1830 
 686   0.0000       5.126133       139.4892 
 687   0.0000       5.136618       139.7745 
 688   0.0000       5.147569       140.0725 
 689   0.0000       5.164528       140.5339 
 690   0.0000       5.174838       140.8145 
 691   0.0000       5.186891       141.1425 
 692   0.0000       5.190122       141.2304 
 693   0.0000       5.197143       141.4214 
 694   0.0000       5.212271       141.8331 
 695   0.0000       5.215196       141.9127 
 696   0.0000       5.220306       142.0517 
 697   0.0000       5.227438       142.2458 
 698   0.0000       5.240162       142.5921 
 699   0.0000       5.249751       142.8530 
 700   0.0000       5.271784       143.4525 
 701   0.0000       5.285208       143.8178 
 702   0.0000       5.296568       144.1269 
 703   0.0000       5.309928       144.4905 
 704   0.0000       5.325024       144.9013 
 705   0.0000       5.330186       145.0417 
 706   0.0000       5.354812       145.7118 
 707   0.0000       5.370586       146.1411 
 708   0.0000       5.375579       146.2769 
 709   0.0000       5.382859       146.4750 
 710   0.0000       5.389348       146.6516 
 711   0.0000       5.397592       146.8760 
 712   0.0000       5.429667       147.7487 
 713   0.0000       5.453362       148.3935 
 714   0.0000       5.474432       148.9669 
 715   0.0000       5.480093       149.1209 
 716   0.0000       5.491471       149.4305 
 717   0.0000       5.510789       149.9562 
 718   0.0000       5.517938       150.1507 
 719   0.0000       5.524755       150.3362 
 720   0.0000       5.542949       150.8313 
 721   0.0000       5.553361       151.1146 
 722   0.0000       5.559736       151.2881 
 723   0.0000       5.572659       151.6398 
 724   0.0000       5.582254       151.9009 
 725   0.0000       5.610026       152.6566 
 726   0.0000       5.615137       152.7956 
 727   0.0000       5.624336       153.0460 
 728   0.0000       5.637879       153.4145 
 729   0.0000       5.644626       153.5981 
 730   0.0000       5.657251       153.9416 
 731   0.0000       5.669607       154.2778 
 732   0.0000       5.698974       155.0770 
 733   0.0000       5.703627       155.2036 
 734   0.0000       5.710353       155.3866 
 735   0.0000       5.722988       155.7304 
 736   0.0000       5.731708       155.9677 
 737   0.0000       5.738626       156.1559 
 738   0.0000       5.749214       156.4441 
 739   0.0000       5.756421       156.6402 
 740   0.0000       5.774848       157.1416 
 741   0.0000       5.803004       157.9078 
 742   0.0000       5.811951       158.1512 
 743   0.0000       5.816257       158.2684 
 744   0.0000       5.825944       158.5320 
 745   0.0000       5.833079       158.7261 
 746   0.0000       5.855746       159.3430 
 747   0.0000       5.866087       159.6243 
 748   0.0000       5.902239       160.6081 
 749   0.0000       5.943673       161.7356 
 750   0.0000       5.969663       162.4428 
 751   0.0000       5.976978       162.6418 
 752   0.0000       5.986404       162.8983 
 753   0.0000       6.002197       163.3281 
 754   0.0000       6.019605       163.8018 
 755   0.0000       6.039807       164.3515 
 756   0.0000       6.044034       164.4665 
 757   0.0000       6.061814       164.9503 
 758   0.0000       6.064399       165.0207 
 759   0.0000       6.095209       165.8591 
 760   0.0000       6.096948       165.9064 
 761   0.0000       6.155008       167.4863 
 762   0.0000       6.217514       169.1872 
 763   0.0000       6.229977       169.5263 
 764   0.0000       6.293464       171.2539 
 765   0.0000       6.297190       171.3553 
 766   0.0000       6.306930       171.6203 
 767   0.0000       6.331360       172.2851 
 768   0.0000       6.342164       172.5791 
 769   0.0000       6.351310       172.8279 
 770   0.0000       6.377361       173.5368 
 771   0.0000       6.384873       173.7412 
 772   0.0000       6.409200       174.4032 
 773   0.0000       6.459848       175.7814 
 774   0.0000       6.462060       175.8416 
 775   0.0000       6.471445       176.0970 
 776   0.0000       6.507160       177.0688 
 777   0.0000       6.553865       178.3397 
 778   0.0000       6.582694       179.1242 
 779   0.0000       6.611722       179.9141 
 780   0.0000       6.670612       181.5166 
 781   0.0000       6.695349       182.1897 
 782   0.0000       6.727935       183.0764 
 783   0.0000       6.784406       184.6131 
 784   0.0000       6.808046       185.2563 
 785   0.0000       6.888975       187.4585 
 786   0.0000       6.910732       188.0506 
 787   0.0000       6.920584       188.3187 
 788   0.0000       6.958619       189.3537 
 789   0.0000       7.029477       191.2818 
 790   0.0000       7.049633       191.8303 
 791   0.0000       7.060529       192.1268 
 792   0.0000       7.079861       192.6528 
 793   0.0000       7.118691       193.7094 
 794   0.0000       7.250144       197.2864 
 795   0.0000       7.268974       197.7989 
 796   0.0000       7.270551       197.8417 
 797   0.0000       7.280856       198.1222 
 798   0.0000       7.346658       199.9127 
 799   0.0000       7.388538       201.0523 
 800   0.0000       7.414291       201.7531 
 801   0.0000       7.581213       206.2953 
 802   0.0000       7.588339       206.4892 
 803   0.0000       7.607063       206.9987 
 804   0.0000       7.674072       208.8221 
 805   0.0000       7.822238       212.8539 
 806   0.0000       7.837335       213.2647 
 807   0.0000       7.903323       215.0603 
 808   0.0000       7.932660       215.8586 
 809   0.0000       9.458970       257.3917 
 810   0.0000       9.508556       258.7410 
 811   0.0000      10.731314       292.0139 
 812   0.0000      11.361739       309.1686 
 813   0.0000      11.915586       324.2396 
 814   0.0000      12.578918       342.2898 
 815   0.0000      12.926788       351.7558 
 816   0.0000      12.969682       352.9230 
 817   0.0000      13.073183       355.7394 
 818   0.0000      13.168134       358.3232 
 819   0.0000      13.389878       364.3571 
 820   0.0000      13.537716       368.3800 
 821   0.0000      13.733839       373.7168 
 822   0.0000      13.917780       378.7221 
 823   0.0000      14.036853       381.9622 
 824   0.0000      14.201107       386.4318 
 825   0.0000      14.513613       394.9355 
 826   0.0000      14.650458       398.6592 
 827   0.0000      16.000756       435.4027 

                    ********************************
                    * MULLIKEN POPULATION ANALYSIS *
                    ********************************

-----------------------
MULLIKEN ATOMIC CHARGES
-----------------------
   0 C :   -0.328042
   1 C :    0.027446
   2 O :   -0.381370
   3 C :    0.455210
   4 O :   -0.416187
   5 C :   -0.226881
   6 C :    0.166045
   7 C :   -0.266207
   8 N :   -0.125094
   9 C :    0.206398
  10 S :   -0.437768
  11 N :   -0.211521
  12 C :    0.049591
  13 C :   -0.000011
  14 C :   -0.167083
  15 C :   -0.141353
  16 C :   -0.267963
  17 C :    0.304445
  18 O :   -0.359395
  19 C :   -0.228176
  20 H :    0.115757
  21 H :    0.109787
  22 H :    0.109977
  23 H :    0.113062
  24 H :    0.122654
  25 H :    0.133062
  26 H :    0.094436
  27 H :    0.130343
  28 H :    0.200377
  29 H :    0.199770
  30 H :    0.154409
  31 H :    0.161272
  32 H :    0.163833
  33 H :    0.133030
  34 H :    0.240728
  35 H :    0.165418
Sum of atomic charges:   -0.0000000

--------------------------------
MULLIKEN REDUCED ORBITAL CHARGES
--------------------------------
  0 C s       :     3.273960  s :     3.273960
      pz      :     1.001201  p :     2.976808
      px      :     0.959725
      py      :     1.015882
      dz2     :     0.021751  d :     0.072886
      dxz     :     0.010844
      dyz     :     0.010933
      dx2y2   :     0.008139
      dxy     :     0.021219
      f0      :     0.001029  f :     0.004388
      f+1     :     0.000600
      f-1     :     0.000358
      f+2     :     0.000457
      f-2     :     0.000472
      f+3     :     0.000565
      f-3     :     0.000906
  1 C s       :     3.159749  s :     3.159749
      pz      :     1.030959  p :     2.642516
      px      :     0.740201
      py      :     0.871356
      dz2     :     0.034723  d :     0.158640
      dxz     :     0.027320
      dyz     :     0.023249
      dx2y2   :     0.035656
      dxy     :     0.037693
      f0      :     0.002114  f :     0.011648
      f+1     :     0.001281
      f-1     :     0.000759
      f+2     :     0.000574
      f-2     :     0.002188
      f+3     :     0.002391
      f-3     :     0.002341
  2 O s       :     3.724039  s :     3.724039
      pz      :     1.829807  p :     4.622577
      px      :     1.554110
      py      :     1.238660
      dz2     :     0.004028  d :     0.032469
      dxz     :     0.002762
      dyz     :     0.006038
      dx2y2   :     0.011264
      dxy     :     0.008378
      f0      :     0.000294  f :     0.002286
      f+1     :     0.000208
      f-1     :     0.000474
      f+2     :     0.000265
      f-2     :     0.000163
      f+3     :     0.000380
      f-3     :     0.000503
  3 C s       :     3.031714  s :     3.031714
      pz      :     0.820485  p :     2.196843
      px      :     0.642656
      py      :     0.733702
      dz2     :     0.073562  d :     0.289577
      dxz     :     0.047575
      dyz     :     0.089265
      dx2y2   :     0.034386
      dxy     :     0.044790
      f0      :     0.005557  f :     0.026655
      f+1     :     0.002733
      f-1     :     0.006390
      f+2     :     0.004486
      f-2     :     0.002628
      f+3     :     0.002906
      f-3     :     0.001956
  4 O s       :     3.773699  s :     3.773699
      pz      :     1.391420  p :     4.605033
      px      :     1.419033
      py      :     1.794581
      dz2     :     0.012897  d :     0.035042
      dxz     :     0.011205
      dyz     :     0.007482
      dx2y2   :     0.001908
      dxy     :     0.001549
      f0      :     0.000683  f :     0.002413
      f+1     :     0.000591
      f-1     :     0.000567
      f+2     :     0.000247
      f-2     :     0.000264
      f+3     :     0.000028
      f-3     :     0.000033
  5 C s       :     3.189366  s :     3.189366
      pz      :     0.927351  p :     2.945359
      px      :     1.154839
      py      :     0.863169
      dz2     :     0.011818  d :     0.082084
      dxz     :     0.010471
      dyz     :     0.033301
      dx2y2   :     0.007514
      dxy     :     0.018980
      f0      :     0.000952  f :     0.010072
      f+1     :     0.001143
      f-1     :     0.001979
      f+2     :     0.002130
      f-2     :     0.000848
      f+3     :     0.001736
      f-3     :     0.001284
  6 C s       :     3.188398  s :     3.188398
      pz      :     0.838878  p :     2.452906
      px      :     0.791496
      py      :     0.822531
      dz2     :     0.034084  d :     0.178205
      dxz     :     0.020088
      dyz     :     0.048518
      dx2y2   :     0.017888
      dxy     :     0.057628
      f0      :     0.001931  f :     0.014446
      f+1     :     0.001144
      f-1     :     0.002762
      f+2     :     0.002794
      f-2     :     0.002060
      f+3     :     0.002450
      f-3     :     0.001306
  7 C s       :     3.268202  s :     3.268202
      pz      :     0.926884  p :     2.924584
      px      :     1.030068
      py      :     0.967632
      dz2     :     0.015958  d :     0.068768
      dxz     :     0.015769
      dyz     :     0.010660
      dx2y2   :     0.018283
      dxy     :     0.008099
      f0      :     0.000349  f :     0.004652
      f+1     :     0.001118
      f-1     :     0.000846
      f+2     :     0.000728
      f-2     :     0.000609
      f+3     :     0.000157
      f-3     :     0.000846
  8 N s       :     3.343888  s :     3.343888
      pz      :     1.208530  p :     3.717062
      px      :     1.434724
      py      :     1.073808
      dz2     :     0.014383  d :     0.059195
      dxz     :     0.010272
      dyz     :     0.014156
      dx2y2   :     0.012277
      dxy     :     0.008106
      f0      :     0.000619  f :     0.004949
      f+1     :     0.001094
      f-1     :     0.000604
      f+2     :     0.000931
      f-2     :     0.000931
      f+3     :     0.000307
      f-3     :     0.000463
  9 C s       :     3.159217  s :     3.159217
      pz      :     0.781208  p :     2.354534
      px      :     0.728395
      py      :     0.844931
      dz2     :     0.062343  d :     0.262249
      dxz     :     0.032201
      dyz     :     0.055134
      dx2y2   :     0.056359
      dxy     :     0.056213
      f0      :     0.002780  f :     0.017601
      f+1     :     0.002177
      f-1     :     0.002541
      f+2     :     0.003438
      f-2     :     0.001604
      f+3     :     0.002731
      f-3     :     0.002330
 10 S s       :     5.855324  s :     5.855324
      pz      :     3.447355  p :    10.487426
      px      :     3.558351
      py      :     3.481721
      dz2     :     0.010914  d :     0.084895
      dxz     :     0.012013
      dyz     :     0.033780
      dx2y2   :     0.007662
      dxy     :     0.020525
      f0      :     0.001082  f :     0.010123
      f+1     :     0.000553
      f-1     :     0.002096
      f+2     :     0.001582
      f-2     :     0.002888
      f+3     :     0.001184
      f-3     :     0.000739
 11 N s       :     3.382912  s :     3.382912
      pz      :     1.316533  p :     3.766236
      px      :     1.440318
      py      :     1.009385
      dz2     :     0.008566  d :     0.057939
      dxz     :     0.007492
      dyz     :     0.015187
      dx2y2   :     0.011742
      dxy     :     0.014952
      f0      :     0.000352  f :     0.004434
      f+1     :     0.000574
      f-1     :     0.000591
      f+2     :     0.000689
      f-2     :     0.000640
      f+3     :     0.000804
      f-3     :     0.000784
 12 C s       :     3.132857  s :     3.132857
      pz      :     0.838354  p :     2.620762
      px      :     0.939130
      py      :     0.843279
      dz2     :     0.033160  d :     0.185389
      dxz     :     0.035063
      dyz     :     0.040194
      dx2y2   :     0.028572
      dxy     :     0.048399
      f0      :     0.001194  f :     0.011401
      f+1     :     0.001261
      f-1     :     0.001840
      f+2     :     0.002010
      f-2     :     0.002578
      f+3     :     0.001189
      f-3     :     0.001329
 13 C s       :     3.124422  s :     3.124422
      pz      :     0.899561  p :     2.753454
      px      :     0.922297
      py      :     0.931596
      dz2     :     0.018324  d :     0.110813
      dxz     :     0.010824
      dyz     :     0.031440
      dx2y2   :     0.021749
      dxy     :     0.028476
      f0      :     0.001087  f :     0.011322
      f+1     :     0.001566
      f-1     :     0.001144
[...]
      f-1     :     0.005082
      f+2     :     0.007230
      f-2     :     0.005024
      f+3     :     0.007030
      f-3     :     0.008576
 15 C s       :     2.705522  s :     2.705522
      pz      :     0.899642  p :     2.797866
      px      :     0.930313
      py      :     0.967911
      dz2     :     0.094140  d :     0.416470
      dxz     :     0.069235
      dyz     :     0.058491
      dx2y2   :     0.109715
      dxy     :     0.084889
      f0      :     0.003133  f :     0.041038
      f+1     :     0.005232
      f-1     :     0.006187
      f+2     :     0.007143
      f-2     :     0.006349
      f+3     :     0.006756
      f-3     :     0.006238
 16 C s       :     2.701740  s :     2.701740
      pz      :     0.936518  p :     2.868027
      px      :     0.958076
      py      :     0.973432
      dz2     :     0.044792  d :     0.390780
      dxz     :     0.055584
      dyz     :     0.089458
      dx2y2   :     0.093881
      dxy     :     0.107065
      f0      :     0.004404  f :     0.040307
      f+1     :     0.004565
      f-1     :     0.003844
      f+2     :     0.006166
      f-2     :     0.005268
      f+3     :     0.008836
      f-3     :     0.007222
 17 C s       :     2.701395  s :     2.701395
      pz      :     0.844524  p :     2.683090
      px      :     0.820425
      py      :     1.018141
      dz2     :     0.127246  d :     0.708608
      dxz     :     0.106852
      dyz     :     0.142826
      dx2y2   :     0.163592
      dxy     :     0.168093
      f0      :     0.009656  f :     0.099249
      f+1     :     0.015670
      f-1     :     0.009670
      f+2     :     0.016174
      f-2     :     0.014724
      f+3     :     0.016814
      f-3     :     0.016540
 18 O s       :     3.177098  s :     3.177098
      pz      :     1.432196  p :     4.346039
      px      :     1.416634
      py      :     1.497209
      dz2     :     0.008345  d :     0.075560
      dxz     :     0.017316
      dyz     :     0.018284
      dx2y2   :     0.015156
      dxy     :     0.016459
      f0      :     0.000604  f :     0.005064
      f+1     :     0.000728
      f-1     :     0.000382
      f+2     :     0.000738
      f-2     :     0.001006
      f+3     :     0.000733
      f-3     :     0.000873
 19 C s       :     2.695281  s :     2.695281
      pz      :     0.929863  p :     2.842462
      px      :     0.946682
      py      :     0.965917
      dz2     :     0.076279  d :     0.388718
      dxz     :     0.067525
      dyz     :     0.062133
      dx2y2   :     0.095819
      dxy     :     0.086962
      f0      :     0.003215  f :     0.040868
      f+1     :     0.005415
      f-1     :     0.005739
      f+2     :     0.007150
      f-2     :     0.006968
      f+3     :     0.006557
      f-3     :     0.005824
 20 H s       :     0.841694  s :     0.841694
      pz      :     0.076258  p :     0.158980
      px      :     0.040018
      py      :     0.042704
      dz2     :     0.009374  d :     0.027896
      dxz     :     0.008274
      dyz     :     0.008947
      dx2y2   :     0.000336
      dxy     :     0.000965
 21 H s       :     0.844360  s :     0.844360
      pz      :     0.040959  p :     0.152066
      px      :     0.057810
      py      :     0.053298
      dz2     :     0.002512  d :     0.027553
      dxz     :     0.005098
      dyz     :     0.004132
      dx2y2   :     0.009069
      dxy     :     0.006742
 22 H s       :     0.846387  s :     0.846387
      pz      :     0.046824  p :     0.153455
      px      :     0.042321
      py      :     0.064311
      dz2     :     0.005312  d :     0.027591
      dxz     :     0.002413
      dyz     :     0.006388
      dx2y2   :     0.006130
      dxy     :     0.007348
 23 H s       :     0.854208  s :     0.854208
      pz      :     0.047618  p :     0.143706
      px      :     0.030515
      py      :     0.065574
      dz2     :     0.005490  d :     0.026825
      dxz     :     0.001367
      dyz     :     0.007515
      dx2y2   :     0.006072
      dxy     :     0.006381
 24 H s       :     0.854459  s :     0.854459
      pz      :     0.079134  p :     0.146640
      px      :     0.033151
      py      :     0.034354
      dz2     :     0.009496  d :     0.027067
      dxz     :     0.007847
      dyz     :     0.008515
      dx2y2   :     0.000358
      dxy     :     0.000851
 25 H s       :     0.824649  s :     0.824649
      pz      :     0.062764  p :     0.151659
      px      :     0.050088
      py      :     0.038807
      dz2     :     0.008511  d :     0.027767
      dxz     :     0.007059
      dyz     :     0.006002
      dx2y2   :     0.003518
      dxy     :     0.002677
 26 H s       :     0.845228  s :     0.845228
      pz      :     0.037058  p :     0.150484
      px      :     0.041577
      py      :     0.071849
      dz2     :     0.002621  d :     0.027726
      dxz     :     0.000529
      dyz     :     0.008420
      dx2y2   :     0.006805
      dxy     :     0.009351
 27 H s       :     0.826961  s :     0.826961
      pz      :     0.039982  p :     0.150450
      px      :     0.067629
      py      :     0.042839
      dz2     :     0.002809  d :     0.027785
      dxz     :     0.008031
      dyz     :     0.001522
      dx2y2   :     0.008371
      dxy     :     0.007053
 28 H s       :     0.741502  s :     0.741502
      pz      :     0.057420  p :     0.253430
      px      :     0.076250
      py      :     0.119759
      dz2     :     0.005983  d :     0.061795
      dxz     :     0.000707
      dyz     :     0.018251
      dx2y2   :     0.015563
      dxy     :     0.021291
 29 H s       :     0.748213  s :     0.748213
      pz      :     0.112840  p :     0.254011
      px      :     0.096617
      py      :     0.044553
      dz2     :     0.021128  d :     0.061418
      dxz     :     0.015298
      dyz     :     0.010877
      dx2y2   :     0.007818
      dxy     :     0.006296
 30 H s       :     0.828802  s :     0.828802
      pz      :     0.044211  p :     0.153577
      px      :     0.063465
      py      :     0.045902
      dz2     :     0.003810  d :     0.029345
      dxz     :     0.007377
      dyz     :     0.003886
      dx2y2   :     0.007122
      dxy     :     0.007150
 31 H s       :     0.843019  s :     0.843019
      pz      :     0.054236  p :     0.156363
      px      :     0.065042
      py      :     0.037085
      dz2     :     0.005327  d :     0.027532
      dxz     :     0.006822
      dyz     :     0.003559
      dx2y2   :     0.005838
      dxy     :     0.005986
 32 H s       :     0.842757  s :     0.842757
      pz      :     0.037031  p :     0.151328
      px      :     0.039085
      py      :     0.075212
      dz2     :     0.002623  d :     0.026456
      dxz     :     0.000691
      dyz     :     0.007309
      dx2y2   :     0.007832
      dxy     :     0.008002
 33 H s       :     0.848127  s :     0.848127
      pz      :     0.057600  p :     0.158864
      px      :     0.049454
      py      :     0.051810
      dz2     :     0.006048  d :     0.027734
      dxz     :     0.004807
      dyz     :     0.005977
      dx2y2   :     0.005692
      dxy     :     0.005210
 34 H s       :     0.706245  s :     0.706245
      pz      :     0.112181  p :     0.347580
      px      :     0.087350
      py      :     0.148049
      dz2     :     0.022821  d :     0.099525
      dxz     :     0.011535
      dyz     :     0.024130
      dx2y2   :     0.020744
      dxy     :     0.020295
 35 H s       :     0.838092  s :     0.838092
      pz      :     0.039328  p :     0.156311
      px      :     0.040626
      py      :     0.076357
      dz2     :     0.002628  d :     0.027899
      dxz     :     0.000740
      dyz     :     0.008033
      dx2y2   :     0.008070
      dxy     :     0.008429


                      *****************************
                      * MAYER POPULATION ANALYSIS *
                      *****************************

  NA   - Mulliken gross atomic population
  ZA   - Total nuclear charge
  QA   - Mulliken gross atomic charge
  VA   - Mayer's total valence
  BVA  - Mayer's bonded valence
  FA   - Mayer's free valence

  ATOM       NA         ZA         QA         VA         BVA        FA
  0 C      6.3280     6.0000    -0.3280     3.8667     3.8667    -0.0000
  1 C      5.9726     6.0000     0.0274     3.8521     3.8521    -0.0000
  2 O      8.3814     8.0000    -0.3814     2.0041     2.0041    -0.0000
  3 C      5.5448     6.0000     0.4552     4.2563     4.2563    -0.0000
  4 O      8.4162     8.0000    -0.4162     2.0942     2.0942    -0.0000
  5 C      6.2269     6.0000    -0.2269     3.6369     3.6369    -0.0000
  6 C      5.8340     6.0000     0.1660     3.8480     3.8480    -0.0000
  7 C      6.2662     6.0000    -0.2662     3.9058     3.9058     0.0000
  8 N      7.1251     7.0000    -0.1251     3.3049     3.3049     0.0000
  9 C      5.7936     6.0000     0.2064     4.1568     4.1568     0.0000
 10 S     16.4378    16.0000    -0.4378     1.7605     1.7605    -0.0000
 11 N      7.2115     7.0000    -0.2115     3.2455     3.2455     0.0000
 12 C      5.9504     6.0000     0.0496     3.9185     3.9185     0.0000
 13 C      6.0000     6.0000    -0.0000     3.7586     3.7586     0.0000
 14 C      6.1671     6.0000    -0.1671     3.8339     3.8339    -0.0000
 15 C      6.1414     6.0000    -0.1414     3.7968     3.7968    -0.0000
 16 C      6.2680     6.0000    -0.2680     3.7889     3.7889    -0.0000
 17 C      5.6956     6.0000     0.3044     3.8679     3.8679    -0.0000
 18 O      8.3594     8.0000    -0.3594     2.1160     2.1160    -0.0000
 19 C      6.2282     6.0000    -0.2282     3.8304     3.8304    -0.0000
 20 H      0.8842     1.0000     0.1158     0.9698     0.9698    -0.0000
 21 H      0.8902     1.0000     0.1098     0.9852     0.9852     0.0000
 22 H      0.8900     1.0000     0.1100     0.9826     0.9826    -0.0000
 23 H      0.8869     1.0000     0.1131     0.9781     0.9781    -0.0000
 24 H      0.8773     1.0000     0.1227     0.9821     0.9821    -0.0000
 25 H      0.8669     1.0000     0.1331     0.9798     0.9798    -0.0000
 26 H      0.9056     1.0000     0.0944     0.9851     0.9851     0.0000
 27 H      0.8697     1.0000     0.1303     0.9797     0.9797     0.0000
 28 H      0.7996     1.0000     0.2004     1.0204     1.0204     0.0000
 29 H      0.8002     1.0000     0.1998     1.0153     1.0153     0.0000
 30 H      0.8456     1.0000     0.1544     0.9877     0.9877    -0.0000
 31 H      0.8387     1.0000     0.1613     0.9843     0.9843    -0.0000
 32 H      0.8362     1.0000     0.1638     0.9761     0.9761    -0.0000
 33 H      0.8670     1.0000     0.1330     0.9903     0.9903     0.0000
 34 H      0.7593     1.0000     0.2407     1.0107     1.0107    -0.0000
 35 H      0.8346     1.0000     0.1654     0.9890     0.9890     0.0000

  Mayer bond orders larger than 0.100000
B(  0-C ,  1-C ) :   0.9545 B(  0-C , 20-H ) :   0.9680 B(  0-C , 21-H ) :   0.9778 
B(  0-C , 22-H ) :   0.9742 B(  1-C ,  2-O ) :   0.8907 B(  1-C , 23-H ) :   0.9808 
B(  1-C , 24-H ) :   0.9859 B(  2-O ,  3-C ) :   1.1125 B(  3-C ,  4-O ) :   2.0081 
B(  3-C ,  5-C ) :   1.0637 B(  5-C ,  6-C ) :   1.6278 B(  5-C , 12-C ) :   0.9580 
B(  6-C ,  7-C ) :   0.9672 B(  6-C ,  8-N ) :   1.1520 B(  7-C , 25-H ) :   0.9562 
B(  7-C , 26-H ) :   0.9896 B(  7-C , 27-H ) :   0.9635 B(  8-N ,  9-C ) :   1.1850 
B(  8-N , 28-H ) :   0.9466 B(  9-C , 10-S ) :   1.6136 B(  9-C , 11-N ) :   1.3049 
B( 11-N , 12-C ) :   0.9725 B( 11-N , 29-H ) :   0.9487 B( 12-C , 13-C ) :   0.9557 
B( 12-C , 30-H ) :   1.0029 B( 13-C , 14-C ) :   1.3641 B( 13-C , 19-C ) :   1.3748 
B( 14-C , 15-C ) :   1.3885 B( 14-C , 31-H ) :   0.9678 B( 15-C , 16-C ) :   1.3590 
B( 15-C , 32-H ) :   0.9702 B( 16-C , 17-C ) :   1.3342 B( 16-C , 33-H ) :   0.9840 
B( 17-C , 18-O ) :   1.1065 B( 17-C , 19-C ) :   1.3639 B( 18-O , 34-H ) :   0.9796 
B( 19-C , 35-H ) :   0.9610 

-------
TIMINGS
-------

Total SCF time: 0 days 2 hours 8 min 41 sec 

Total time                  ....    7721.313 sec
Sum of individual times     ....    7711.910 sec  ( 99.9%)

Fock matrix formation       ....    7663.754 sec  ( 99.3%)
Diagonalization             ....       9.685 sec  (  0.1%)
Density matrix formation    ....       0.301 sec  (  0.0%)
Population analysis         ....       0.648 sec  (  0.0%)
Initial guess               ....       6.566 sec  (  0.1%)
Orbital Transformation      ....       0.000 sec  (  0.0%)
Orbital Orthonormalization  ....       0.000 sec  (  0.0%)
DIIS solution               ....      23.695 sec  (  0.3%)
SOSCF solution              ....       5.562 sec  (  0.1%)

------------------------------------------------------------------------------
                                ORCA  MP2 
------------------------------------------------------------------------------

Freezing NCore=48 chemical core electrons

-------------
RI-MP2 ENERGY
-------------
Dimension of the basis                    ...  828
Memory devoted to MP2                     ...  256 MB   
Data format for buffers                   ... DOUBLE
Compression type for matrix containers    ... UNCOMPRESSED
Overall scaling of the MP2 energy         ...   1.000e+00
Calculating two index integrals           ... done (    0.032 sec)
Cholesky decomposition of V**-1           ... done (    1.573 sec)

-----------------
RI-TRANSFORMATION (AUX index driven)
-----------------

Dimension of the orbital-basis         ... 828
Dimension of the aux-basis             ... 2141
Transformation of internal/external MOs...   24-  76 to   77- 827
Number Format for Storage              ... Double (8 Byte)
Integral mode                          ... Direct

First Phase: integral generation and transformation of MO indices
  Aux angular momentum 0               ... done (    8.059 sec)
  Aux angular momentum 1               ... done (   14.145 sec)
  Aux angular momentum 2               ... done (   17.555 sec)
  Aux angular momentum 3               ... done (   14.314 sec)
  Aux angular momentum 4               ... done (    4.922 sec)
Closing buffer VIA ( 0.63 GB; CompressionRatio= 1.00)
  Phase 1 completed in    59.293 sec
Second Phase: sorting and transformation of aux index

IA-Transformation
Memory available                       ... 167 MB 
Max. # MO pairs treated in a batch     ... 12    
# of internal orbitals                 ... 53
# batches for internal orbitals        ... 5
Closing buffer IAV ( 0.63 GB; CompressionRatio= 1.00)
(ia|v) transformation done in    61.849 sec

  Phase 2 completed in    61.875 sec
RI-Integral transformation completed in   121.175 sec
Opening buffers                              ... done

Starting loop over batches of integrals:

Operator 0  - window                       ... ( 24- 76)x( 77-827)
Operator 0  - Memory available             ...   256 MB
Operator 0  - Memory needed per MO         ...  12.3 MB
Operator 0  - Number of orbitals per batch ... 13
Operator 0  - Number of batches            ... 5

OPERATOR  0   PASS   0:  MOs    24 ...   36
  Reading integrals       ... ok
  Internal MO  26
  Internal MO  29
  Internal MO  32
  Internal MO  35
OPERATOR  0   PASS   1:  MOs    37 ...   49
  Reading integrals       ... ok
  Internal MO  38
  Internal MO  41
  Internal MO  44
  Internal MO  47
OPERATOR  0   PASS   2:  MOs    50 ...   62
  Reading integrals       ... ok
  Internal MO  50
  Internal MO  53
  Internal MO  56
  Internal MO  59
  Internal MO  62
OPERATOR  0   PASS   3:  MOs    63 ...   75
  Reading integrals       ... ok
  Internal MO  65
  Internal MO  68
  Internal MO  71
  Internal MO  74
OPERATOR  0   PASS   4:  MOs    76 ...   76
  Reading integrals       ... ok
Time spent in pair loops =   395.013 sec
Deleting buffer (Ka|jb)[aa] ...done

-----------------------------------------------
 RI-MP2 CORRELATION ENERGY:     -3.533915304 Eh
-----------------------------------------------


-------
TIMINGS
-------

Total time                :  518.205 sec
Integral trafo            :  121.185 sec ( 23.4%)
I/O of integrals          :    1.927 sec (  0.4%)
K(i,j) Operators          :  369.094 sec ( 71.2%)
T(i,j) pair energies      :    3.761 sec (  0.7%)
V-calculation             :    0.032 sec (  0.0%)
V**(-1/2)                 :    1.573 sec (  0.3%)
Gamma(ia|P)               :    0.000 sec (  0.0%)
Gamma-Trafo               :    0.000 sec (  0.0%)
D(virtual)                :    0.000 sec (  0.0%)
D(internal)               :    0.000 sec (  0.0%)
W(virtual)                :    0.000 sec (  0.0%)
W(internal)               :    0.000 sec (  0.0%)
L(virtual)                :    0.000 sec (  0.0%)
L(internal)               :    0.000 sec (  0.0%)
G(D)                      :    0.000 sec (  0.0%)
G(Z)                      :    0.000 sec (  0.0%)
Z-Vector Solution         :    0.000 sec (  0.0%)
3-Index Derivative        :    0.000 sec (  0.0%)
2-Index Derivative        :    0.000 sec (  0.0%)
Separable Gradient        :    0.000 sec (  0.0%)


---------------------------------------
MP2 TOTAL ENERGY:    -1274.330930636 Eh
---------------------------------------

-------------------------   --------------------
FINAL SINGLE POINT ENERGY     -1274.330930635798
-------------------------   --------------------


                            ***************************************
                            *     ORCA property calculations      *
                            ***************************************


  WARNING: The energy has been calculated at the MP2 level but the densities
           used in the property calculations are still SCF densities
           MP2 response densities have not been calculated 
           use %mp2 Density relaxed end
           or  %mp2 Density unrelaxed end

                                    ---------------------
                                    Active property flags
                                    ---------------------
   (+) Dipole Moment


------------------------------------------------------------------------------
                       ORCA ELECTRIC PROPERTIES CALCULATION
------------------------------------------------------------------------------

Dipole Moment Calculation                       ... on
Quadrupole Moment Calculation                   ... off
Polarizability Calculation                      ... off
GBWName                                         ... CONFS/Conf366.orca.gbw
Electron density file                           ... CONFS/Conf366.orca.scfp
The origin for moment calculation is the CENTER OF MASS  = (31.848053, 33.030798 33.306702)

-------------
DIPOLE MOMENT
-------------
                                X             Y             Z
Electronic contribution:      9.23456       9.20890       6.38357
Nuclear contribution   :    -10.28502     -10.88063      -6.42391
                        -----------------------------------------
Total Dipole Moment    :     -1.05046      -1.67173      -0.04034
                        -----------------------------------------
Magnitude (a.u.)       :      1.97478
Magnitude (Debye)      :      5.01949



--------------------
Rotational spectrum 
--------------------
 
Rotational constants in cm-1:     0.012181     0.009004     0.006186 
Rotational constants in MHz :   365.169212   269.943535   185.447542 

 Dipole components along the rotational axes: 
x,y,z [a.u.] :    -1.939500    -0.306592     0.209992 
x,y,z [Debye]:    -4.929817    -0.779295     0.533757 

 

Timings for individual modules:

Sum of individual times         ...     8241.697 sec (= 137.362 min)
GTO integral calculation        ...        1.493 sec (=   0.025 min)   0.0 %
SCF iterations                  ...     7721.411 sec (= 128.690 min)  93.7 %
MP2 module                      ...      518.794 sec (=   8.647 min)   6.3 %
                             ****ORCA TERMINATED NORMALLY****
TOTAL RUN TIME: 0 days 2 hours 17 minutes 22 seconds 716 msec
