
                                 *****************
                                 * O   R   C   A *
                                 *****************

           --- An Ab Initio, DFT and Semiempirical electronic structure package ---

                  #######################################################
                  #                        -***-                        #
                  #          Department of theory and spectroscopy      #
                  #               Directorship: Frank Neese             #
                  #        Max Planck Institute fuer Kohlenforschung    #
                  #                Kaiser Wilhelm Platz 1               #
                  #                 D-45470 Muelheim/Ruhr               #
                  #                      Germany                        #
                  #                                                     #
                  #                  All rights reserved                #
                  #                        -***-                        #
                  #######################################################


                         Program Version 4.2.0 -  RELEASE  -


 With contributions from (in alphabetic order):
   Daniel Aravena         : Magnetic Suceptibility
   Michael Atanasov       : Ab Initio Ligand Field Theory (pilot matlab implementation)
   Alexander A. Auer      : GIAO ZORA, VPT2
   Ute Becker             : Parallelization
   Giovanni Bistoni       : ED, misc. LED, open-shell LED, HFLED
   Martin Brehm           : Molecular dynamics
   Dmytro Bykov           : SCF Hessian
   Vijay G. Chilkuri      : MRCI spin determinant printing, contributions to CSF-ICE
   Dipayan Datta          : RHF DLPNO-CCSD density
   Achintya Kumar Dutta   : EOM-CC, STEOM-CC
   Dmitry Ganyushin       : Spin-Orbit,Spin-Spin,Magnetic field MRCI
   Miquel Garcia          : C-PCM Hessian, Gaussian charge scheme
   Yang Guo               : DLPNO-NEVPT2, CIM, IAO-localization
   Andreas Hansen         : Spin unrestricted coupled pair/coupled cluster methods
   Benjamin Helmich-Paris : CASSCF linear response (MC-RPA)
   Lee Huntington         : MR-EOM, pCC
   Robert Izsak           : Overlap fitted RIJCOSX, COSX-SCS-MP3, EOM
   Christian Kollmar      : KDIIS, OOCD, Brueckner-CCSD(T), CCSD density
   Simone Kossmann        : Meta GGA functionals, TD-DFT gradient, OOMP2, MP2 Hessian
   Martin Krupicka        : AUTO-CI
   Lucas Lang             : DCDCAS
   Dagmar Lenk            : GEPOL surface, SMD
   Dimitrios Liakos       : Extrapolation schemes; Compound Job, initial MDCI parallelization
   Dimitrios Manganas     : Further ROCIS development; embedding schemes
   Dimitrios Pantazis     : SARC Basis sets
   Taras Petrenko         : DFT Hessian,TD-DFT gradient, ASA, ECA, R-Raman, ABS, FL, XAS/XES, NRVS
   Peter Pinski           : DLPNO-MP2, DLPNO-MP2 Gradient
   Christoph Reimann      : Effective Core Potentials
   Marius Retegan         : Local ZFS, SOC
   Christoph Riplinger    : Optimizer, TS searches, QM/MM, DLPNO-CCSD(T), (RO)-DLPNO pert. Triples
   Tobias Risthaus        : Range-separated hybrids, TD-DFT gradient, RPA, STAB
   Michael Roemelt        : Original ROCIS implementation
   Masaaki Saitow         : Open-shell DLPNO-CCSD energy and density
   Barbara Sandhoefer     : DKH picture change effects
   Avijit Sen             : IP-ROCIS
   Kantharuban Sivalingam : CASSCF convergence, NEVPT2, FIC-MRCI
   Bernardo de Souza      : ESD, SOC TD-DFT
   Georgi Stoychev        : AutoAux, RI-MP2 NMR
   Willem Van den Heuvel  : Paramagnetic NMR
   Boris Wezisla          : Elementary symmetry handling
   Frank Wennmohs         : Technical directorship


 We gratefully acknowledge several colleagues who have allowed us to
 interface, adapt or use parts of their codes:
   Stefan Grimme, W. Hujo, H. Kruse,             : VdW corrections, initial TS optimization,
                  C. Bannwarth                     DFT functionals, gCP, sTDA/sTD-DF
   Ed Valeev, F. Pavosevic, A. Kumar             : LibInt (2-el integral package), F12 methods
   Garnet Chan, S. Sharma, J. Yang, R. Olivares  : DMRG
   Ulf Ekstrom                                   : XCFun DFT Library
   Mihaly Kallay                                 : mrcc  (arbitrary order and MRCC methods)
   Andreas Klamt, Michael Diedenhofen            : otool_cosmo (COSMO solvation model)
   Jiri Pittner, Ondrej Demel                    : Mk-CCSD
   Frank Weinhold                                : gennbo (NPA and NBO analysis)
   Christopher J. Cramer and Donald G. Truhlar   : smd solvation model
   Lars Goerigk                                  : TD-DFT with DH, B97 family of functionals
   V. Asgeirsson, H. Jonsson                     : NEB implementation
   FAccTs GmbH                                   : IRC, NEB, NEB-TS, Multilevel, MM, QM/MM, CI optimization
   S Lehtola, MJT Oliveira, MAL Marques          : LibXC Library


 Your calculation uses the libint2 library for the computation of 2-el integrals
 For citations please refer to: http://libint.valeyev.net

 Your ORCA version has been built with support for libXC version: 4.2.3
 For citations please refer to: https://tddft.org/programs/libxc/

 This ORCA versions uses:
   CBLAS   interface :  Fast vector & matrix operations
   LAPACKE interface :  Fast linear algebra routines
   SCALAPACK package :  Parallel linear algebra routines


----- Orbital basis set information -----
Your calculation utilizes the basis: cc-pVTZ 
       H, B-Ne : Obtained from the ccRepo (grant-hill.group.shef.ac.uk/ccrepo) Feb. 2017
                 T. H. Dunning, Jr., J. Chem. Phys. 90, 1007 (1989)
            He : Obtained from the ccRepo (grant-hill.group.shef.ac.uk/ccrepo) Feb. 2017
                 D. E. Woon, T. H. Dunning, Jr., J. Chem. Phys. 100, 2975 (1994)
  Li-Be, Na-Mg : Obtained from the ccRepo (grant-hill.group.shef.ac.uk/ccrepo) Feb. 2017
                 B. P. Prascher, D. E. Woon, K. A. Peterson, T. H. Dunning, Jr., A. K. Wilson, Theor. Chem. Acc. 128, 69 (2011)
         Al-Ar : Obtained from the ccRepo (grant-hill.group.shef.ac.uk/ccrepo) Feb. 2017
                 D. E. Woon, T. H. Dunning, Jr., J. Chem. Phys. 98, 1358 (1993)
            Ca : Obtained from the Peterson Research Group Website (tyr0.chem.wsu.edu/~kipeters) Feb. 2017
                 J. Koput, K. A. Peterson, J. Phys. Chem. 106, 9595 (2002)
         Sc-Zn : Obtained from the ccRepo (grant-hill.group.shef.ac.uk/ccrepo) Feb. 2017
                 N. B. Balabanov, K. A. Peterson, J. Chem. Phys. 123, 064107 (2005)
                 N. B. Balabanov, K. A. Peterson, J. Chem. Phys. 125, 074110 (2006)
         Ga-Kr : Obtained from the ccRepo (grant-hill.group.shef.ac.uk/ccrepo) Feb. 2017
                 A. K. Wilson, D. E. Woon, K. A. Peterson, T. H. Dunning, Jr., J. Chem. Phys. 110, 7667 (1999)
             Y : Obtained from the ccRepo (grant-hill.group.shef.ac.uk/ccrepo) Feb. 2017
                 K. A. Peterson, D. Figgen, M. Dolg, H. Stoll, J. Chem. Phys. 126, 124101 (2007)
        Ag, Au : Obtained from the Peterson Research Group Website (tyr0.chem.wsu.edu/~kipeters) Feb. 2017
                 K. A. Peterson, C. Puzzarini, Theor. Chem. Acc. 114, 283 (2005)

----- AuxC basis set information -----
Your calculation utilizes the auxiliary basis: cc-pVTZ/C 
  Obtained from the EMSL Basis Set Exchange (bse.pnl.gov) Feb. 2017
  H-He, B-F, Al-Ar, Ga-Kr : F. Weigend, A. Kohn, C. Hattig, J. Chem. Phys. 116, 3175 (2002)
             Li-Be, Na-Mg : C. Haettig, Phys. Chem. Chem. Phys. 7, 59 (2005)
                       Ne : C. Haettig, Phys. Chem. Chem. Phys. 7, 59 (2005)
                            F. Weigend, A. Kohn, C. Hattig, J. Chem. Phys. 116, 3175 (2002)
                    Sc-Zn : J. G. Hill, J. A. Platts, J. Chem. Phys. 128, 044104 (2008)

================================================================================
                                        WARNINGS
                       Please study these warnings very carefully!
================================================================================


WARNING: No MP2 level density has been requested!
         To caclulate MP2 level properties use
         %mp2 Density relaxed end
         or
         %mp2 Density unrelaxed end

WARNING: Post HF methods need fully converged wavefunctions
  ===> : Setting SCFConvForced true
         You can overwrite this default with %scf ConvForced false 


INFO   : the flag for use of LIBINT has been found!

================================================================================
                                       INPUT FILE
================================================================================
NAME = CONFS/Conf940.orca
|  1> ! ri-mp2 cc-pvtz cc-pvtz/c TightSCF NoKeepInts
|  2> 
|  3> %scf
|  4>   MaxCore 4096
|  5> end
|  6> *xyz  0  1
|  7>     C       13.7287807   16.0810052   14.3913944
|  8>     C       14.8414405   16.0235272   15.4516487
|  9>     O       16.0621056   16.4443595   14.8231213
| 10>     C       17.1576601   16.5522513   15.6245156
| 11>     O       18.0464535   15.7209456   15.5935041
| 12>     C       17.1295633   17.6850856   16.6071270
| 13>     C       16.6711319   18.9178541   16.2703237
| 14>     C       15.9493602   19.3191723   14.9994986
| 15>     N       16.9041429   20.0160323   17.1014999
| 16>     C       17.7748339   20.0134896   18.1583518
| 17>     S       18.0849522   21.3806355   19.0354124
| 18>     N       18.3926332   18.8202687   18.4380695
| 19>     C       18.0784708   17.5274034   17.7985999
| 20>     C       17.6280016   16.4514421   18.7768337
| 21>     C       18.2342070   15.1825094   18.7720399
| 22>     C       17.8111381   14.1851913   19.6665277
| 23>     C       16.7723284   14.4591277   20.5727315
| 24>     C       16.1635309   15.7216303   20.5764970
| 25>     O       15.1547661   15.9865845   21.4442976
| 26>     C       16.5858650   16.7120319   19.6838228
| 27>     H       12.7708554   15.7633899   14.8210319
| 28>     H       13.9643607   15.4152474   13.5514134
| 29>     H       13.6102539   17.0989210   14.0011723
| 30>     H       14.5839440   16.6824509   16.2917137
| 31>     H       14.9460986   14.9980838   15.8320541
| 32>     H       14.9097652   18.9729976   15.0133066
| 33>     H       16.4384240   18.8919012   14.1146552
| 34>     H       15.9330723   20.4061248   14.8515763
| 35>     H       16.4804761   20.9058015   16.8911229
| 36>     H       19.0202338   18.8418281   19.2321855
| 37>     H       19.0599740   17.2742465   17.3708811
| 38>     H       19.0277699   14.9651276   18.0602249
| 39>     H       18.2851490   13.2052341   19.6504676
| 40>     H       16.4417888   13.6909605   21.2640090
| 41>     H       15.0398435   15.2033761   22.0034564
| 42>     H       16.1036250   17.6837616   19.7029119
| 43> *
| 44> 
| 45>                          ****END OF INPUT****
================================================================================

                       ****************************
                       * Single Point Calculation *
                       ****************************

---------------------------------
CARTESIAN COORDINATES (ANGSTROEM)
---------------------------------
  C     13.728781   16.081005   14.391394
  C     14.841440   16.023527   15.451649
  O     16.062106   16.444360   14.823121
  C     17.157660   16.552251   15.624516
  O     18.046453   15.720946   15.593504
  C     17.129563   17.685086   16.607127
  C     16.671132   18.917854   16.270324
  C     15.949360   19.319172   14.999499
  N     16.904143   20.016032   17.101500
  C     17.774834   20.013490   18.158352
  S     18.084952   21.380636   19.035412
  N     18.392633   18.820269   18.438069
  C     18.078471   17.527403   17.798600
  C     17.628002   16.451442   18.776834
  C     18.234207   15.182509   18.772040
  C     17.811138   14.185191   19.666528
  C     16.772328   14.459128   20.572731
  C     16.163531   15.721630   20.576497
  O     15.154766   15.986584   21.444298
  C     16.585865   16.712032   19.683823
  H     12.770855   15.763390   14.821032
  H     13.964361   15.415247   13.551413
  H     13.610254   17.098921   14.001172
  H     14.583944   16.682451   16.291714
  H     14.946099   14.998084   15.832054
  H     14.909765   18.972998   15.013307
  H     16.438424   18.891901   14.114655
  H     15.933072   20.406125   14.851576
  H     16.480476   20.905801   16.891123
  H     19.020234   18.841828   19.232185
  H     19.059974   17.274247   17.370881
  H     19.027770   14.965128   18.060225
  H     18.285149   13.205234   19.650468
  H     16.441789   13.690960   21.264009
  H     15.039843   15.203376   22.003456
  H     16.103625   17.683762   19.702912

----------------------------
CARTESIAN COORDINATES (A.U.)
----------------------------
  NO LB      ZA    FRAG     MASS         X           Y           Z
   0 C     6.0000    0    12.011   25.943636   30.388696   27.195794
   1 C     6.0000    0    12.011   28.046258   30.280078   29.199384
   2 O     8.0000    0    15.999   30.352981   31.075336   28.011640
   3 C     6.0000    0    12.011   32.423279   31.279222   29.526055
   4 O     8.0000    0    15.999   34.102855   29.708282   29.467452
   5 C     6.0000    0    12.011   32.370183   33.419968   31.382922
   6 C     6.0000    0    12.011   31.503874   35.749563   30.746456
   7 C     6.0000    0    12.011   30.139923   36.507945   28.344945
   8 N     7.0000    0    14.007   31.944201   37.824819   32.317151
   9 C     6.0000    0    12.011   33.589568   37.820014   34.314312
  10 S    16.0000    0    32.060   34.175607   40.403546   35.971716
  11 N     7.0000    0    14.007   34.757040   35.565154   34.842902
  12 C     6.0000    0    12.011   34.163359   33.121992   33.634479
  13 C     6.0000    0    12.011   33.312095   31.088720   35.483073
  14 C     6.0000    0    12.011   34.457657   28.690785   35.474014
  15 C     6.0000    0    12.011   33.658173   26.806127   37.164351
  16 C     6.0000    0    12.011   31.695107   27.323791   38.876828
  17 C     6.0000    0    12.011   30.544647   29.709576   38.883944
  18 O     8.0000    0    15.999   28.638358   30.210267   40.523850
  19 C     6.0000    0    12.011   31.342743   31.581163   37.197034
  20 H     1.0000    0     1.008   24.133419   29.788490   28.007691
  21 H     1.0000    0     1.008   26.388817   29.130596   25.608460
  22 H     1.0000    0     1.008   25.719652   32.312278   26.458381
  23 H     1.0000    0     1.008   27.559660   31.525263   30.786877
  24 H     1.0000    0     1.008   28.244033   28.342271   29.918246
  25 H     1.0000    0     1.008   28.175373   35.853769   28.371038
  26 H     1.0000    0     1.008   31.064119   35.700519   26.672833
  27 H     1.0000    0     1.008   30.109143   38.561987   28.065412
  28 H     1.0000    0     1.008   31.143586   39.506239   31.919596
  29 H     1.0000    0     1.008   35.943033   35.605895   36.343564
  30 H     1.0000    0     1.008   36.018131   32.643595   32.826208
  31 H     1.0000    0     1.008   35.957274   28.279993   34.128879
  32 H     1.0000    0     1.008   34.553924   24.954276   37.134002
  33 H     1.0000    0     1.008   31.070478   25.872166   40.183154
  34 H     1.0000    0     1.008   28.421185   28.730217   41.580507
  35 H     1.0000    0     1.008   30.431441   33.417466   37.233108

--------------------------------
INTERNAL COORDINATES (ANGSTROEM)
--------------------------------
 C      0   0   0     0.000000000000     0.00000000     0.00000000
 C      1   0   0     1.538003488841     0.00000000     0.00000000
 O      2   1   0     1.436025697414   107.59400112     0.00000000
 C      3   2   1     1.361658226961   116.71389264   175.58068207
 O      4   3   2     1.217367893395   121.21924988   105.07137384
 C      4   3   2     1.499876043157   115.48944281   289.92465611
 C      6   4   3     1.357686998534   121.97838967   318.51943875
 C      7   6   4     1.515588044081   127.53470125     9.68261922
 N      7   6   4     1.396833333123   120.65825216   193.18348376
 C      9   7   6     1.369322906161   124.32368787    11.81623408
 S     10   9   7     1.653631327701   121.80741385   175.49998076
 N     10   9   7     1.372477352444   116.43182247   356.48624048
 C     12  10   9     1.476184292980   125.26386798   352.58259292
 C     13  12  10     1.522352320164   113.80463845   239.49539066
 C     14  13  12     1.406306568511   120.53014222   231.09274795
 C     15  14  13     1.404898256488   120.56809215   180.56184454
 C     16  15  14     1.405479303011   119.65204085     0.04724269
 C     17  16  15     1.401628121152   119.88932851     0.16372653
 O     18  17  16     1.356792184226   120.03644912   179.58476530
 C     18  17  16     1.398616691110   120.32916287   359.90534620
 H      1   2   3     1.096854019722   110.54628830   179.76007776
 H      1   2   3     1.097405788677   110.46817381    60.08261151
 H      1   2   3     1.096573967198   110.98990181   299.94026769
 H      2   1   3     1.098268680314   109.58840230   120.78181857
 H      2   1   3     1.098724602823   110.02726813   240.01451192
 H      8   7   6     1.095803516972   110.95210700    75.33447271
 H      8   7   6     1.097584546124   111.14310734   315.07732716
 H      8   7   6     1.097092539296   112.48695232   195.79053956
 H      9   7   6     1.007691058222   119.98860391   186.26017302
 H     12  10   9     1.012406806726   114.85922158   180.88808382
 H     13  12  10     1.100172858919   100.37439074   121.39841810
 H     15  14  13     1.087969446930   119.79731992   359.65592518
 H     16  15  14     1.088696640007   119.89927524   179.73487042
 H     17  16  15     1.084989334662   119.86611896   179.90386245
 H     19  18  17     0.969165189964   107.41956487     3.21320258
 H     20  18  17     1.084978534903   119.25987918   180.10561467

---------------------------
INTERNAL COORDINATES (A.U.)
---------------------------
 C      0   0   0     0.000000000000     0.00000000     0.00000000
 C      1   0   0     2.906405386926     0.00000000     0.00000000
 O      2   1   0     2.713695289385   107.59400112     0.00000000
 C      3   2   1     2.573161136957   116.71389264   175.58068207
 O      4   3   2     2.300491922745   121.21924988   105.07137384
 C      4   3   2     2.834354956396   115.48944281   289.92465611
 C      6   4   3     2.565656602815   121.97838967   318.51943875
 C      7   6   4     2.864046335159   127.53470125     9.68261922
 N      7   6   4     2.639632454334   120.65825216   193.18348376
 C      9   7   6     2.587645281550   124.32368787    11.81623408
 S     10   9   7     3.124910335827   121.80741385   175.49998076
 N     10   9   7     2.593606321128   116.43182247   356.48624048
 C     12  10   9     2.789584036929   125.26386798   352.58259292
 C     13  12  10     2.876828964450   113.80463845   239.49539066
 C     14  13  12     2.657534274820   120.53014222   231.09274795
 C     15  14  13     2.654872950786   120.56809215   180.56184454
 C     16  15  14     2.655970969586   119.65204085     0.04724269
 C     17  16  15     2.648693290579   119.88932851     0.16372653
 O     18  17  16     2.563965648832   120.03644912   179.58476530
 C     18  17  16     2.643002512529   120.32916287   359.90534620
 H      1   2   3     2.072753706165   110.54628830   179.76007776
 H      1   2   3     2.073796398379   110.46817381    60.08261151
 H      1   2   3     2.072224483592   110.98990181   299.94026769
 H      2   1   3     2.075427027257   109.58840230   120.78181857
 H      2   1   3     2.076288595937   110.02726813   240.01451192
 H      8   7   6     2.070768543666   110.95210700    75.33447271
 H      8   7   6     2.074134200998   111.14310734   315.07732716
 H      8   7   6     2.073204442839   112.48695232   195.79053956
 H      9   7   6     1.904260127640   119.98860391   186.26017302
 H     12  10   9     1.913171600829   114.85922158   180.88808382
 H     13  12  10     2.079025403329   100.37439074   121.39841810
 H     15  14  13     2.055964296771   119.79731992   359.65592518
 H     16  15  14     2.057338492534   119.89927524   179.73487042
 H     17  16  15     2.050332700737   119.86611896   179.90386245
 H     19  18  17     1.831456787563   107.41956487     3.21320258
 H     20  18  17     2.050312292150   119.25987918   180.10561467

---------------------
BASIS SET INFORMATION
---------------------
There are 5 groups of distinct atoms

 Group   1 Type C   : 18s5p2d1f contracted to 4s3p2d1f pattern {8811/311/11/1}
 Group   2 Type O   : 18s5p2d1f contracted to 4s3p2d1f pattern {8811/311/11/1}
 Group   3 Type N   : 18s5p2d1f contracted to 4s3p2d1f pattern {8811/311/11/1}
 Group   4 Type S   : 41s16p2d1f contracted to 5s4p2d1f pattern {13131311/7711/11/1}
 Group   5 Type H   : 5s2p1d contracted to 3s2p1d pattern {311/11/1}

Atom   0C    basis set group =>   1
Atom   1C    basis set group =>   1
Atom   2O    basis set group =>   2
Atom   3C    basis set group =>   1
Atom   4O    basis set group =>   2
Atom   5C    basis set group =>   1
Atom   6C    basis set group =>   1
Atom   7C    basis set group =>   1
Atom   8N    basis set group =>   3
Atom   9C    basis set group =>   1
Atom  10S    basis set group =>   4
Atom  11N    basis set group =>   3
Atom  12C    basis set group =>   1
Atom  13C    basis set group =>   1
Atom  14C    basis set group =>   1
Atom  15C    basis set group =>   1
Atom  16C    basis set group =>   1
Atom  17C    basis set group =>   1
Atom  18O    basis set group =>   2
Atom  19C    basis set group =>   1
Atom  20H    basis set group =>   5
Atom  21H    basis set group =>   5
Atom  22H    basis set group =>   5
Atom  23H    basis set group =>   5
Atom  24H    basis set group =>   5
Atom  25H    basis set group =>   5
Atom  26H    basis set group =>   5
Atom  27H    basis set group =>   5
Atom  28H    basis set group =>   5
Atom  29H    basis set group =>   5
Atom  30H    basis set group =>   5
Atom  31H    basis set group =>   5
Atom  32H    basis set group =>   5
Atom  33H    basis set group =>   5
Atom  34H    basis set group =>   5
Atom  35H    basis set group =>   5
---------------------------------
AUXILIARY/C BASIS SET INFORMATION
---------------------------------
There are 5 groups of distinct atoms

 Group   1 Type C   : 8s6p5d3f1g contracted to 8s6p5d3f1g pattern {11111111/111111/11111/111/1}
 Group   2 Type O   : 8s6p5d3f1g contracted to 8s6p5d3f1g pattern {11111111/111111/11111/111/1}
 Group   3 Type N   : 8s6p5d3f1g contracted to 8s6p5d3f1g pattern {11111111/111111/11111/111/1}
 Group   4 Type S   : 10s8p7d5f2g contracted to 10s8p7d5f2g pattern {1111111111/11111111/1111111/11111/11}
 Group   5 Type H   : 4s3p2d1f contracted to 4s3p2d1f pattern {1111/111/11/1}

Atom   0C    basis set group =>   1
Atom   1C    basis set group =>   1
Atom   2O    basis set group =>   2
Atom   3C    basis set group =>   1
Atom   4O    basis set group =>   2
Atom   5C    basis set group =>   1
Atom   6C    basis set group =>   1
Atom   7C    basis set group =>   1
Atom   8N    basis set group =>   3
Atom   9C    basis set group =>   1
Atom  10S    basis set group =>   4
Atom  11N    basis set group =>   3
Atom  12C    basis set group =>   1
Atom  13C    basis set group =>   1
Atom  14C    basis set group =>   1
Atom  15C    basis set group =>   1
Atom  16C    basis set group =>   1
Atom  17C    basis set group =>   1
Atom  18O    basis set group =>   2
Atom  19C    basis set group =>   1
Atom  20H    basis set group =>   5
Atom  21H    basis set group =>   5
Atom  22H    basis set group =>   5
Atom  23H    basis set group =>   5
Atom  24H    basis set group =>   5
Atom  25H    basis set group =>   5
Atom  26H    basis set group =>   5
Atom  27H    basis set group =>   5
Atom  28H    basis set group =>   5
Atom  29H    basis set group =>   5
Atom  30H    basis set group =>   5
Atom  31H    basis set group =>   5
Atom  32H    basis set group =>   5
Atom  33H    basis set group =>   5
Atom  34H    basis set group =>   5
Atom  35H    basis set group =>   5
------------------------------------------------------------------------------
                           ORCA GTO INTEGRAL CALCULATION
------------------------------------------------------------------------------

                         BASIS SET STATISTICS AND STARTUP INFO

 # of primitive gaussian shells          ...  682
 # of primitive gaussian functions       ... 1312
 # of contracted shells                  ...  298
 # of contracted basis functions         ...  828
 Highest angular momentum                ...    3
 Maximum contraction depth               ...   13
 Integral package used                   ... LIBINT
 Integral threshhold            Thresh   ...  2.500e-11
 Primitive cut-off              TCut     ...  2.500e-12


------------------------------ INTEGRAL EVALUATION ----------------------------


 * One electron integrals 
 Pre-screening matrix                    ... done
 Shell pair data                         ... done (   0.014 sec)

-------------------------------------------------------------------------------
                                 ORCA SCF
-------------------------------------------------------------------------------

------------
SCF SETTINGS
------------
Hamiltonian:
 Ab initio Hamiltonian  Method          .... Hartree-Fock(GTOs)


General Settings:
 Integral files         IntName         .... CONFS/Conf940.orca
 Hartree-Fock type      HFTyp           .... RHF
 Total Charge           Charge          ....    0
 Multiplicity           Mult            ....    1
 Number of Electrons    NEL             ....  154
 Basis Dimension        Dim             ....  828
 Nuclear Repulsion      ENuc            ....   1691.2927766934 Eh

Convergence Acceleration:
 DIIS                   CNVDIIS         .... on
   Start iteration      DIISMaxIt       ....    12
   Startup error        DIISStart       ....  0.200000
   # of expansion vecs  DIISMaxEq       ....     5
   Bias factor          DIISBfac        ....   1.050
   Max. coefficient     DIISMaxC        ....  10.000
 Newton-Raphson         CNVNR           .... off
 SOSCF                  CNVSOSCF        .... on
   Start iteration      SOSCFMaxIt      ....   150
   Startup grad/error   SOSCFStart      ....  0.003300
 Level Shifting         CNVShift        .... on
   Level shift para.    LevelShift      ....    0.2500
   Turn off err/grad.   ShiftErr        ....    0.0010
 Zerner damping         CNVZerner       .... off
 Static damping         CNVDamp         .... on
   Fraction old density DampFac         ....    0.7000
   Max. Damping (<1)    DampMax         ....    0.9800
   Min. Damping (>=0)   DampMin         ....    0.0000
   Turn off err/grad.   DampErr         ....    0.1000
 Fernandez-Rico         CNVRico         .... off

SCF Procedure:
 Maximum # iterations   MaxIter         ....   125
 SCF integral mode      SCFMode         .... Direct
   Integral package                     .... LIBINT
 Reset frequency        DirectResetFreq ....    20
 Integral Threshold     Thresh          ....  2.500e-11 Eh
 Primitive CutOff       TCut            ....  2.500e-12 Eh

Convergence Tolerance:
 Convergence Check Mode ConvCheckMode   .... Total+1el-Energy
 Convergence forced     ConvForced      .... 1
 Energy Change          TolE            ....  1.000e-08 Eh
 1-El. energy change                    ....  1.000e-05 Eh
 Orbital Gradient       TolG            ....  1.000e-05
 Orbital Rotation angle TolX            ....  1.000e-05
 DIIS Error             TolErr          ....  5.000e-07


Diagonalization of the overlap matrix:
Smallest eigenvalue                        ... 3.539e-05
Time for diagonalization                   ...    0.129 sec
Threshold for overlap eigenvalues          ... 1.000e-08
Number of eigenvalues below threshold      ... 0
Time for construction of square roots      ...    0.139 sec
Total time needed                          ...    0.272 sec

-------------------
DFT GRID GENERATION
-------------------

General Integration Accuracy     IntAcc      ...  4.340
Radial Grid Type                 RadialGrid  ... Gauss-Chebyshev
Angular Grid (max. acc.)         AngularGrid ... Lebedev-110
Angular grid pruning method      GridPruning ... 3 (G Style)
Weight generation scheme         WeightScheme... Becke
Basis function cutoff            BFCut       ...    1.0000e-11
Integration weight cutoff        WCut        ...    1.0000e-14
Grids for H and He will be reduced by one unit

# of grid points (after initial pruning)     ...  46246 (   0.0 sec)
# of grid points (after weights+screening)   ...  41326 (   0.3 sec)
nearest neighbour list constructed           ...    0.0 sec
Grid point re-assignment to atoms done       ...    0.0 sec
Grid point division into batches done        ...    0.0 sec
Reduced shell lists constructed in    1.2 sec

Total number of grid points                  ...    41326
Total number of batches                      ...      661
Average number of points per batch           ...       62
Average number of grid points per atom       ...     1148
Average number of shells per batch           ...   147.12 (49.37%)
Average number of basis functions per batch  ...   373.71 (45.13%)
Average number of large shells per batch     ...    93.83 (63.78%)
Average number of large basis fcns per batch ...   241.58 (64.64%)
Maximum spatial batch extension              ...  22.44, 21.01, 21.59 au
Average spatial batch extension              ...   3.54,  3.28,  3.40 au

Time for grid setup =    1.493 sec

------------------------------
INITIAL GUESS: MODEL POTENTIAL
------------------------------
Loading Hartree-Fock densities                     ... done
Calculating cut-offs                               ... done
Setting up the integral package                    ... done
Initializing the effective Hamiltonian             ... done
Starting the Coulomb interaction                   ... done (   3.1 sec)
Reading the grid                                   ... done
Mapping shells                                     ... done
Starting the XC term evaluation                    ... done (   1.4 sec)
Transforming the Hamiltonian                       ... done (   0.1 sec)
Diagonalizing the Hamiltonian                      ... done (   0.1 sec)
Back transforming the eigenvectors                 ... done (   0.0 sec)
Now organizing SCF variables                       ... done
                      ------------------
                      INITIAL GUESS DONE (   6.6 sec)
                      ------------------
--------------
SCF ITERATIONS
--------------
ITER       Energy         Delta-E        Max-DP      RMS-DP      [F,P]     Damp
               ***  Starting incremental Fock matrix formation  ***
  0  -1270.0028705074   0.000000000000 0.04930863  0.00043422  0.3033132 0.7000
  1  -1270.2701895666  -0.267319059163 0.03607960  0.00035065  0.1764755 0.7000
                               ***Turning on DIIS***
  2  -1270.4369414200  -0.166751853413 0.02583881  0.00023413  0.1097852 0.7000
  3  -1272.5550861664  -2.118144746472 0.06314541  0.00050183  0.0828930 0.0000
  4  -1270.7453394119   1.809746754566 0.01168109  0.00010082  0.0067777 0.0000
  5  -1270.8050702975  -0.059730885581 0.00558862  0.00005249  0.0039732 0.0000
                      *** Initiating the SOSCF procedure ***
                           *** Shutting down DIIS ***
                      *** Re-Reading the Fockian *** 
                      *** Removing any level shift *** 
ITER      Energy       Delta-E        Grad      Rot      Max-DP    RMS-DP
  6  -1270.78410926   0.0209610411  0.001780  0.001780  0.002886  0.000027
               *** Restarting incremental Fock matrix formation ***
  7  -1270.79914699  -0.0150377348  0.000984  0.002504  0.001723  0.000017
  8  -1270.79919675  -0.0000497568  0.000458  0.003028  0.002079  0.000019
  9  -1270.79921633  -0.0000195778  0.000163  0.000318  0.000369  0.000005
 10  -1270.79921884  -0.0000025102  0.000049  0.000132  0.000126  0.000001
 11  -1270.79921908  -0.0000002470  0.000024  0.000140  0.000073  0.000001
 12  -1270.79921915  -0.0000000661  0.000008  0.000033  0.000027  0.000000
 13  -1270.79921915  -0.0000000053  0.000003  0.000007  0.000005  0.000000
                  ***Gradient check signals convergence***
              ***Rediagonalizing the Fockian in SOSCF/NRSCF***

               *****************************************************
               *                     SUCCESS                       *
               *           SCF CONVERGED AFTER  14 CYCLES          *
               *****************************************************


----------------
TOTAL SCF ENERGY
----------------

Total Energy       :        -1270.79921915 Eh          -34580.20478 eV

Components:
Nuclear Repulsion  :         1691.29277669 Eh           46022.41619 eV
Electronic Energy  :        -2962.09199584 Eh          -80602.62096 eV
One Electron Energy:        -5103.48655660 Eh         -138872.92937 eV
Two Electron Energy:         2141.39456076 Eh           58270.30840 eV

Virial components:
Potential Energy   :        -2539.83095847 Eh          -69112.31398 eV
Kinetic Energy     :         1269.03173932 Eh           34532.10921 eV
Virial Ratio       :            2.00139278


---------------
SCF CONVERGENCE
---------------

  Last Energy change         ...    3.6262e-09  Tolerance :   1.0000e-08
  Last MAX-Density change    ...    2.8446e-06  Tolerance :   1.0000e-07
  Last RMS-Density change    ...    3.4943e-08  Tolerance :   5.0000e-09
  Last Orbital Gradient      ...    1.1455e-06  Tolerance :   1.0000e-05
  Last Orbital Rotation      ...    3.5904e-06  Tolerance :   1.0000e-05

             **** THE GBW FILE WAS UPDATED (CONFS/Conf940.orca.gbw) ****
             **** DENSITY FILE WAS UPDATED (CONFS/Conf940.orca.scfp) ****
             **** ENERGY FILE WAS UPDATED (CONFS/Conf940.orca.en.tmp) ****
             **** THE GBW FILE WAS UPDATED (CONFS/Conf940.orca.gbw) ****
             **** DENSITY FILE WAS UPDATED (CONFS/Conf940.orca.scfp) ****
----------------
ORBITAL ENERGIES
----------------

  NO   OCC          E(Eh)            E(eV) 
   0   2.0000     -91.890196     -2500.4594 
   1   2.0000     -20.595791      -560.4400 
   2   2.0000     -20.592377      -560.3471 
   3   2.0000     -20.553258      -559.2826 
   4   2.0000     -15.630748      -425.3343 
   5   2.0000     -15.608082      -424.7175 
   6   2.0000     -11.394138      -310.0502 
   7   2.0000     -11.385195      -309.8069 
   8   2.0000     -11.339614      -308.5666 
   9   2.0000     -11.312154      -307.8194 
  10   2.0000     -11.306821      -307.6742 
  11   2.0000     -11.306355      -307.6616 
  12   2.0000     -11.264367      -306.5190 
  13   2.0000     -11.261555      -306.4425 
  14   2.0000     -11.259366      -306.3829 
  15   2.0000     -11.252004      -306.1826 
  16   2.0000     -11.241945      -305.9089 
  17   2.0000     -11.238320      -305.8102 
  18   2.0000     -11.238232      -305.8078 
  19   2.0000     -11.234611      -305.7093 
  20   2.0000      -8.895279      -242.0529 
  21   2.0000      -6.576854      -178.9653 
  22   2.0000      -6.574851      -178.9108 
  23   2.0000      -6.574261      -178.8947 
  24   2.0000      -1.453399       -39.5490 
  25   2.0000      -1.415530       -38.5185 
  26   2.0000      -1.361947       -37.0605 
  27   2.0000      -1.342075       -36.5197 
  28   2.0000      -1.239224       -33.7210 
  29   2.0000      -1.156611       -31.4730 
  30   2.0000      -1.123655       -30.5762 
  31   2.0000      -1.045714       -28.4553 
  32   2.0000      -1.040889       -28.3240 
  33   2.0000      -1.014338       -27.6015 
  34   2.0000      -1.003010       -27.2933 
  35   2.0000      -0.987771       -26.8786 
  36   2.0000      -0.923946       -25.1418 
  37   2.0000      -0.881601       -23.9896 
  38   2.0000      -0.853081       -23.2135 
  39   2.0000      -0.841904       -22.9094 
  40   2.0000      -0.833752       -22.6876 
  41   2.0000      -0.831877       -22.6365 
  42   2.0000      -0.760820       -20.7030 
  43   2.0000      -0.737941       -20.0804 
  44   2.0000      -0.729836       -19.8599 
  45   2.0000      -0.693367       -18.8675 
  46   2.0000      -0.689464       -18.7613 
  47   2.0000      -0.683607       -18.6019 
  48   2.0000      -0.674229       -18.3467 
  49   2.0000      -0.657602       -17.8943 
  50   2.0000      -0.650667       -17.7056 
  51   2.0000      -0.643690       -17.5157 
  52   2.0000      -0.637518       -17.3477 
  53   2.0000      -0.621281       -16.9059 
  54   2.0000      -0.606397       -16.5009 
  55   2.0000      -0.603043       -16.4096 
  56   2.0000      -0.599125       -16.3030 
  57   2.0000      -0.580346       -15.7920 
  58   2.0000      -0.575944       -15.6722 
  59   2.0000      -0.566425       -15.4132 
  60   2.0000      -0.560331       -15.2474 
  61   2.0000      -0.553629       -15.0650 
  62   2.0000      -0.541698       -14.7404 
  63   2.0000      -0.530129       -14.4255 
  64   2.0000      -0.520879       -14.1738 
  65   2.0000      -0.512930       -13.9575 
  66   2.0000      -0.502284       -13.6679 
  67   2.0000      -0.497543       -13.5388 
  68   2.0000      -0.485351       -13.2071 
  69   2.0000      -0.466684       -12.6991 
  70   2.0000      -0.464785       -12.6474 
  71   2.0000      -0.452111       -12.3026 
  72   2.0000      -0.355967        -9.6864 
  73   2.0000      -0.348353        -9.4792 
  74   2.0000      -0.329318        -8.9612 
  75   2.0000      -0.319886        -8.7045 
  76   2.0000      -0.318819        -8.6755 
  77   0.0000       0.074125         2.0170 
  78   0.0000       0.106351         2.8940 
  79   0.0000       0.118578         3.2267 
  80   0.0000       0.133010         3.6194 
  81   0.0000       0.138144         3.7591 
  82   0.0000       0.140133         3.8132 
  83   0.0000       0.151376         4.1192 
  84   0.0000       0.158051         4.3008 
  85   0.0000       0.161614         4.3977 
  86   0.0000       0.167081         4.5465 
  87   0.0000       0.169938         4.6242 
  88   0.0000       0.182252         4.9593 
  89   0.0000       0.196893         5.3577 
  90   0.0000       0.203341         5.5332 
  91   0.0000       0.205171         5.5830 
  92   0.0000       0.205726         5.5981 
  93   0.0000       0.213890         5.8202 
  94   0.0000       0.226457         6.1622 
  95   0.0000       0.230830         6.2812 
  96   0.0000       0.239831         6.5261 
  97   0.0000       0.245096         6.6694 
  98   0.0000       0.263017         7.1571 
  99   0.0000       0.277529         7.5519 
 100   0.0000       0.295611         8.0440 
 101   0.0000       0.302970         8.2442 
 102   0.0000       0.310858         8.4589 
 103   0.0000       0.312464         8.5026 
 104   0.0000       0.323559         8.8045 
 105   0.0000       0.329266         8.9598 
 106   0.0000       0.342270         9.3136 
 107   0.0000       0.344272         9.3681 
 108   0.0000       0.348734         9.4895 
 109   0.0000       0.356277         9.6948 
 110   0.0000       0.367859        10.0100 
 111   0.0000       0.377788        10.2801 
 112   0.0000       0.380753        10.3608 
 113   0.0000       0.390681        10.6310 
 114   0.0000       0.397943        10.8286 
 115   0.0000       0.407833        11.0977 
 116   0.0000       0.421320        11.4647 
 117   0.0000       0.427281        11.6269 
 118   0.0000       0.430212        11.7067 
 119   0.0000       0.438944        11.9443 
 120   0.0000       0.441490        12.0136 
 121   0.0000       0.447655        12.1813 
 122   0.0000       0.452961        12.3257 
 123   0.0000       0.456075        12.4104 
 124   0.0000       0.463442        12.6109 
 125   0.0000       0.466302        12.6887 
 126   0.0000       0.472571        12.8593 
 127   0.0000       0.481599        13.1050 
 128   0.0000       0.484393        13.1810 
 129   0.0000       0.495902        13.4942 
 130   0.0000       0.498431        13.5630 
 131   0.0000       0.506139        13.7727 
 132   0.0000       0.515619        14.0307 
 133   0.0000       0.517212        14.0741 
 134   0.0000       0.521935        14.2026 
 135   0.0000       0.527792        14.3619 
 136   0.0000       0.534731        14.5508 
 137   0.0000       0.538143        14.6436 
 138   0.0000       0.539234        14.6733 
 139   0.0000       0.546944        14.8831 
 140   0.0000       0.550035        14.9672 
 141   0.0000       0.560620        15.2553 
 142   0.0000       0.563298        15.3281 
 143   0.0000       0.571313        15.5462 
 144   0.0000       0.573110        15.5951 
 145   0.0000       0.577439        15.7129 
 146   0.0000       0.582259        15.8441 
 147   0.0000       0.587668        15.9912 
 148   0.0000       0.592501        16.1228 
 149   0.0000       0.593468        16.1491 
 150   0.0000       0.599402        16.3106 
 151   0.0000       0.601042        16.3552 
 152   0.0000       0.607298        16.5254 
 153   0.0000       0.617851        16.8126 
 154   0.0000       0.622405        16.9365 
 155   0.0000       0.625618        17.0239 
 156   0.0000       0.628066        17.0905 
 157   0.0000       0.631692        17.1892 
 158   0.0000       0.636832        17.3291 
 159   0.0000       0.640169        17.4199 
 160   0.0000       0.643892        17.5212 
 161   0.0000       0.647451        17.6180 
 162   0.0000       0.656395        17.8614 
 163   0.0000       0.658032        17.9060 
 164   0.0000       0.665158        18.0999 
 165   0.0000       0.668629        18.1943 
 166   0.0000       0.672991        18.3130 
 167   0.0000       0.677016        18.4226 
 168   0.0000       0.687327        18.7031 
 169   0.0000       0.688579        18.7372 
 170   0.0000       0.692916        18.8552 
 171   0.0000       0.696429        18.9508 
 172   0.0000       0.705529        19.1984 
 173   0.0000       0.711974        19.3738 
 174   0.0000       0.719975        19.5915 
 175   0.0000       0.727142        19.7865 
 176   0.0000       0.731271        19.8989 
 177   0.0000       0.740274        20.1439 
 178   0.0000       0.742584        20.2067 
 179   0.0000       0.757184        20.6040 
 180   0.0000       0.761588        20.7239 
 181   0.0000       0.765262        20.8238 
 182   0.0000       0.778939        21.1960 
 183   0.0000       0.781962        21.2783 
 184   0.0000       0.796517        21.6743 
 185   0.0000       0.808981        22.0135 
 186   0.0000       0.813589        22.1389 
 187   0.0000       0.826305        22.4849 
 188   0.0000       0.828897        22.5554 
 189   0.0000       0.833426        22.6787 
 190   0.0000       0.838073        22.8051 
 191   0.0000       0.844495        22.9799 
 192   0.0000       0.850548        23.1446 
 193   0.0000       0.859371        23.3847 
 194   0.0000       0.862616        23.4730 
 195   0.0000       0.866903        23.5896 
 196   0.0000       0.885105        24.0849 
 197   0.0000       0.889421        24.2024 
 198   0.0000       0.897495        24.4221 
 199   0.0000       0.907669        24.6989 
 200   0.0000       0.911357        24.7993 
 201   0.0000       0.914515        24.8852 
 202   0.0000       0.926301        25.2059 
 203   0.0000       0.928038        25.2532 
 204   0.0000       0.938097        25.5269 
 205   0.0000       0.947176        25.7740 
 206   0.0000       0.953598        25.9487 
 207   0.0000       0.958331        26.0775 
 208   0.0000       0.963535        26.2191 
 209   0.0000       0.971746        26.4426 
 210   0.0000       0.980682        26.6857 
 211   0.0000       0.987499        26.8712 
 212   0.0000       0.999229        27.1904 
 213   0.0000       1.003608        27.3096 
 214   0.0000       1.005918        27.3724 
 215   0.0000       1.012016        27.5384 
 216   0.0000       1.020083        27.7579 
 217   0.0000       1.026053        27.9203 
 218   0.0000       1.034738        28.1566 
 219   0.0000       1.043412        28.3927 
 220   0.0000       1.054041        28.6819 
 221   0.0000       1.056010        28.7355 
 222   0.0000       1.062439        28.9104 
 223   0.0000       1.071633        29.1606 
 224   0.0000       1.081612        29.4322 
 225   0.0000       1.088354        29.6156 
 226   0.0000       1.092365        29.7248 
 227   0.0000       1.106176        30.1006 
 228   0.0000       1.107270        30.1303 
 229   0.0000       1.115336        30.3498 
 230   0.0000       1.118934        30.4477 
 231   0.0000       1.123718        30.5779 
 232   0.0000       1.137251        30.9462 
 233   0.0000       1.142430        31.0871 
 234   0.0000       1.150473        31.3060 
 235   0.0000       1.151702        31.3394 
 236   0.0000       1.159879        31.5619 
 237   0.0000       1.169773        31.8311 
 238   0.0000       1.172289        31.8996 
 239   0.0000       1.184426        32.2299 
 240   0.0000       1.192954        32.4619 
 241   0.0000       1.199234        32.6328 
 242   0.0000       1.205042        32.7909 
 243   0.0000       1.208811        32.8934 
 244   0.0000       1.214619        33.0515 
 245   0.0000       1.225006        33.3341 
 246   0.0000       1.228204        33.4211 
 247   0.0000       1.242449        33.8088 
 248   0.0000       1.249382        33.9974 
 249   0.0000       1.254960        34.1492 
 250   0.0000       1.259455        34.2715 
 251   0.0000       1.274725        34.6870 
 252   0.0000       1.279162        34.8078 
 253   0.0000       1.282327        34.8939 
 254   0.0000       1.290971        35.1291 
 255   0.0000       1.302476        35.4422 
 256   0.0000       1.305509        35.5247 
 257   0.0000       1.315152        35.7871 
 258   0.0000       1.317582        35.8532 
 259   0.0000       1.324003        36.0279 
 260   0.0000       1.338236        36.4153 
 261   0.0000       1.351509        36.7764 
 262   0.0000       1.354676        36.8626 
 263   0.0000       1.362904        37.0865 
 264   0.0000       1.369754        37.2729 
 265   0.0000       1.378420        37.5087 
 266   0.0000       1.387888        37.7664 
 267   0.0000       1.390704        37.8430 
 268   0.0000       1.405040        38.2331 
 269   0.0000       1.407401        38.2973 
 270   0.0000       1.414863        38.5004 
 271   0.0000       1.428364        38.8678 
 272   0.0000       1.437260        39.1098 
 273   0.0000       1.443300        39.2742 
 274   0.0000       1.450975        39.4830 
 275   0.0000       1.463908        39.8350 
 276   0.0000       1.466007        39.8921 
 277   0.0000       1.476000        40.1640 
 278   0.0000       1.478715        40.2379 
 279   0.0000       1.482654        40.3451 
 280   0.0000       1.495616        40.6978 
 281   0.0000       1.503430        40.9104 
 282   0.0000       1.504915        40.9508 
 283   0.0000       1.511753        41.1369 
 284   0.0000       1.514744        41.2183 
 285   0.0000       1.522232        41.4220 
 286   0.0000       1.534569        41.7578 
 287   0.0000       1.539547        41.8932 
 288   0.0000       1.543482        42.0003 
 289   0.0000       1.550766        42.1985 
 290   0.0000       1.559459        42.4350 
 291   0.0000       1.560489        42.4631 
 292   0.0000       1.570047        42.7232 
 293   0.0000       1.575888        42.8821 
 294   0.0000       1.579778        42.9879 
 295   0.0000       1.595858        43.4255 
 296   0.0000       1.604391        43.6577 
 297   0.0000       1.611709        43.8568 
 298   0.0000       1.616357        43.9833 
 299   0.0000       1.629338        44.3366 
 300   0.0000       1.629928        44.3526 
 301   0.0000       1.636375        44.5280 
 302   0.0000       1.637841        44.5679 
 303   0.0000       1.645483        44.7759 
 304   0.0000       1.653877        45.0043 
 305   0.0000       1.664978        45.3063 
 306   0.0000       1.666623        45.3511 
 307   0.0000       1.680943        45.7408 
 308   0.0000       1.687801        45.9274 
 309   0.0000       1.700124        46.2627 
 310   0.0000       1.707976        46.4764 
 311   0.0000       1.715706        46.6867 
 312   0.0000       1.724185        46.9175 
 313   0.0000       1.736696        47.2579 
 314   0.0000       1.747208        47.5439 
 315   0.0000       1.756837        47.8060 
 316   0.0000       1.765933        48.0535 
 317   0.0000       1.775487        48.3135 
 318   0.0000       1.784340        48.5544 
 319   0.0000       1.793592        48.8061 
 320   0.0000       1.809684        49.2440 
 321   0.0000       1.818800        49.4921 
 322   0.0000       1.824753        49.6541 
 323   0.0000       1.828064        49.7442 
 324   0.0000       1.854480        50.4630 
 325   0.0000       1.865045        50.7505 
 326   0.0000       1.884923        51.2914 
 327   0.0000       1.898268        51.6545 
 328   0.0000       1.906850        51.8880 
 329   0.0000       1.916087        52.1394 
 330   0.0000       1.920579        52.2616 
 331   0.0000       1.926622        52.4260 
 332   0.0000       1.939713        52.7823 
 333   0.0000       1.949745        53.0553 
 334   0.0000       1.967235        53.5312 
 335   0.0000       1.984123        53.9907 
 336   0.0000       1.991393        54.1886 
 337   0.0000       2.013405        54.7875 
 338   0.0000       2.015632        54.8481 
 339   0.0000       2.024802        55.0977 
 340   0.0000       2.030010        55.2394 
 341   0.0000       2.048084        55.7312 
 342   0.0000       2.051663        55.8286 
 343   0.0000       2.072375        56.3922 
 344   0.0000       2.101847        57.1942 
 345   0.0000       2.121090        57.7178 
 346   0.0000       2.125710        57.8435 
 347   0.0000       2.134688        58.0878 
 348   0.0000       2.152435        58.5707 
 349   0.0000       2.171572        59.0915 
 350   0.0000       2.183736        59.4225 
 351   0.0000       2.201399        59.9031 
 352   0.0000       2.208086        60.0851 
 353   0.0000       2.214109        60.2490 
 354   0.0000       2.231201        60.7141 
 355   0.0000       2.269397        61.7534 
 356   0.0000       2.282591        62.1125 
 357   0.0000       2.288264        62.2668 
 358   0.0000       2.300796        62.6078 
 359   0.0000       2.309809        62.8531 
 360   0.0000       2.317337        63.0580 
 361   0.0000       2.331241        63.4363 
 362   0.0000       2.338595        63.6364 
 363   0.0000       2.351695        63.9929 
 364   0.0000       2.359990        64.2186 
 365   0.0000       2.376625        64.6713 
 366   0.0000       2.381617        64.8071 
 367   0.0000       2.396591        65.2145 
 368   0.0000       2.409571        65.5678 
 369   0.0000       2.414167        65.6928 
 370   0.0000       2.448127        66.6169 
 371   0.0000       2.455051        66.8053 
 372   0.0000       2.470459        67.2246 
 373   0.0000       2.473953        67.3197 
 374   0.0000       2.488687        67.7206 
 375   0.0000       2.496499        67.9332 
 376   0.0000       2.502429        68.0946 
 377   0.0000       2.518267        68.5255 
 378   0.0000       2.523310        68.6628 
 379   0.0000       2.537058        69.0369 
 380   0.0000       2.545919        69.2780 
 381   0.0000       2.569235        69.9125 
 382   0.0000       2.580162        70.2098 
 383   0.0000       2.596730        70.6606 
 384   0.0000       2.597326        70.6768 
 385   0.0000       2.613500        71.1169 
 386   0.0000       2.630207        71.5716 
 387   0.0000       2.638029        71.7844 
 388   0.0000       2.651993        72.1644 
 389   0.0000       2.660044        72.3835 
 390   0.0000       2.672337        72.7180 
 391   0.0000       2.683282        73.0158 
 392   0.0000       2.689348        73.1809 
 393   0.0000       2.704425        73.5911 
 394   0.0000       2.720556        74.0301 
 395   0.0000       2.725244        74.1576 
 396   0.0000       2.736138        74.4541 
 397   0.0000       2.736978        74.4770 
 398   0.0000       2.742904        74.6382 
 399   0.0000       2.754248        74.9469 
 400   0.0000       2.769510        75.3622 
 401   0.0000       2.786613        75.8276 
 402   0.0000       2.792975        76.0007 
 403   0.0000       2.794301        76.0368 
 404   0.0000       2.816603        76.6437 
 405   0.0000       2.818932        76.7070 
 406   0.0000       2.826635        76.9166 
 407   0.0000       2.832853        77.0859 
 408   0.0000       2.839547        77.2680 
 409   0.0000       2.855532        77.7030 
 410   0.0000       2.863773        77.9272 
 411   0.0000       2.883159        78.4547 
 412   0.0000       2.895149        78.7810 
 413   0.0000       2.896237        78.8106 
 414   0.0000       2.908998        79.1579 
 415   0.0000       2.926929        79.6458 
 416   0.0000       2.929516        79.7162 
 417   0.0000       2.941170        80.0333 
 418   0.0000       2.952124        80.3314 
 419   0.0000       2.953658        80.3731 
 420   0.0000       2.962756        80.6207 
 421   0.0000       2.971849        80.8681 
 422   0.0000       2.978863        81.0590 
 423   0.0000       2.994135        81.4746 
 424   0.0000       2.998767        81.6006 
 425   0.0000       3.013644        82.0054 
 426   0.0000       3.019832        82.1738 
 427   0.0000       3.025490        82.3278 
 428   0.0000       3.030355        82.4601 
 429   0.0000       3.034109        82.5623 
 430   0.0000       3.041313        82.7583 
 431   0.0000       3.047619        82.9299 
 432   0.0000       3.061922        83.3191 
 433   0.0000       3.072863        83.6168 
 434   0.0000       3.074218        83.6537 
 435   0.0000       3.082346        83.8749 
 436   0.0000       3.084491        83.9333 
 437   0.0000       3.094166        84.1965 
 438   0.0000       3.096584        84.2623 
 439   0.0000       3.103513        84.4509 
 440   0.0000       3.107946        84.5715 
 441   0.0000       3.116221        84.7967 
 442   0.0000       3.121096        84.9293 
 443   0.0000       3.126667        85.0809 
 444   0.0000       3.138208        85.3950 
 445   0.0000       3.153323        85.8063 
 446   0.0000       3.160157        85.9922 
 447   0.0000       3.165648        86.1417 
 448   0.0000       3.186218        86.7014 
 449   0.0000       3.190983        86.8310 
 450   0.0000       3.194507        86.9269 
 451   0.0000       3.198729        87.0418 
 452   0.0000       3.206211        87.2454 
 453   0.0000       3.219916        87.6184 
 454   0.0000       3.222612        87.6917 
 455   0.0000       3.229285        87.8733 
 456   0.0000       3.238872        88.1342 
 457   0.0000       3.248150        88.3867 
 458   0.0000       3.253113        88.5217 
 459   0.0000       3.255350        88.5826 
 460   0.0000       3.261149        88.7404 
 461   0.0000       3.268956        88.9528 
 462   0.0000       3.277452        89.1840 
 463   0.0000       3.284007        89.3624 
 464   0.0000       3.298618        89.7600 
 465   0.0000       3.302833        89.8747 
 466   0.0000       3.311122        90.1002 
 467   0.0000       3.318918        90.3123 
 468   0.0000       3.320990        90.3687 
 469   0.0000       3.325470        90.4907 
 470   0.0000       3.333994        90.7226 
 471   0.0000       3.338396        90.8424 
 472   0.0000       3.343712        90.9870 
 473   0.0000       3.353890        91.2640 
 474   0.0000       3.362290        91.4925 
 475   0.0000       3.365426        91.5779 
 476   0.0000       3.368456        91.6603 
 477   0.0000       3.374895        91.8356 
 478   0.0000       3.381996        92.0288 
 479   0.0000       3.387220        92.1709 
 480   0.0000       3.389850        92.2425 
 481   0.0000       3.398405        92.4753 
 482   0.0000       3.403809        92.6223 
 483   0.0000       3.404757        92.6482 
 484   0.0000       3.411358        92.8278 
 485   0.0000       3.412717        92.8647 
 486   0.0000       3.423806        93.1665 
 487   0.0000       3.428867        93.3042 
 488   0.0000       3.434982        93.4706 
 489   0.0000       3.439035        93.5809 
 490   0.0000       3.442640        93.6790 
 491   0.0000       3.446692        93.7893 
 492   0.0000       3.454939        94.0137 
 493   0.0000       3.466489        94.3280 
 494   0.0000       3.467559        94.3571 
 495   0.0000       3.473508        94.5190 
 496   0.0000       3.483251        94.7841 
 497   0.0000       3.489125        94.9439 
 498   0.0000       3.496678        95.1494 
 499   0.0000       3.505169        95.3805 
 500   0.0000       3.509307        95.4931 
 501   0.0000       3.514102        95.6236 
 502   0.0000       3.524614        95.9096 
 503   0.0000       3.528797        96.0234 
 504   0.0000       3.533947        96.1636 
 505   0.0000       3.539202        96.3066 
 506   0.0000       3.542292        96.3907 
 507   0.0000       3.558505        96.8318 
 508   0.0000       3.564878        97.0053 
 509   0.0000       3.578534        97.3769 
 510   0.0000       3.585408        97.5639 
 511   0.0000       3.594379        97.8080 
 512   0.0000       3.600744        97.9812 
 513   0.0000       3.611429        98.2720 
 514   0.0000       3.615921        98.3942 
 515   0.0000       3.627024        98.6963 
 516   0.0000       3.630712        98.7967 
 517   0.0000       3.634640        98.9036 
 518   0.0000       3.638458        99.0075 
 519   0.0000       3.645141        99.1893 
 520   0.0000       3.648672        99.2854 
 521   0.0000       3.655600        99.4739 
 522   0.0000       3.663959        99.7014 
 523   0.0000       3.668479        99.8244 
 524   0.0000       3.678885       100.1076 
 525   0.0000       3.684004       100.2469 
 526   0.0000       3.688326       100.3644 
 527   0.0000       3.691704       100.4564 
 528   0.0000       3.694353       100.5285 
 529   0.0000       3.705170       100.8228 
 530   0.0000       3.710969       100.9806 
 531   0.0000       3.716909       101.1422 
 532   0.0000       3.721461       101.2661 
 533   0.0000       3.728201       101.4495 
 534   0.0000       3.736988       101.6886 
 535   0.0000       3.750553       102.0577 
 536   0.0000       3.753645       102.1419 
 537   0.0000       3.759613       102.3043 
 538   0.0000       3.762012       102.3696 
 539   0.0000       3.768643       102.5500 
 540   0.0000       3.779462       102.8444 
 541   0.0000       3.783003       102.9407 
 542   0.0000       3.791707       103.1776 
 543   0.0000       3.800431       103.4150 
 544   0.0000       3.807778       103.6149 
 545   0.0000       3.811279       103.7102 
 546   0.0000       3.815581       103.8272 
 547   0.0000       3.824622       104.0732 
 548   0.0000       3.833428       104.3129 
 549   0.0000       3.837173       104.4148 
 550   0.0000       3.850432       104.7756 
 551   0.0000       3.855266       104.9071 
 552   0.0000       3.862184       105.0954 
 553   0.0000       3.884413       105.7003 
 554   0.0000       3.887979       105.7973 
 555   0.0000       3.889758       105.8457 
 556   0.0000       3.901701       106.1707 
 557   0.0000       3.916285       106.5675 
 558   0.0000       3.922938       106.7486 
 559   0.0000       3.931009       106.9682 
 560   0.0000       3.936639       107.1214 
 561   0.0000       3.941280       107.2477 
 562   0.0000       3.950691       107.5038 
 563   0.0000       3.963250       107.8455 
 564   0.0000       3.967282       107.9552 
 565   0.0000       3.972942       108.1092 
 566   0.0000       3.993649       108.6727 
 567   0.0000       4.001680       108.8912 
 568   0.0000       4.015056       109.2552 
 569   0.0000       4.015953       109.2796 
 570   0.0000       4.021167       109.4215 
 571   0.0000       4.037473       109.8652 
 572   0.0000       4.050419       110.2175 
 573   0.0000       4.053302       110.2959 
 574   0.0000       4.065810       110.6363 
 575   0.0000       4.066583       110.6574 
 576   0.0000       4.078151       110.9721 
 577   0.0000       4.084317       111.1399 
 578   0.0000       4.090775       111.3157 
 579   0.0000       4.105070       111.7046 
 580   0.0000       4.112282       111.9009 
 581   0.0000       4.119794       112.1053 
 582   0.0000       4.123280       112.2002 
 583   0.0000       4.130737       112.4031 
 584   0.0000       4.132491       112.4508 
 585   0.0000       4.145162       112.7956 
 586   0.0000       4.150589       112.9433 
 587   0.0000       4.157512       113.1316 
 588   0.0000       4.163098       113.2836 
 589   0.0000       4.167758       113.4105 
 590   0.0000       4.171844       113.5216 
 591   0.0000       4.177448       113.6741 
 592   0.0000       4.191853       114.0661 
 593   0.0000       4.197678       114.2246 
 594   0.0000       4.204783       114.4180 
 595   0.0000       4.219097       114.8075 
 596   0.0000       4.222964       114.9127 
 597   0.0000       4.231867       115.1550 
 598   0.0000       4.235215       115.2461 
 599   0.0000       4.243177       115.4627 
 600   0.0000       4.248906       115.6186 
 601   0.0000       4.255519       115.7986 
 602   0.0000       4.266127       116.0872 
 603   0.0000       4.268109       116.1412 
 604   0.0000       4.279941       116.4631 
 605   0.0000       4.284554       116.5886 
 606   0.0000       4.308725       117.2464 
 607   0.0000       4.313306       117.3710 
 608   0.0000       4.318685       117.5174 
 609   0.0000       4.328202       117.7764 
 610   0.0000       4.333512       117.9208 
 611   0.0000       4.340280       118.1050 
 612   0.0000       4.349540       118.3570 
 613   0.0000       4.358740       118.6073 
 614   0.0000       4.363238       118.7297 
 615   0.0000       4.377794       119.1258 
 616   0.0000       4.383811       119.2896 
 617   0.0000       4.389847       119.4538 
 618   0.0000       4.395278       119.6016 
 619   0.0000       4.400508       119.7439 
 620   0.0000       4.409171       119.9797 
 621   0.0000       4.411809       120.0514 
 622   0.0000       4.427117       120.4680 
 623   0.0000       4.440265       120.8258 
 624   0.0000       4.448154       121.0404 
 625   0.0000       4.456334       121.2630 
 626   0.0000       4.457594       121.2973 
 627   0.0000       4.469335       121.6168 
 628   0.0000       4.485996       122.0702 
 629   0.0000       4.493992       122.2877 
 630   0.0000       4.500743       122.4714 
 631   0.0000       4.505816       122.6095 
 632   0.0000       4.514339       122.8414 
 633   0.0000       4.516637       122.9039 
 634   0.0000       4.533209       123.3549 
 635   0.0000       4.537547       123.4729 
 636   0.0000       4.544302       123.6567 
 637   0.0000       4.555789       123.9693 
 638   0.0000       4.565628       124.2371 
 639   0.0000       4.574052       124.4663 
 640   0.0000       4.585487       124.7774 
 641   0.0000       4.590933       124.9256 
 642   0.0000       4.604633       125.2984 
 643   0.0000       4.607846       125.3859 
 644   0.0000       4.627244       125.9137 
 645   0.0000       4.632526       126.0574 
 646   0.0000       4.634805       126.1195 
 647   0.0000       4.638438       126.2183 
 648   0.0000       4.642496       126.3287 
 649   0.0000       4.649652       126.5235 
 650   0.0000       4.662813       126.8816 
 651   0.0000       4.670563       127.0925 
 652   0.0000       4.678453       127.3072 
 653   0.0000       4.681671       127.3948 
 654   0.0000       4.692256       127.6828 
 655   0.0000       4.700624       127.9105 
 656   0.0000       4.708531       128.1256 
 657   0.0000       4.718150       128.3874 
 658   0.0000       4.723895       128.5437 
 659   0.0000       4.730195       128.7152 
 660   0.0000       4.753981       129.3624 
 661   0.0000       4.767991       129.7436 
 662   0.0000       4.778073       130.0180 
 663   0.0000       4.779258       130.0502 
 664   0.0000       4.805635       130.7680 
 665   0.0000       4.828785       131.3979 
 666   0.0000       4.848503       131.9345 
 667   0.0000       4.858579       132.2087 
 668   0.0000       4.890842       133.0866 
 669   0.0000       4.894613       133.1892 
 670   0.0000       4.904118       133.4478 
 671   0.0000       4.917592       133.8145 
 672   0.0000       4.936131       134.3190 
 673   0.0000       4.948483       134.6551 
 674   0.0000       4.953863       134.8015 
 675   0.0000       4.988739       135.7505 
 676   0.0000       5.006879       136.2441 
 677   0.0000       5.015938       136.4906 
 678   0.0000       5.026397       136.7752 
 679   0.0000       5.046943       137.3343 
 680   0.0000       5.051886       137.4688 
 681   0.0000       5.063762       137.7920 
 682   0.0000       5.076730       138.1448 
 683   0.0000       5.081584       138.2769 
 684   0.0000       5.094302       138.6230 
 685   0.0000       5.101484       138.8184 
 686   0.0000       5.125750       139.4787 
 687   0.0000       5.136312       139.7662 
 688   0.0000       5.145842       140.0255 
 689   0.0000       5.153050       140.2216 
 690   0.0000       5.165806       140.5687 
 691   0.0000       5.176596       140.8623 
 692   0.0000       5.181422       140.9937 
 693   0.0000       5.198310       141.4532 
 694   0.0000       5.205449       141.6475 
 695   0.0000       5.212027       141.8265 
 696   0.0000       5.219803       142.0380 
 697   0.0000       5.228286       142.2689 
 698   0.0000       5.238319       142.5419 
 699   0.0000       5.247975       142.8047 
 700   0.0000       5.257172       143.0549 
 701   0.0000       5.270353       143.4136 
 702   0.0000       5.293765       144.0507 
 703   0.0000       5.308697       144.4570 
 704   0.0000       5.322710       144.8383 
 705   0.0000       5.325846       144.9236 
 706   0.0000       5.337009       145.2274 
 707   0.0000       5.352931       145.6607 
 708   0.0000       5.361164       145.8847 
 709   0.0000       5.367179       146.0484 
 710   0.0000       5.386509       146.5744 
 711   0.0000       5.417283       147.4118 
 712   0.0000       5.430228       147.7640 
 713   0.0000       5.464118       148.6862 
 714   0.0000       5.467030       148.7655 
 715   0.0000       5.485270       149.2618 
 716   0.0000       5.500622       149.6795 
 717   0.0000       5.512804       150.0110 
 718   0.0000       5.513615       150.0331 
 719   0.0000       5.516354       150.1076 
 720   0.0000       5.520253       150.2137 
 721   0.0000       5.548268       150.9760 
 722   0.0000       5.554260       151.1391 
 723   0.0000       5.565760       151.4520 
 724   0.0000       5.589058       152.0860 
 725   0.0000       5.604632       152.5098 
 726   0.0000       5.618370       152.8836 
 727   0.0000       5.629163       153.1773 
 728   0.0000       5.638361       153.4276 
 729   0.0000       5.647428       153.6743 
 730   0.0000       5.649174       153.7218 
 731   0.0000       5.657327       153.9437 
 732   0.0000       5.665823       154.1749 
 733   0.0000       5.673361       154.3800 
 734   0.0000       5.687444       154.7632 
 735   0.0000       5.704536       155.2283 
 736   0.0000       5.713152       155.4628 
 737   0.0000       5.725962       155.8113 
 738   0.0000       5.735531       156.0717 
 739   0.0000       5.755805       156.6234 
 740   0.0000       5.771628       157.0540 
 741   0.0000       5.783825       157.3859 
 742   0.0000       5.792722       157.6280 
 743   0.0000       5.812893       158.1769 
 744   0.0000       5.828559       158.6031 
 745   0.0000       5.845676       159.0689 
 746   0.0000       5.850778       159.2078 
 747   0.0000       5.852916       159.2659 
 748   0.0000       5.902496       160.6151 
 749   0.0000       5.912033       160.8746 
 750   0.0000       5.925480       161.2405 
 751   0.0000       5.961924       162.2322 
 752   0.0000       5.976007       162.6154 
 753   0.0000       5.992783       163.0719 
 754   0.0000       6.001788       163.3170 
 755   0.0000       6.037630       164.2923 
 756   0.0000       6.051345       164.6655 
 757   0.0000       6.070755       165.1936 
 758   0.0000       6.072203       165.2330 
 759   0.0000       6.087373       165.6458 
 760   0.0000       6.108520       166.2213 
 761   0.0000       6.158324       167.5765 
 762   0.0000       6.212360       169.0469 
 763   0.0000       6.222735       169.3292 
 764   0.0000       6.232684       169.5999 
 765   0.0000       6.245021       169.9357 
 766   0.0000       6.279428       170.8719 
 767   0.0000       6.342032       172.5755 
 768   0.0000       6.349442       172.7771 
 769   0.0000       6.364298       173.1814 
 770   0.0000       6.372156       173.3952 
 771   0.0000       6.381404       173.6468 
 772   0.0000       6.406969       174.3425 
 773   0.0000       6.439845       175.2371 
 774   0.0000       6.455405       175.6605 
 775   0.0000       6.472535       176.1266 
 776   0.0000       6.506213       177.0431 
 777   0.0000       6.557187       178.4301 
 778   0.0000       6.590994       179.3501 
 779   0.0000       6.628478       180.3700 
 780   0.0000       6.672770       181.5753 
 781   0.0000       6.682591       181.8425 
 782   0.0000       6.728841       183.1011 
 783   0.0000       6.772748       184.2958 
 784   0.0000       6.838860       186.0948 
 785   0.0000       6.869189       186.9201 
 786   0.0000       6.912452       188.0974 
 787   0.0000       6.923005       188.3845 
 788   0.0000       6.950880       189.1431 
 789   0.0000       7.002418       190.5455 
 790   0.0000       7.045594       191.7204 
 791   0.0000       7.058430       192.0696 
 792   0.0000       7.082690       192.7298 
 793   0.0000       7.119013       193.7182 
 794   0.0000       7.259023       197.5281 
 795   0.0000       7.267418       197.7565 
 796   0.0000       7.282174       198.1580 
 797   0.0000       7.294103       198.4826 
 798   0.0000       7.340368       199.7416 
 799   0.0000       7.373276       200.6370 
 800   0.0000       7.393436       201.1856 
 801   0.0000       7.567857       205.9319 
 802   0.0000       7.579787       206.2565 
 803   0.0000       7.591211       206.5673 
 804   0.0000       7.670842       208.7342 
 805   0.0000       7.810599       212.5372 
 806   0.0000       7.816757       212.7048 
 807   0.0000       7.887363       214.6261 
 808   0.0000       7.933850       215.8910 
 809   0.0000       9.352683       254.4994 
 810   0.0000       9.511842       258.8304 
 811   0.0000      10.766464       292.9704 
 812   0.0000      11.135822       303.0211 
 813   0.0000      12.031980       327.4068 
 814   0.0000      12.568749       342.0130 
 815   0.0000      12.935023       351.9799 
 816   0.0000      13.053165       355.1947 
 817   0.0000      13.161478       358.1420 
 818   0.0000      13.260065       360.8247 
 819   0.0000      13.394963       364.4955 
 820   0.0000      13.481802       366.8585 
 821   0.0000      13.750646       374.1741 
 822   0.0000      13.929057       379.0289 
 823   0.0000      13.964296       379.9878 
 824   0.0000      14.034632       381.9017 
 825   0.0000      14.527471       395.3126 
 826   0.0000      14.540103       395.6563 
 827   0.0000      15.947308       433.9483 

                    ********************************
                    * MULLIKEN POPULATION ANALYSIS *
                    ********************************

-----------------------
MULLIKEN ATOMIC CHARGES
-----------------------
   0 C :   -0.264397
   1 C :    0.009423
   2 O :   -0.350896
   3 C :    0.463677
   4 O :   -0.378766
   5 C :   -0.268045
   6 C :    0.180439
   7 C :   -0.304154
   8 N :   -0.130710
   9 C :    0.205168
  10 S :   -0.440094
  11 N :   -0.213745
  12 C :    0.052033
  13 C :    0.026617
  14 C :   -0.187940
  15 C :   -0.131287
  16 C :   -0.277516
  17 C :    0.313546
  18 O :   -0.358339
  19 C :   -0.253441
  20 H :    0.094780
  21 H :    0.107815
  22 H :    0.092465
  23 H :    0.101494
  24 H :    0.114355
  25 H :    0.117480
  26 H :    0.139610
  27 H :    0.114240
  28 H :    0.198392
  29 H :    0.200379
  30 H :    0.159777
  31 H :    0.167586
  32 H :    0.162424
  33 H :    0.129815
  34 H :    0.240785
  35 H :    0.167031
Sum of atomic charges:    0.0000000

--------------------------------
MULLIKEN REDUCED ORBITAL CHARGES
--------------------------------
  0 C s       :     3.260087  s :     3.260087
      pz      :     0.966551  p :     2.928505
      px      :     0.947417
      py      :     1.014538
      dz2     :     0.008335  d :     0.071371
      dxz     :     0.018696
      dyz     :     0.022259
      dx2y2   :     0.014669
      dxy     :     0.007412
      f0      :     0.000221  f :     0.004433
      f+1     :     0.000730
      f-1     :     0.000388
      f+2     :     0.001702
      f-2     :     0.000614
      f+3     :     0.000257
      f-3     :     0.000522
  1 C s       :     3.177713  s :     3.177713
      pz      :     0.929658  p :     2.637391
      px      :     0.707461
      py      :     1.000272
      dz2     :     0.025215  d :     0.163519
      dxz     :     0.034107
      dyz     :     0.034013
      dx2y2   :     0.042683
      dxy     :     0.027501
      f0      :     0.000816  f :     0.011954
      f+1     :     0.002379
      f-1     :     0.000640
      f+2     :     0.002616
      f-2     :     0.001758
      f+3     :     0.001935
      f-3     :     0.001809
  2 O s       :     3.726900  s :     3.726900
      pz      :     1.557768  p :     4.587145
      px      :     1.223898
      py      :     1.805479
      dz2     :     0.004630  d :     0.034581
      dxz     :     0.017079
      dyz     :     0.003616
      dx2y2   :     0.005059
      dxy     :     0.004197
      f0      :     0.000121  f :     0.002269
      f+1     :     0.000345
      f-1     :     0.000038
      f+2     :     0.000591
      f-2     :     0.000280
      f+3     :     0.000457
      f-3     :     0.000438
  3 C s       :     3.030842  s :     3.030842
      pz      :     0.714555  p :     2.193964
      px      :     0.702141
      py      :     0.777268
      dz2     :     0.030829  d :     0.285090
      dxz     :     0.073343
      dyz     :     0.040814
      dx2y2   :     0.081835
      dxy     :     0.058269
      f0      :     0.002657  f :     0.026427
      f+1     :     0.003431
      f-1     :     0.001830
      f+2     :     0.002295
      f-2     :     0.006140
      f+3     :     0.005028
      f-3     :     0.005046
  4 O s       :     3.769423  s :     3.769423
      pz      :     1.610969  p :     4.571137
      px      :     1.490304
      py      :     1.469864
      dz2     :     0.003972  d :     0.035752
      dxz     :     0.005337
      dyz     :     0.004736
      dx2y2   :     0.009965
      dxy     :     0.011742
      f0      :     0.000260  f :     0.002454
      f+1     :     0.000248
      f-1     :     0.000215
      f+2     :     0.000016
      f-2     :     0.000389
      f+3     :     0.000644
      f-3     :     0.000684
  5 C s       :     3.202900  s :     3.202900
      pz      :     0.961314  p :     2.969290
      px      :     1.101633
      py      :     0.906343
      dz2     :     0.015731  d :     0.085546
      dxz     :     0.012825
      dyz     :     0.026091
      dx2y2   :     0.015406
      dxy     :     0.015492
      f0      :     0.000781  f :     0.010310
      f+1     :     0.001256
      f-1     :     0.001691
      f+2     :     0.002230
      f-2     :     0.001200
      f+3     :     0.001411
      f-3     :     0.001742
  6 C s       :     3.170064  s :     3.170064
      pz      :     0.841338  p :     2.458199
      px      :     0.851362
      py      :     0.765498
      dz2     :     0.033326  d :     0.176939
      dxz     :     0.019036
      dyz     :     0.050221
      dx2y2   :     0.028323
      dxy     :     0.046034
      f0      :     0.001701  f :     0.014359
      f+1     :     0.001144
      f-1     :     0.002894
      f+2     :     0.002582
      f-2     :     0.002243
      f+3     :     0.001921
      f-3     :     0.001873
  7 C s       :     3.286442  s :     3.286442
      pz      :     0.918580  p :     2.942126
      px      :     0.992920
      py      :     1.030626
      dz2     :     0.019773  d :     0.070914
      dxz     :     0.014438
      dyz     :     0.009245
      dx2y2   :     0.021484
      dxy     :     0.005975
      f0      :     0.000472  f :     0.004672
      f+1     :     0.001493
      f-1     :     0.000753
      f+2     :     0.000391
      f-2     :     0.000481
      f+3     :     0.000160
      f-3     :     0.000922
  8 N s       :     3.348860  s :     3.348860
      pz      :     1.236579  p :     3.717502
      px      :     1.383344
      py      :     1.097579
      dz2     :     0.013283  d :     0.059389
      dxz     :     0.009748
      dyz     :     0.014415
      dx2y2   :     0.009967
      dxy     :     0.011977
      f0      :     0.000592  f :     0.004960
      f+1     :     0.000963
      f-1     :     0.000660
      f+2     :     0.001006
      f-2     :     0.000908
      f+3     :     0.000452
      f-3     :     0.000379
  9 C s       :     3.161833  s :     3.161833
      pz      :     0.760303  p :     2.353372
      px      :     0.709028
      py      :     0.884041
      dz2     :     0.061413  d :     0.262059
      dxz     :     0.033778
      dyz     :     0.052762
      dx2y2   :     0.054047
      dxy     :     0.060059
      f0      :     0.002646  f :     0.017568
      f+1     :     0.002419
      f-1     :     0.002405
      f+2     :     0.002724
      f-2     :     0.002302
      f+3     :     0.002337
      f-3     :     0.002736
 10 S s       :     5.855112  s :     5.855112
      pz      :     3.529804  p :    10.489999
      px      :     3.710212
      py      :     3.249983
      dz2     :     0.009311  d :     0.084853
      dxz     :     0.004039
      dyz     :     0.037182
      dx2y2   :     0.018934
      dxy     :     0.015387
      f0      :     0.001197  f :     0.010130
      f+1     :     0.000086
      f-1     :     0.001871
      f+2     :     0.003051
      f-2     :     0.001292
      f+3     :     0.001469
      f-3     :     0.001164
 11 N s       :     3.382553  s :     3.382553
      pz      :     1.341018  p :     3.768667
      px      :     1.388520
      py      :     1.039129
      dz2     :     0.007975  d :     0.058102
      dxz     :     0.008084
      dyz     :     0.013860
      dx2y2   :     0.013333
      dxy     :     0.014850
      f0      :     0.000374  f :     0.004422
      f+1     :     0.000578
      f-1     :     0.000550
      f+2     :     0.000643
      f-2     :     0.000702
      f+3     :     0.000825
      f-3     :     0.000750
 12 C s       :     3.111199  s :     3.111199
      pz      :     0.862077  p :     2.639757
      px      :     1.008784
      py      :     0.768896
      dz2     :     0.034486  d :     0.185612
      dxz     :     0.031994
      dyz     :     0.041499
      dx2y2   :     0.043209
      dxy     :     0.034424
      f0      :     0.001172  f :     0.011399
      f+1     :     0.001114
      f-1     :     0.002012
      f+2     :     0.002679
      f-2     :     0.001698
      f+3     :     0.001534
      f-3     :     0.001190
 13 C s       :     3.101929  s :     3.101929
      pz      :     0.915570  p :     2.751199
      px      :     0.910779
      py      :     0.924849
      dz2     :     0.019933  d :     0.109040
      dxz     :     0.010642
      dyz     :     0.031385
      dx2y2   :     0.024359
      dxy     :     0.022722
      f0      :     0.001186  f :     0.011215
      f+1     :     0.001583
      f-1     :     0.001228
[...]
      f-1     :     0.006158
      f+2     :     0.005912
      f-2     :     0.006150
      f+3     :     0.005587
      f-3     :     0.008727
 15 C s       :     2.705912  s :     2.705912
      pz      :     0.919792  p :     2.795463
      px      :     0.913246
      py      :     0.962424
      dz2     :     0.106177  d :     0.415079
      dxz     :     0.067852
      dyz     :     0.069657
      dx2y2   :     0.081524
      dxy     :     0.089870
      f0      :     0.003899  f :     0.040964
      f+1     :     0.005651
      f-1     :     0.006808
      f+2     :     0.006793
      f-2     :     0.007072
      f+3     :     0.005719
      f-3     :     0.005023
 16 C s       :     2.702112  s :     2.702112
      pz      :     0.946210  p :     2.867723
      px      :     0.956967
      py      :     0.964547
      dz2     :     0.054740  d :     0.390657
      dxz     :     0.055873
      dyz     :     0.098077
      dx2y2   :     0.088080
      dxy     :     0.093887
      f0      :     0.005327  f :     0.040276
      f+1     :     0.005323
      f-1     :     0.003645
      f+2     :     0.005149
      f-2     :     0.006654
      f+3     :     0.006429
      f-3     :     0.007748
 17 C s       :     2.701742  s :     2.701742
      pz      :     0.844422  p :     2.684359
      px      :     0.820065
      py      :     1.019872
      dz2     :     0.142131  d :     0.707666
      dxz     :     0.118876
      dyz     :     0.145873
      dx2y2   :     0.154840
      dxy     :     0.145945
      f0      :     0.012846  f :     0.099189
      f+1     :     0.016109
      f-1     :     0.010127
      f+2     :     0.014602
      f-2     :     0.017837
      f+3     :     0.011760
      f-3     :     0.015907
 18 O s       :     3.177390  s :     3.177390
      pz      :     1.389369  p :     4.348629
      px      :     1.477227
      py      :     1.482033
      dz2     :     0.010360  d :     0.075575
      dxz     :     0.018328
      dyz     :     0.020410
      dx2y2   :     0.016699
      dxy     :     0.009778
      f0      :     0.000680  f :     0.005074
      f+1     :     0.000805
      f-1     :     0.000401
      f+2     :     0.000978
      f-2     :     0.000965
      f+3     :     0.000509
      f-3     :     0.000736
 19 C s       :     2.695677  s :     2.695677
      pz      :     0.944505  p :     2.847723
      px      :     0.942093
      py      :     0.961125
      dz2     :     0.087156  d :     0.388480
      dxz     :     0.064770
      dyz     :     0.074202
      dx2y2   :     0.073406
      dxy     :     0.088946
      f0      :     0.003835  f :     0.040794
      f+1     :     0.005826
      f-1     :     0.006541
      f+2     :     0.006964
      f-2     :     0.007376
      f+3     :     0.005587
      f-3     :     0.004665
 20 H s       :     0.845315  s :     0.845315
      pz      :     0.043327  p :     0.150673
      px      :     0.064690
      py      :     0.042657
      dz2     :     0.003873  d :     0.027379
      dxz     :     0.007408
      dyz     :     0.002217
      dx2y2   :     0.007081
      dxy     :     0.006800
 21 H s       :     0.844478  s :     0.844478
      pz      :     0.059866  p :     0.150342
      px      :     0.039159
      py      :     0.051317
      dz2     :     0.007770  d :     0.027456
      dxz     :     0.005974
      dyz     :     0.006714
      dx2y2   :     0.004047
      dxy     :     0.002951
 22 H s       :     0.852138  s :     0.852138
      pz      :     0.044217  p :     0.151233
      px      :     0.038763
      py      :     0.068253
      dz2     :     0.003416  d :     0.027567
      dxz     :     0.001731
      dyz     :     0.008463
      dx2y2   :     0.006227
      dxy     :     0.007729
 23 H s       :     0.860810  s :     0.860810
      pz      :     0.064836  p :     0.149145
      px      :     0.032142
      py      :     0.052166
      dz2     :     0.008321  d :     0.027190
      dxz     :     0.005450
      dyz     :     0.006893
      dx2y2   :     0.003392
      dxy     :     0.003134
 24 H s       :     0.854438  s :     0.854438
      pz      :     0.042422  p :     0.144631
      px      :     0.026931
      py      :     0.075279
      dz2     :     0.003465  d :     0.026861
      dxz     :     0.001484
      dyz     :     0.009017
      dx2y2   :     0.007177
      dxy     :     0.005719
 25 H s       :     0.833742  s :     0.833742
      pz      :     0.038528  p :     0.152593
      px      :     0.070676
      py      :     0.043389
      dz2     :     0.002351  d :     0.027828
      dxz     :     0.008453
      dyz     :     0.000605
      dx2y2   :     0.008375
      dxy     :     0.008045
 26 H s       :     0.826792  s :     0.826792
      pz      :     0.060619  p :     0.151307
      px      :     0.044885
      py      :     0.045803
      dz2     :     0.008522  d :     0.027769
      dxz     :     0.006663
      dyz     :     0.006179
      dx2y2   :     0.004006
      dxy     :     0.002400
 27 H s       :     0.840112  s :     0.840112
      pz      :     0.036995  p :     0.149923
      px      :     0.040025
      py      :     0.072903
      dz2     :     0.002463  d :     0.027725
      dxz     :     0.000239
      dyz     :     0.009120
      dx2y2   :     0.006694
      dxy     :     0.009209
 28 H s       :     0.742570  s :     0.742570
      pz      :     0.061087  p :     0.253802
      px      :     0.084515
      py      :     0.108200
      dz2     :     0.006643  d :     0.061814
      dxz     :     0.003556
      dyz     :     0.016027
      dx2y2   :     0.017322
      dxy     :     0.018266
 29 H s       :     0.747879  s :     0.747879
      pz      :     0.112769  p :     0.254029
      px      :     0.097984
      py      :     0.043276
      dz2     :     0.021446  d :     0.061314
      dxz     :     0.015564
      dyz     :     0.009710
      dx2y2   :     0.008503
      dxy     :     0.006091
 30 H s       :     0.823642  s :     0.823642
      pz      :     0.044475  p :     0.153615
      px      :     0.071666
      py      :     0.037475
      dz2     :     0.003764  d :     0.029166
      dxz     :     0.008636
      dyz     :     0.002434
      dx2y2   :     0.007781
      dxy     :     0.006551
 31 H s       :     0.838692  s :     0.838692
      pz      :     0.059516  p :     0.156257
      px      :     0.062715
      py      :     0.034027
      dz2     :     0.006339  d :     0.027421
      dxz     :     0.007370
      dyz     :     0.004157
      dx2y2   :     0.004658
      dxy     :     0.004897
 32 H s       :     0.842282  s :     0.842282
      pz      :     0.035820  p :     0.151100
      px      :     0.044585
      py      :     0.070695
      dz2     :     0.002650  d :     0.026448
      dxz     :     0.001581
      dyz     :     0.006541
      dx2y2   :     0.007882
      dxy     :     0.007794
 33 H s       :     0.848772  s :     0.848772
      pz      :     0.057867  p :     0.159005
      px      :     0.043583
      py      :     0.057555
      dz2     :     0.006440  d :     0.027749
      dxz     :     0.004174
      dyz     :     0.006975
      dx2y2   :     0.005133
      dxy     :     0.005026
 34 H s       :     0.706623  s :     0.706623
      pz      :     0.108099  p :     0.347780
      px      :     0.085108
      py      :     0.154573
      dz2     :     0.022725  d :     0.099537
      dxz     :     0.011203
      dyz     :     0.024905
      dx2y2   :     0.019669
      dxy     :     0.021034
 35 H s       :     0.839060  s :     0.839060
      pz      :     0.038335  p :     0.157096
      px      :     0.046917
      py      :     0.071843
      dz2     :     0.002625  d :     0.027921
      dxz     :     0.001763
      dyz     :     0.007044
      dx2y2   :     0.008332
      dxy     :     0.008158


                      *****************************
                      * MAYER POPULATION ANALYSIS *
                      *****************************

  NA   - Mulliken gross atomic population
  ZA   - Total nuclear charge
  QA   - Mulliken gross atomic charge
  VA   - Mayer's total valence
  BVA  - Mayer's bonded valence
  FA   - Mayer's free valence

  ATOM       NA         ZA         QA         VA         BVA        FA
  0 C      6.2644     6.0000    -0.2644     3.8949     3.8949    -0.0000
  1 C      5.9906     6.0000     0.0094     3.8670     3.8670     0.0000
  2 O      8.3509     8.0000    -0.3509     1.9933     1.9933     0.0000
  3 C      5.5363     6.0000     0.4637     4.2324     4.2324     0.0000
  4 O      8.3788     8.0000    -0.3788     2.1309     2.1309     0.0000
  5 C      6.2680     6.0000    -0.2680     3.6019     3.6019     0.0000
  6 C      5.8196     6.0000     0.1804     3.8314     3.8314    -0.0000
  7 C      6.3042     6.0000    -0.3042     3.8920     3.8920     0.0000
  8 N      7.1307     7.0000    -0.1307     3.2887     3.2887    -0.0000
  9 C      5.7948     6.0000     0.2052     4.1556     4.1556     0.0000
 10 S     16.4401    16.0000    -0.4401     1.7564     1.7564    -0.0000
 11 N      7.2137     7.0000    -0.2137     3.2535     3.2535    -0.0000
 12 C      5.9480     6.0000     0.0520     3.9399     3.9399    -0.0000
 13 C      5.9734     6.0000     0.0266     3.7659     3.7659     0.0000
 14 C      6.1879     6.0000    -0.1879     3.8685     3.8685    -0.0000
 15 C      6.1313     6.0000    -0.1313     3.8031     3.8031    -0.0000
 16 C      6.2775     6.0000    -0.2775     3.7957     3.7957     0.0000
 17 C      5.6865     6.0000     0.3135     3.8603     3.8603     0.0000
 18 O      8.3583     8.0000    -0.3583     2.1157     2.1157    -0.0000
 19 C      6.2534     6.0000    -0.2534     3.8416     3.8416     0.0000
 20 H      0.9052     1.0000     0.0948     0.9822     0.9822    -0.0000
 21 H      0.8922     1.0000     0.1078     0.9840     0.9840     0.0000
 22 H      0.9075     1.0000     0.0925     0.9817     0.9817    -0.0000
 23 H      0.8985     1.0000     0.1015     0.9693     0.9693     0.0000
 24 H      0.8856     1.0000     0.1144     0.9788     0.9788    -0.0000
 25 H      0.8825     1.0000     0.1175     0.9715     0.9715     0.0000
 26 H      0.8604     1.0000     0.1396     0.9784     0.9784     0.0000
 27 H      0.8858     1.0000     0.1142     0.9866     0.9866     0.0000
 28 H      0.8016     1.0000     0.1984     1.0216     1.0216     0.0000
 29 H      0.7996     1.0000     0.2004     1.0142     1.0142    -0.0000
 30 H      0.8402     1.0000     0.1598     0.9921     0.9921    -0.0000
 31 H      0.8324     1.0000     0.1676     0.9877     0.9877    -0.0000
 32 H      0.8376     1.0000     0.1624     0.9765     0.9765     0.0000
 33 H      0.8702     1.0000     0.1298     0.9918     0.9918    -0.0000
 34 H      0.7592     1.0000     0.2408     1.0104     1.0104    -0.0000
 35 H      0.8330     1.0000     0.1670     0.9891     0.9891     0.0000

  Mayer bond orders larger than 0.100000
B(  0-C ,  1-C ) :   0.9766 B(  0-C , 20-H ) :   0.9755 B(  0-C , 21-H ) :   0.9768 
B(  0-C , 22-H ) :   0.9780 B(  1-C ,  2-O ) :   0.8987 B(  1-C , 23-H ) :   0.9661 
B(  1-C , 24-H ) :   0.9787 B(  2-O ,  3-C ) :   1.1102 B(  3-C ,  4-O ) :   2.0844 
B(  3-C ,  5-C ) :   0.9759 B(  5-C ,  6-C ) :   1.6761 B(  5-C , 12-C ) :   0.9535 
B(  6-C ,  7-C ) :   0.9434 B(  6-C ,  8-N ) :   1.1315 B(  7-C , 25-H ) :   0.9663 
B(  7-C , 26-H ) :   0.9653 B(  7-C , 27-H ) :   0.9894 B(  8-N ,  9-C ) :   1.1864 
B(  8-N , 28-H ) :   0.9478 B(  9-C , 10-S ) :   1.6119 B(  9-C , 11-N ) :   1.3008 
B( 11-N , 12-C ) :   0.9836 B( 11-N , 29-H ) :   0.9487 B( 12-C , 13-C ) :   0.9714 
B( 12-C , 30-H ) :   0.9938 B( 13-C , 14-C ) :   1.3821 B( 13-C , 19-C ) :   1.3599 
B( 14-C , 15-C ) :   1.3954 B( 14-C , 31-H ) :   0.9608 B( 15-C , 16-C ) :   1.3604 
B( 15-C , 32-H ) :   0.9704 B( 16-C , 17-C ) :   1.3319 B( 16-C , 33-H ) :   0.9855 
B( 17-C , 18-O ) :   1.1056 B( 17-C , 19-C ) :   1.3671 B( 18-O , 34-H ) :   0.9799 
B( 19-C , 35-H ) :   0.9589 

-------
TIMINGS
-------

Total SCF time: 0 days 1 hours 36 min 29 sec 

Total time                  ....    5789.430 sec
Sum of individual times     ....    5781.686 sec  ( 99.9%)

Fock matrix formation       ....    5768.216 sec  ( 99.6%)
Diagonalization             ....       1.343 sec  (  0.0%)
Density matrix formation    ....       0.225 sec  (  0.0%)
Population analysis         ....       0.421 sec  (  0.0%)
Initial guess               ....       5.077 sec  (  0.1%)
Orbital Transformation      ....       0.000 sec  (  0.0%)
Orbital Orthonormalization  ....       0.000 sec  (  0.0%)
DIIS solution               ....       2.467 sec  (  0.0%)
SOSCF solution              ....       2.444 sec  (  0.0%)

------------------------------------------------------------------------------
                                ORCA  MP2 
------------------------------------------------------------------------------

Freezing NCore=48 chemical core electrons

-------------
RI-MP2 ENERGY
-------------
Dimension of the basis                    ...  828
Memory devoted to MP2                     ...  256 MB   
Data format for buffers                   ... DOUBLE
Compression type for matrix containers    ... UNCOMPRESSED
Overall scaling of the MP2 energy         ...   1.000e+00
Calculating two index integrals           ... done (    0.041 sec)
Cholesky decomposition of V**-1           ... done (    0.368 sec)

-----------------
RI-TRANSFORMATION (AUX index driven)
-----------------

Dimension of the orbital-basis         ... 828
Dimension of the aux-basis             ... 2141
Transformation of internal/external MOs...   24-  76 to   77- 827
Number Format for Storage              ... Double (8 Byte)
Integral mode                          ... Direct

First Phase: integral generation and transformation of MO indices
  Aux angular momentum 0               ... done (    5.427 sec)
  Aux angular momentum 1               ... done (    9.042 sec)
  Aux angular momentum 2               ... done (   11.739 sec)
  Aux angular momentum 3               ... done (    8.825 sec)
  Aux angular momentum 4               ... done (    3.142 sec)
Closing buffer VIA ( 0.63 GB; CompressionRatio= 1.00)
  Phase 1 completed in    38.659 sec
Second Phase: sorting and transformation of aux index

IA-Transformation
Memory available                       ... 167 MB 
Max. # MO pairs treated in a batch     ... 12    
# of internal orbitals                 ... 53
# batches for internal orbitals        ... 5
Closing buffer IAV ( 0.63 GB; CompressionRatio= 1.00)
(ia|v) transformation done in    28.416 sec

  Phase 2 completed in    28.444 sec
RI-Integral transformation completed in    67.110 sec
Opening buffers                              ... done

Starting loop over batches of integrals:

Operator 0  - window                       ... ( 24- 76)x( 77-827)
Operator 0  - Memory available             ...   256 MB
Operator 0  - Memory needed per MO         ...  12.3 MB
Operator 0  - Number of orbitals per batch ... 13
Operator 0  - Number of batches            ... 5

OPERATOR  0   PASS   0:  MOs    24 ...   36
  Reading integrals       ... ok
  Internal MO  26
  Internal MO  29
  Internal MO  32
  Internal MO  35
OPERATOR  0   PASS   1:  MOs    37 ...   49
  Reading integrals       ... ok
  Internal MO  38
  Internal MO  41
  Internal MO  44
  Internal MO  47
OPERATOR  0   PASS   2:  MOs    50 ...   62
  Reading integrals       ... ok
  Internal MO  50
  Internal MO  53
  Internal MO  56
  Internal MO  59
  Internal MO  62
OPERATOR  0   PASS   3:  MOs    63 ...   75
  Reading integrals       ... ok
  Internal MO  65
  Internal MO  68
  Internal MO  71
  Internal MO  74
OPERATOR  0   PASS   4:  MOs    76 ...   76
  Reading integrals       ... ok
Time spent in pair loops =   107.306 sec
Deleting buffer (Ka|jb)[aa] ...done

-----------------------------------------------
 RI-MP2 CORRELATION ENERGY:     -3.529963742 Eh
-----------------------------------------------


-------
TIMINGS
-------

Total time                :  175.617 sec
Integral trafo            :   67.126 sec ( 38.2%)
I/O of integrals          :    6.934 sec (  3.9%)
K(i,j) Operators          :   57.064 sec ( 32.5%)
T(i,j) pair energies      :    9.664 sec (  5.5%)
V-calculation             :    0.041 sec (  0.0%)
V**(-1/2)                 :    0.368 sec (  0.2%)
Gamma(ia|P)               :    0.000 sec (  0.0%)
Gamma-Trafo               :    0.000 sec (  0.0%)
D(virtual)                :    0.000 sec (  0.0%)
D(internal)               :    0.000 sec (  0.0%)
W(virtual)                :    0.000 sec (  0.0%)
W(internal)               :    0.000 sec (  0.0%)
L(virtual)                :    0.000 sec (  0.0%)
L(internal)               :    0.000 sec (  0.0%)
G(D)                      :    0.000 sec (  0.0%)
G(Z)                      :    0.000 sec (  0.0%)
Z-Vector Solution         :    0.000 sec (  0.0%)
3-Index Derivative        :    0.000 sec (  0.0%)
2-Index Derivative        :    0.000 sec (  0.0%)
Separable Gradient        :    0.000 sec (  0.0%)


---------------------------------------
MP2 TOTAL ENERGY:    -1274.329182892 Eh
---------------------------------------

-------------------------   --------------------
FINAL SINGLE POINT ENERGY     -1274.329182892263
-------------------------   --------------------


                            ***************************************
                            *     ORCA property calculations      *
                            ***************************************


  WARNING: The energy has been calculated at the MP2 level but the densities
           used in the property calculations are still SCF densities
           MP2 response densities have not been calculated 
           use %mp2 Density relaxed end
           or  %mp2 Density unrelaxed end

                                    ---------------------
                                    Active property flags
                                    ---------------------
   (+) Dipole Moment


------------------------------------------------------------------------------
                       ORCA ELECTRIC PROPERTIES CALCULATION
------------------------------------------------------------------------------

Dipole Moment Calculation                       ... on
Quadrupole Moment Calculation                   ... off
Polarizability Calculation                      ... off
GBWName                                         ... CONFS/Conf940.orca.gbw
Electron density file                           ... CONFS/Conf940.orca.scfp
The origin for moment calculation is the CENTER OF MASS  = (31.918065, 32.917474 33.505720)

-------------
DIPOLE MOMENT
-------------
                                X             Y             Z
Electronic contribution:     11.31043       7.16628       9.90132
Nuclear contribution   :    -12.83380      -8.32244     -10.41002
                        -----------------------------------------
Total Dipole Moment    :     -1.52338      -1.15615      -0.50870
                        -----------------------------------------
Magnitude (a.u.)       :      1.97892
Magnitude (Debye)      :      5.03003



--------------------
Rotational spectrum 
--------------------
 
Rotational constants in cm-1:     0.009931     0.009363     0.006044 
Rotational constants in MHz :   297.715717   280.691358   181.205513 

 Dipole components along the rotational axes: 
x,y,z [a.u.] :     0.822678    -1.499332     0.995665 
x,y,z [Debye]:     2.091082    -3.810998     2.530779 

 

Timings for individual modules:

Sum of individual times         ...     5967.113 sec (=  99.452 min)
GTO integral calculation        ...        1.423 sec (=   0.024 min)   0.0 %
SCF iterations                  ...     5789.463 sec (=  96.491 min)  97.0 %
MP2 module                      ...      176.227 sec (=   2.937 min)   3.0 %
                             ****ORCA TERMINATED NORMALLY****
TOTAL RUN TIME: 0 days 1 hours 39 minutes 28 seconds 403 msec
