
                                 *****************
                                 * O   R   C   A *
                                 *****************

           --- An Ab Initio, DFT and Semiempirical electronic structure package ---

                  #######################################################
                  #                        -***-                        #
                  #          Department of theory and spectroscopy      #
                  #               Directorship: Frank Neese             #
                  #        Max Planck Institute fuer Kohlenforschung    #
                  #                Kaiser Wilhelm Platz 1               #
                  #                 D-45470 Muelheim/Ruhr               #
                  #                      Germany                        #
                  #                                                     #
                  #                  All rights reserved                #
                  #                        -***-                        #
                  #######################################################


                         Program Version 4.2.0 -  RELEASE  -


 With contributions from (in alphabetic order):
   Daniel Aravena         : Magnetic Suceptibility
   Michael Atanasov       : Ab Initio Ligand Field Theory (pilot matlab implementation)
   Alexander A. Auer      : GIAO ZORA, VPT2
   Ute Becker             : Parallelization
   Giovanni Bistoni       : ED, misc. LED, open-shell LED, HFLED
   Martin Brehm           : Molecular dynamics
   Dmytro Bykov           : SCF Hessian
   Vijay G. Chilkuri      : MRCI spin determinant printing, contributions to CSF-ICE
   Dipayan Datta          : RHF DLPNO-CCSD density
   Achintya Kumar Dutta   : EOM-CC, STEOM-CC
   Dmitry Ganyushin       : Spin-Orbit,Spin-Spin,Magnetic field MRCI
   Miquel Garcia          : C-PCM Hessian, Gaussian charge scheme
   Yang Guo               : DLPNO-NEVPT2, CIM, IAO-localization
   Andreas Hansen         : Spin unrestricted coupled pair/coupled cluster methods
   Benjamin Helmich-Paris : CASSCF linear response (MC-RPA)
   Lee Huntington         : MR-EOM, pCC
   Robert Izsak           : Overlap fitted RIJCOSX, COSX-SCS-MP3, EOM
   Christian Kollmar      : KDIIS, OOCD, Brueckner-CCSD(T), CCSD density
   Simone Kossmann        : Meta GGA functionals, TD-DFT gradient, OOMP2, MP2 Hessian
   Martin Krupicka        : AUTO-CI
   Lucas Lang             : DCDCAS
   Dagmar Lenk            : GEPOL surface, SMD
   Dimitrios Liakos       : Extrapolation schemes; Compound Job, initial MDCI parallelization
   Dimitrios Manganas     : Further ROCIS development; embedding schemes
   Dimitrios Pantazis     : SARC Basis sets
   Taras Petrenko         : DFT Hessian,TD-DFT gradient, ASA, ECA, R-Raman, ABS, FL, XAS/XES, NRVS
   Peter Pinski           : DLPNO-MP2, DLPNO-MP2 Gradient
   Christoph Reimann      : Effective Core Potentials
   Marius Retegan         : Local ZFS, SOC
   Christoph Riplinger    : Optimizer, TS searches, QM/MM, DLPNO-CCSD(T), (RO)-DLPNO pert. Triples
   Tobias Risthaus        : Range-separated hybrids, TD-DFT gradient, RPA, STAB
   Michael Roemelt        : Original ROCIS implementation
   Masaaki Saitow         : Open-shell DLPNO-CCSD energy and density
   Barbara Sandhoefer     : DKH picture change effects
   Avijit Sen             : IP-ROCIS
   Kantharuban Sivalingam : CASSCF convergence, NEVPT2, FIC-MRCI
   Bernardo de Souza      : ESD, SOC TD-DFT
   Georgi Stoychev        : AutoAux, RI-MP2 NMR
   Willem Van den Heuvel  : Paramagnetic NMR
   Boris Wezisla          : Elementary symmetry handling
   Frank Wennmohs         : Technical directorship


 We gratefully acknowledge several colleagues who have allowed us to
 interface, adapt or use parts of their codes:
   Stefan Grimme, W. Hujo, H. Kruse,             : VdW corrections, initial TS optimization,
                  C. Bannwarth                     DFT functionals, gCP, sTDA/sTD-DF
   Ed Valeev, F. Pavosevic, A. Kumar             : LibInt (2-el integral package), F12 methods
   Garnet Chan, S. Sharma, J. Yang, R. Olivares  : DMRG
   Ulf Ekstrom                                   : XCFun DFT Library
   Mihaly Kallay                                 : mrcc  (arbitrary order and MRCC methods)
   Andreas Klamt, Michael Diedenhofen            : otool_cosmo (COSMO solvation model)
   Jiri Pittner, Ondrej Demel                    : Mk-CCSD
   Frank Weinhold                                : gennbo (NPA and NBO analysis)
   Christopher J. Cramer and Donald G. Truhlar   : smd solvation model
   Lars Goerigk                                  : TD-DFT with DH, B97 family of functionals
   V. Asgeirsson, H. Jonsson                     : NEB implementation
   FAccTs GmbH                                   : IRC, NEB, NEB-TS, Multilevel, MM, QM/MM, CI optimization
   S Lehtola, MJT Oliveira, MAL Marques          : LibXC Library


 Your calculation uses the libint2 library for the computation of 2-el integrals
 For citations please refer to: http://libint.valeyev.net

 Your ORCA version has been built with support for libXC version: 4.2.3
 For citations please refer to: https://tddft.org/programs/libxc/

 This ORCA versions uses:
   CBLAS   interface :  Fast vector & matrix operations
   LAPACKE interface :  Fast linear algebra routines
   SCALAPACK package :  Parallel linear algebra routines


----- Orbital basis set information -----
Your calculation utilizes the basis: cc-pVTZ 
       H, B-Ne : Obtained from the ccRepo (grant-hill.group.shef.ac.uk/ccrepo) Feb. 2017
                 T. H. Dunning, Jr., J. Chem. Phys. 90, 1007 (1989)
            He : Obtained from the ccRepo (grant-hill.group.shef.ac.uk/ccrepo) Feb. 2017
                 D. E. Woon, T. H. Dunning, Jr., J. Chem. Phys. 100, 2975 (1994)
  Li-Be, Na-Mg : Obtained from the ccRepo (grant-hill.group.shef.ac.uk/ccrepo) Feb. 2017
                 B. P. Prascher, D. E. Woon, K. A. Peterson, T. H. Dunning, Jr., A. K. Wilson, Theor. Chem. Acc. 128, 69 (2011)
         Al-Ar : Obtained from the ccRepo (grant-hill.group.shef.ac.uk/ccrepo) Feb. 2017
                 D. E. Woon, T. H. Dunning, Jr., J. Chem. Phys. 98, 1358 (1993)
            Ca : Obtained from the Peterson Research Group Website (tyr0.chem.wsu.edu/~kipeters) Feb. 2017
                 J. Koput, K. A. Peterson, J. Phys. Chem. 106, 9595 (2002)
         Sc-Zn : Obtained from the ccRepo (grant-hill.group.shef.ac.uk/ccrepo) Feb. 2017
                 N. B. Balabanov, K. A. Peterson, J. Chem. Phys. 123, 064107 (2005)
                 N. B. Balabanov, K. A. Peterson, J. Chem. Phys. 125, 074110 (2006)
         Ga-Kr : Obtained from the ccRepo (grant-hill.group.shef.ac.uk/ccrepo) Feb. 2017
                 A. K. Wilson, D. E. Woon, K. A. Peterson, T. H. Dunning, Jr., J. Chem. Phys. 110, 7667 (1999)
             Y : Obtained from the ccRepo (grant-hill.group.shef.ac.uk/ccrepo) Feb. 2017
                 K. A. Peterson, D. Figgen, M. Dolg, H. Stoll, J. Chem. Phys. 126, 124101 (2007)
        Ag, Au : Obtained from the Peterson Research Group Website (tyr0.chem.wsu.edu/~kipeters) Feb. 2017
                 K. A. Peterson, C. Puzzarini, Theor. Chem. Acc. 114, 283 (2005)

----- AuxC basis set information -----
Your calculation utilizes the auxiliary basis: cc-pVTZ/C 
  Obtained from the EMSL Basis Set Exchange (bse.pnl.gov) Feb. 2017
  H-He, B-F, Al-Ar, Ga-Kr : F. Weigend, A. Kohn, C. Hattig, J. Chem. Phys. 116, 3175 (2002)
             Li-Be, Na-Mg : C. Haettig, Phys. Chem. Chem. Phys. 7, 59 (2005)
                       Ne : C. Haettig, Phys. Chem. Chem. Phys. 7, 59 (2005)
                            F. Weigend, A. Kohn, C. Hattig, J. Chem. Phys. 116, 3175 (2002)
                    Sc-Zn : J. G. Hill, J. A. Platts, J. Chem. Phys. 128, 044104 (2008)

================================================================================
                                        WARNINGS
                       Please study these warnings very carefully!
================================================================================


WARNING: No MP2 level density has been requested!
         To caclulate MP2 level properties use
         %mp2 Density relaxed end
         or
         %mp2 Density unrelaxed end

WARNING: Post HF methods need fully converged wavefunctions
  ===> : Setting SCFConvForced true
         You can overwrite this default with %scf ConvForced false 


INFO   : the flag for use of LIBINT has been found!

================================================================================
                                       INPUT FILE
================================================================================
NAME = CONFS/Conf937.orca
|  1> ! ri-mp2 cc-pvtz cc-pvtz/c TightSCF NoKeepInts
|  2> 
|  3> %scf
|  4>   MaxCore 4096
|  5> end
|  6> *xyz  0  1
|  7>     C       13.7042312   15.9168452   14.1585975
|  8>     C       14.8905567   15.5990321   15.0840237
|  9>     O       15.8766892   16.6218832   14.8887717
| 10>     C       16.9634690   16.5799753   15.7056308
| 11>     O       17.6711187   15.5898837   15.7727315
| 12>     C       17.0770195   17.7320894   16.6613853
| 13>     C       16.6923392   18.9927991   16.3309218
| 14>     C       15.9058142   19.4342926   15.1124059
| 15>     N       17.0603288   20.0814921   17.1254677
| 16>     C       17.9873475   20.0273866   18.1312941
| 17>     S       18.4554809   21.3798663   18.9600674
| 18>     N       18.5242255   18.7938568   18.4006416
| 19>     C       18.0755654   17.5199976   17.8054093
| 20>     C       17.6044312   16.5046483   18.8380836
| 21>     C       18.1684299   15.2171768   18.8872763
| 22>     C       17.7313490   14.2813793   19.8397368
| 23>     C       16.7222542   14.6366171   20.7512839
| 24>     C       16.1568092   15.9182803   20.7027578
| 25>     O       15.1785835   16.2622420   21.5779422
| 26>     C       16.5932891   16.8472035   19.7527218
| 27>     H       13.2700353   16.8935385   14.4049937
| 28>     H       12.9208730   15.1562721   14.2632170
| 29>     H       14.0270330   15.9345857   13.1100554
| 30>     H       14.5541520   15.5847517   16.1297251
| 31>     H       15.3089816   14.6134735   14.8372336
| 32>     H       16.3822032   19.0788637   14.1898650
| 33>     H       15.8254159   20.5250721   15.0299173
| 34>     H       14.8856519   19.0322227   15.1421349
| 35>     H       16.6930795   20.9977186   16.9237729
| 36>     H       19.1911874   18.7777897   19.1619610
| 37>     H       19.0093359   17.1851368   17.3303399
| 38>     H       18.9381343   14.9369800   18.1717679
| 39>     H       18.1712247   13.2859454   19.8642510
| 40>     H       16.3809749   13.9164411   21.4874220
| 41>     H       15.0430912   15.5087273   22.1719227
| 42>     H       16.1462944   17.8355339   19.7322701
| 43> *
| 44> 
| 45>                          ****END OF INPUT****
================================================================================

                       ****************************
                       * Single Point Calculation *
                       ****************************

---------------------------------
CARTESIAN COORDINATES (ANGSTROEM)
---------------------------------
  C     13.704231   15.916845   14.158597
  C     14.890557   15.599032   15.084024
  O     15.876689   16.621883   14.888772
  C     16.963469   16.579975   15.705631
  O     17.671119   15.589884   15.772732
  C     17.077019   17.732089   16.661385
  C     16.692339   18.992799   16.330922
  C     15.905814   19.434293   15.112406
  N     17.060329   20.081492   17.125468
  C     17.987347   20.027387   18.131294
  S     18.455481   21.379866   18.960067
  N     18.524226   18.793857   18.400642
  C     18.075565   17.519998   17.805409
  C     17.604431   16.504648   18.838084
  C     18.168430   15.217177   18.887276
  C     17.731349   14.281379   19.839737
  C     16.722254   14.636617   20.751284
  C     16.156809   15.918280   20.702758
  O     15.178584   16.262242   21.577942
  C     16.593289   16.847203   19.752722
  H     13.270035   16.893538   14.404994
  H     12.920873   15.156272   14.263217
  H     14.027033   15.934586   13.110055
  H     14.554152   15.584752   16.129725
  H     15.308982   14.613473   14.837234
  H     16.382203   19.078864   14.189865
  H     15.825416   20.525072   15.029917
  H     14.885652   19.032223   15.142135
  H     16.693079   20.997719   16.923773
  H     19.191187   18.777790   19.161961
  H     19.009336   17.185137   17.330340
  H     18.938134   14.936980   18.171768
  H     18.171225   13.285945   19.864251
  H     16.380975   13.916441   21.487422
  H     15.043091   15.508727   22.171923
  H     16.146294   17.835534   19.732270

----------------------------
CARTESIAN COORDINATES (A.U.)
----------------------------
  NO LB      ZA    FRAG     MASS         X           Y           Z
   0 C     6.0000    0    12.011   25.897244   30.078478   26.755872
   1 C     6.0000    0    12.011   28.139074   29.477899   28.504674
   2 O     8.0000    0    15.999   30.002595   31.410807   28.135701
   3 C     6.0000    0    12.011   32.056311   31.331613   29.679341
   4 O     8.0000    0    15.999   33.393575   29.460611   29.806143
   5 C     6.0000    0    12.011   32.270890   33.508793   31.485455
   6 C     6.0000    0    12.011   31.543950   35.891189   30.860970
   7 C     6.0000    0    12.011   30.057633   36.725491   28.558308
   8 N     7.0000    0    14.007   32.239349   37.948520   32.362444
   9 C     6.0000    0    12.011   33.991161   37.846276   34.263180
  10 S    16.0000    0    32.060   34.875805   40.402092   35.829335
  11 N     7.0000    0    14.007   35.005713   35.515242   34.772173
  12 C     6.0000    0    12.011   34.157868   33.107997   33.647347
  13 C     6.0000    0    12.011   33.267554   31.189265   35.598819
  14 C     6.0000    0    12.011   34.333357   28.756297   35.691780
  15 C     6.0000    0    12.011   33.507394   26.987896   37.491669
  16 C     6.0000    0    12.011   31.600481   27.659198   39.214243
  17 C     6.0000    0    12.011   30.531945   30.081190   39.122542
  18 O     8.0000    0    15.999   28.683366   30.731184   40.776401
  19 C     6.0000    0    12.011   31.356772   31.836601   37.327235
  20 H     1.0000    0     1.008   25.076733   31.924161   27.221493
  21 H     1.0000    0     1.008   24.416911   28.641203   26.953574
  22 H     1.0000    0     1.008   26.507251   30.112003   24.774414
  23 H     1.0000    0     1.008   27.503361   29.450913   30.480763
  24 H     1.0000    0     1.008   28.929783   27.615463   28.038308
  25 H     1.0000    0     1.008   30.957878   36.053827   26.814959
  26 H     1.0000    0     1.008   29.905702   38.786765   28.402428
  27 H     1.0000    0     1.008   28.129805   35.965689   28.614488
  28 H     1.0000    0     1.008   31.545349   39.679938   31.981296
  29 H     1.0000    0     1.008   36.266088   35.484880   36.210858
  30 H     1.0000    0     1.008   35.922439   32.475202   32.749596
  31 H     1.0000    0     1.008   35.787887   28.226801   34.339665
  32 H     1.0000    0     1.008   34.338638   25.106798   37.537994
  33 H     1.0000    0     1.008   30.955556   26.298262   40.605343
  34 H     1.0000    0     1.008   28.427323   29.307247   41.898862
  35 H     1.0000    0     1.008   30.512074   33.704275   37.288586

--------------------------------
INTERNAL COORDINATES (ANGSTROEM)
--------------------------------
 C      0   0   0     0.000000000000     0.00000000     0.00000000
 C      1   0   0     1.537786399383     0.00000000     0.00000000
 O      2   1   0     1.434156554854   107.52513938     0.00000000
 C      3   2   1     1.360185794303   116.46532280   174.66758710
 O      4   3   2     1.218832219069   121.46538102    56.60651552
 C      4   3   2     1.501241912464   114.77931606   246.36181110
 C      6   4   3     1.358887046709   122.39542282   324.65974567
 C      7   6   4     1.516020806163   127.77115652    10.80389316
 N      7   6   4     1.397129908478   120.66883895   193.32391385
 C      9   7   6     1.368933096326   124.43126967    11.39468191
 S     10   9   7     1.653848663542   121.84055511   175.46094762
 N     10   9   7     1.371999209230   116.40854153   356.50375320
 C     12  10   9     1.475911459987   125.30037411   352.72516456
 C     13  12  10     1.522930676459   113.32881619   239.29660012
 C     14  13  12     1.406448477068   120.66175386   235.08171672
 C     15  14  13     1.404968924287   120.57573064   180.07299101
 C     16  15  14     1.405483662464   119.64907827   359.95698802
 C     17  16  15     1.401693043658   119.88657808     0.15984641
 O     18  17  16     1.356901951215   120.01831890   179.72898502
 C     18  17  16     1.398564054986   120.32736702   359.89233096
 H      1   2   3     1.096889679601   110.74529028   299.48734791
 H      1   2   3     1.096843995166   110.50294379   179.53236861
 H      1   2   3     1.097249407790   110.57691883    59.74917386
 H      2   1   3     1.098573379419   109.83310890   120.22707309
 H      2   1   3     1.098776821940   110.11983316   239.76481795
 H      8   7   6     1.097432409968   110.86327011   306.27925758
 H      8   7   6     1.096844644147   112.83532056   186.41017642
 H      8   7   6     1.096938984752   110.73036049    66.04315052
 H      9   7   6     1.007483915504   119.91997464   186.17304952
 H     12  10   9     1.012276423004   114.81831750   181.30988502
 H     13  12  10     1.099886374524   100.30504811   121.35087388
 H     15  14  13     1.087615456207   119.77631403   359.06018737
 H     16  15  14     1.088567970648   119.90963164   179.63421321
 H     17  16  15     1.084907523182   119.87703010   179.91494453
 H     19  18  17     0.968997110860   107.40069861     2.49468548
 H     20  18  17     1.084905301593   119.29411192   180.19865888

---------------------------
INTERNAL COORDINATES (A.U.)
---------------------------
 C      0   0   0     0.000000000000     0.00000000     0.00000000
 C      1   0   0     2.905995147303     0.00000000     0.00000000
 O      2   1   0     2.710163121843   107.52513938     0.00000000
 C      3   2   1     2.570378642483   116.46532280   174.66758710
 O      4   3   2     2.303259097240   121.46538102    56.60651552
 C      4   3   2     2.836936075322   114.77931606   246.36181110
 C      6   4   3     2.567924365214   122.39542282   324.65974567
 C      7   6   4     2.864864136975   127.77115652    10.80389316
 N      7   6   4     2.640192900534   120.66883895   193.32391385
 C      9   7   6     2.586908647717   124.43126967    11.39468191
 S     10   9   7     3.125321041047   121.84055511   175.46094762
 N     10   9   7     2.592702761402   116.40854153   356.50375320
 C     12  10   9     2.789068457291   125.30037411   352.72516456
 C     13  12  10     2.877921899455   113.32881619   239.29660012
 C     14  13  12     2.657802443129   120.66175386   235.08171672
 C     15  14  13     2.655006493572   120.57573064   180.07299101
 C     16  15  14     2.655979207758   119.64907827   359.95698802
 C     17  16  15     2.648815976337   119.88657808     0.15984641
 O     18  17  16     2.564173078379   120.01831890   179.72898502
 C     18  17  16     2.642903044669   120.32736702   359.89233096
 H      1   2   3     2.072821093571   110.74529028   299.48734791
 H      1   2   3     2.072734762499   110.50294379   179.53236861
 H      1   2   3     2.073500881331   110.57691883    59.74917386
 H      2   1   3     2.076002825118   109.83310890   120.22707309
 H      2   1   3     2.076387275766   110.11983316   239.76481795
 H      8   7   6     2.073846705329   110.86327011   306.27925758
 H      8   7   6     2.072735988895   112.83532056   186.41017642
 H      8   7   6     2.072914266803   110.73036049    66.04315052
 H      9   7   6     1.903868684634   119.91997464   186.17304952
 H     12  10   9     1.912925211304   114.81831750   181.30988502
 H     13  12  10     2.078484026282   100.30504811   121.35087388
 H     15  14  13     2.055295351251   119.77631403   359.06018737
 H     16  15  14     2.057095342684   119.90963164   179.63421321
 H     17  16  15     2.050178099444   119.87703010   179.91494453
 H     19  18  17     1.831139164087   107.40069861     2.49468548
 H     20  18  17     2.050173901250   119.29411192   180.19865888

---------------------
BASIS SET INFORMATION
---------------------
There are 5 groups of distinct atoms

 Group   1 Type C   : 18s5p2d1f contracted to 4s3p2d1f pattern {8811/311/11/1}
 Group   2 Type O   : 18s5p2d1f contracted to 4s3p2d1f pattern {8811/311/11/1}
 Group   3 Type N   : 18s5p2d1f contracted to 4s3p2d1f pattern {8811/311/11/1}
 Group   4 Type S   : 41s16p2d1f contracted to 5s4p2d1f pattern {13131311/7711/11/1}
 Group   5 Type H   : 5s2p1d contracted to 3s2p1d pattern {311/11/1}

Atom   0C    basis set group =>   1
Atom   1C    basis set group =>   1
Atom   2O    basis set group =>   2
Atom   3C    basis set group =>   1
Atom   4O    basis set group =>   2
Atom   5C    basis set group =>   1
Atom   6C    basis set group =>   1
Atom   7C    basis set group =>   1
Atom   8N    basis set group =>   3
Atom   9C    basis set group =>   1
Atom  10S    basis set group =>   4
Atom  11N    basis set group =>   3
Atom  12C    basis set group =>   1
Atom  13C    basis set group =>   1
Atom  14C    basis set group =>   1
Atom  15C    basis set group =>   1
Atom  16C    basis set group =>   1
Atom  17C    basis set group =>   1
Atom  18O    basis set group =>   2
Atom  19C    basis set group =>   1
Atom  20H    basis set group =>   5
Atom  21H    basis set group =>   5
Atom  22H    basis set group =>   5
Atom  23H    basis set group =>   5
Atom  24H    basis set group =>   5
Atom  25H    basis set group =>   5
Atom  26H    basis set group =>   5
Atom  27H    basis set group =>   5
Atom  28H    basis set group =>   5
Atom  29H    basis set group =>   5
Atom  30H    basis set group =>   5
Atom  31H    basis set group =>   5
Atom  32H    basis set group =>   5
Atom  33H    basis set group =>   5
Atom  34H    basis set group =>   5
Atom  35H    basis set group =>   5
---------------------------------
AUXILIARY/C BASIS SET INFORMATION
---------------------------------
There are 5 groups of distinct atoms

 Group   1 Type C   : 8s6p5d3f1g contracted to 8s6p5d3f1g pattern {11111111/111111/11111/111/1}
 Group   2 Type O   : 8s6p5d3f1g contracted to 8s6p5d3f1g pattern {11111111/111111/11111/111/1}
 Group   3 Type N   : 8s6p5d3f1g contracted to 8s6p5d3f1g pattern {11111111/111111/11111/111/1}
 Group   4 Type S   : 10s8p7d5f2g contracted to 10s8p7d5f2g pattern {1111111111/11111111/1111111/11111/11}
 Group   5 Type H   : 4s3p2d1f contracted to 4s3p2d1f pattern {1111/111/11/1}

Atom   0C    basis set group =>   1
Atom   1C    basis set group =>   1
Atom   2O    basis set group =>   2
Atom   3C    basis set group =>   1
Atom   4O    basis set group =>   2
Atom   5C    basis set group =>   1
Atom   6C    basis set group =>   1
Atom   7C    basis set group =>   1
Atom   8N    basis set group =>   3
Atom   9C    basis set group =>   1
Atom  10S    basis set group =>   4
Atom  11N    basis set group =>   3
Atom  12C    basis set group =>   1
Atom  13C    basis set group =>   1
Atom  14C    basis set group =>   1
Atom  15C    basis set group =>   1
Atom  16C    basis set group =>   1
Atom  17C    basis set group =>   1
Atom  18O    basis set group =>   2
Atom  19C    basis set group =>   1
Atom  20H    basis set group =>   5
Atom  21H    basis set group =>   5
Atom  22H    basis set group =>   5
Atom  23H    basis set group =>   5
Atom  24H    basis set group =>   5
Atom  25H    basis set group =>   5
Atom  26H    basis set group =>   5
Atom  27H    basis set group =>   5
Atom  28H    basis set group =>   5
Atom  29H    basis set group =>   5
Atom  30H    basis set group =>   5
Atom  31H    basis set group =>   5
Atom  32H    basis set group =>   5
Atom  33H    basis set group =>   5
Atom  34H    basis set group =>   5
Atom  35H    basis set group =>   5
------------------------------------------------------------------------------
                           ORCA GTO INTEGRAL CALCULATION
------------------------------------------------------------------------------

                         BASIS SET STATISTICS AND STARTUP INFO

 # of primitive gaussian shells          ...  682
 # of primitive gaussian functions       ... 1312
 # of contracted shells                  ...  298
 # of contracted basis functions         ...  828
 Highest angular momentum                ...    3
 Maximum contraction depth               ...   13
 Integral package used                   ... LIBINT
 Integral threshhold            Thresh   ...  2.500e-11
 Primitive cut-off              TCut     ...  2.500e-12


------------------------------ INTEGRAL EVALUATION ----------------------------


 * One electron integrals 
 Pre-screening matrix                    ... done
 Shell pair data                         ... done (   0.013 sec)

-------------------------------------------------------------------------------
                                 ORCA SCF
-------------------------------------------------------------------------------

------------
SCF SETTINGS
------------
Hamiltonian:
 Ab initio Hamiltonian  Method          .... Hartree-Fock(GTOs)


General Settings:
 Integral files         IntName         .... CONFS/Conf937.orca
 Hartree-Fock type      HFTyp           .... RHF
 Total Charge           Charge          ....    0
 Multiplicity           Mult            ....    1
 Number of Electrons    NEL             ....  154
 Basis Dimension        Dim             ....  828
 Nuclear Repulsion      ENuc            ....   1680.1865562771 Eh

Convergence Acceleration:
 DIIS                   CNVDIIS         .... on
   Start iteration      DIISMaxIt       ....    12
   Startup error        DIISStart       ....  0.200000
   # of expansion vecs  DIISMaxEq       ....     5
   Bias factor          DIISBfac        ....   1.050
   Max. coefficient     DIISMaxC        ....  10.000
 Newton-Raphson         CNVNR           .... off
 SOSCF                  CNVSOSCF        .... on
   Start iteration      SOSCFMaxIt      ....   150
   Startup grad/error   SOSCFStart      ....  0.003300
 Level Shifting         CNVShift        .... on
   Level shift para.    LevelShift      ....    0.2500
   Turn off err/grad.   ShiftErr        ....    0.0010
 Zerner damping         CNVZerner       .... off
 Static damping         CNVDamp         .... on
   Fraction old density DampFac         ....    0.7000
   Max. Damping (<1)    DampMax         ....    0.9800
   Min. Damping (>=0)   DampMin         ....    0.0000
   Turn off err/grad.   DampErr         ....    0.1000
 Fernandez-Rico         CNVRico         .... off

SCF Procedure:
 Maximum # iterations   MaxIter         ....   125
 SCF integral mode      SCFMode         .... Direct
   Integral package                     .... LIBINT
 Reset frequency        DirectResetFreq ....    20
 Integral Threshold     Thresh          ....  2.500e-11 Eh
 Primitive CutOff       TCut            ....  2.500e-12 Eh

Convergence Tolerance:
 Convergence Check Mode ConvCheckMode   .... Total+1el-Energy
 Convergence forced     ConvForced      .... 1
 Energy Change          TolE            ....  1.000e-08 Eh
 1-El. energy change                    ....  1.000e-05 Eh
 Orbital Gradient       TolG            ....  1.000e-05
 Orbital Rotation angle TolX            ....  1.000e-05
 DIIS Error             TolErr          ....  5.000e-07


Diagonalization of the overlap matrix:
Smallest eigenvalue                        ... 3.552e-05
Time for diagonalization                   ...    0.128 sec
Threshold for overlap eigenvalues          ... 1.000e-08
Number of eigenvalues below threshold      ... 0
Time for construction of square roots      ...    0.179 sec
Total time needed                          ...    0.310 sec

-------------------
DFT GRID GENERATION
-------------------

General Integration Accuracy     IntAcc      ...  4.340
Radial Grid Type                 RadialGrid  ... Gauss-Chebyshev
Angular Grid (max. acc.)         AngularGrid ... Lebedev-110
Angular grid pruning method      GridPruning ... 3 (G Style)
Weight generation scheme         WeightScheme... Becke
Basis function cutoff            BFCut       ...    1.0000e-11
Integration weight cutoff        WCut        ...    1.0000e-14
Grids for H and He will be reduced by one unit

# of grid points (after initial pruning)     ...  46246 (   0.0 sec)
# of grid points (after weights+screening)   ...  41390 (   0.3 sec)
nearest neighbour list constructed           ...    0.0 sec
Grid point re-assignment to atoms done       ...    0.0 sec
Grid point division into batches done        ...    0.0 sec
Reduced shell lists constructed in    1.0 sec

Total number of grid points                  ...    41390
Total number of batches                      ...      662
Average number of points per batch           ...       62
Average number of grid points per atom       ...     1150
Average number of shells per batch           ...   144.16 (48.38%)
Average number of basis functions per batch  ...   365.86 (44.19%)
Average number of large shells per batch     ...    92.00 (63.82%)
Average number of large basis fcns per batch ...   237.41 (64.89%)
Maximum spatial batch extension              ...  18.85, 20.19, 24.22 au
Average spatial batch extension              ...   3.53,  3.32,  3.36 au

Time for grid setup =    1.319 sec

------------------------------
INITIAL GUESS: MODEL POTENTIAL
------------------------------
Loading Hartree-Fock densities                     ... done
Calculating cut-offs                               ... done
Setting up the integral package                    ... done
Initializing the effective Hamiltonian             ... done
Starting the Coulomb interaction                   ... done (   3.0 sec)
Reading the grid                                   ... done
Mapping shells                                     ... done
Starting the XC term evaluation                    ... done (   1.6 sec)
Transforming the Hamiltonian                       ... done (   0.1 sec)
Diagonalizing the Hamiltonian                      ... done (   0.1 sec)
Back transforming the eigenvectors                 ... done (   0.0 sec)
Now organizing SCF variables                       ... done
                      ------------------
                      INITIAL GUESS DONE (   6.5 sec)
                      ------------------
--------------
SCF ITERATIONS
--------------
ITER       Energy         Delta-E        Max-DP      RMS-DP      [F,P]     Damp
               ***  Starting incremental Fock matrix formation  ***
  0  -1270.0046786758   0.000000000000 0.04932401  0.00042843  0.3035225 0.7000
  1  -1270.2727616049  -0.268082929099 0.03608632  0.00034472  0.1762660 0.7000
                               ***Turning on DIIS***
  2  -1270.4399192613  -0.167157656430 0.02584085  0.00023153  0.1097313 0.7000
  3  -1272.5758416047  -2.135922343452 0.06313895  0.00050385  0.0828855 0.0000
  4  -1270.7475685555   1.828273049276 0.01230210  0.00009813  0.0068190 0.0000
  5  -1270.8096261237  -0.062057568244 0.00445048  0.00005178  0.0038131 0.0000
                      *** Initiating the SOSCF procedure ***
                           *** Shutting down DIIS ***
                      *** Re-Reading the Fockian *** 
                      *** Removing any level shift *** 
ITER      Energy       Delta-E        Grad      Rot      Max-DP    RMS-DP
  6  -1270.78820394   0.0214221882  0.001819  0.001819  0.002301  0.000026
               *** Restarting incremental Fock matrix formation ***
  7  -1270.80292329  -0.0147193520  0.001034  0.002651  0.001420  0.000016
  8  -1270.80297192  -0.0000486351  0.000481  0.003167  0.001701  0.000018
  9  -1270.80299073  -0.0000188114  0.000176  0.000344  0.000357  0.000004
 10  -1270.80299310  -0.0000023677  0.000054  0.000144  0.000120  0.000001
 11  -1270.80299334  -0.0000002348  0.000022  0.000132  0.000069  0.000001
 12  -1270.80299340  -0.0000000621  0.000010  0.000038  0.000027  0.000000
 13  -1270.80299340  -0.0000000023  0.000003  0.000008  0.000004  0.000000
                  ***Gradient check signals convergence***
              ***Rediagonalizing the Fockian in SOSCF/NRSCF***

               *****************************************************
               *                     SUCCESS                       *
               *           SCF CONVERGED AFTER  14 CYCLES          *
               *****************************************************


----------------
TOTAL SCF ENERGY
----------------

Total Energy       :        -1270.80299340 Eh          -34580.30748 eV

Components:
Nuclear Repulsion  :         1680.18655628 Eh           45720.20057 eV
Electronic Energy  :        -2950.98954967 Eh          -80300.50805 eV
One Electron Energy:        -5081.59663875 Eh         -138277.27442 eV
Two Electron Energy:         2130.60708907 Eh           57976.76638 eV

Virial components:
Potential Energy   :        -2539.82381187 Eh          -69112.11951 eV
Kinetic Energy     :         1269.02081848 Eh           34531.81203 eV
Virial Ratio       :            2.00140437


---------------
SCF CONVERGENCE
---------------

  Last Energy change         ...    4.7048e-09  Tolerance :   1.0000e-08
  Last MAX-Density change    ...    2.0046e-06  Tolerance :   1.0000e-07
  Last RMS-Density change    ...    3.0898e-08  Tolerance :   5.0000e-09
  Last Orbital Gradient      ...    8.3950e-07  Tolerance :   1.0000e-05
  Last Orbital Rotation      ...    2.6192e-06  Tolerance :   1.0000e-05

             **** THE GBW FILE WAS UPDATED (CONFS/Conf937.orca.gbw) ****
             **** DENSITY FILE WAS UPDATED (CONFS/Conf937.orca.scfp) ****
             **** ENERGY FILE WAS UPDATED (CONFS/Conf937.orca.en.tmp) ****
             **** THE GBW FILE WAS UPDATED (CONFS/Conf937.orca.gbw) ****
             **** DENSITY FILE WAS UPDATED (CONFS/Conf937.orca.scfp) ****
----------------
ORBITAL ENERGIES
----------------

  NO   OCC          E(Eh)            E(eV) 
   0   2.0000     -91.889242     -2500.4334 
   1   2.0000     -20.593378      -560.3743 
   2   2.0000     -20.591184      -560.3146 
   3   2.0000     -20.550128      -559.1974 
   4   2.0000     -15.630237      -425.3204 
   5   2.0000     -15.606732      -424.6808 
   6   2.0000     -11.393292      -310.0272 
   7   2.0000     -11.383894      -309.7715 
   8   2.0000     -11.339702      -308.5690 
   9   2.0000     -11.309423      -307.7451 
  10   2.0000     -11.304949      -307.6233 
  11   2.0000     -11.302071      -307.5450 
  12   2.0000     -11.260689      -306.4189 
  13   2.0000     -11.260335      -306.4093 
  14   2.0000     -11.256583      -306.3072 
  15   2.0000     -11.249310      -306.1093 
  16   2.0000     -11.239534      -305.8433 
  17   2.0000     -11.235894      -305.7442 
  18   2.0000     -11.235801      -305.7417 
  19   2.0000     -11.232292      -305.6462 
  20   2.0000      -8.894316      -242.0267 
  21   2.0000      -6.575890      -178.9391 
  22   2.0000      -6.573890      -178.8846 
  23   2.0000      -6.573299      -178.8686 
  24   2.0000      -1.454533       -39.5798 
  25   2.0000      -1.413128       -38.4532 
  26   2.0000      -1.358219       -36.9590 
  27   2.0000      -1.341157       -36.4947 
  28   2.0000      -1.238138       -33.6914 
  29   2.0000      -1.153928       -31.4000 
  30   2.0000      -1.121942       -30.5296 
  31   2.0000      -1.044817       -28.4309 
  32   2.0000      -1.037597       -28.2344 
  33   2.0000      -1.011494       -27.5242 
  34   2.0000      -1.000225       -27.2175 
  35   2.0000      -0.985461       -26.8157 
  36   2.0000      -0.921876       -25.0855 
  37   2.0000      -0.884169       -24.0595 
  38   2.0000      -0.848725       -23.0950 
  39   2.0000      -0.837246       -22.7826 
  40   2.0000      -0.829593       -22.5744 
  41   2.0000      -0.826032       -22.4775 
  42   2.0000      -0.761115       -20.7110 
  43   2.0000      -0.736622       -20.0445 
  44   2.0000      -0.727551       -19.7977 
  45   2.0000      -0.691143       -18.8070 
  46   2.0000      -0.687015       -18.6946 
  47   2.0000      -0.681351       -18.5405 
  48   2.0000      -0.675093       -18.3702 
  49   2.0000      -0.653658       -17.7869 
  50   2.0000      -0.652766       -17.7627 
  51   2.0000      -0.640719       -17.4348 
  52   2.0000      -0.632317       -17.2062 
  53   2.0000      -0.617822       -16.8118 
  54   2.0000      -0.604533       -16.4502 
  55   2.0000      -0.600201       -16.3323 
  56   2.0000      -0.596714       -16.2374 
  57   2.0000      -0.576799       -15.6955 
  58   2.0000      -0.574396       -15.6301 
  59   2.0000      -0.564434       -15.3590 
  60   2.0000      -0.559930       -15.2365 
  61   2.0000      -0.548490       -14.9252 
  62   2.0000      -0.543129       -14.7793 
  63   2.0000      -0.523231       -14.2378 
  64   2.0000      -0.517723       -14.0880 
  65   2.0000      -0.511213       -13.9108 
  66   2.0000      -0.506674       -13.7873 
  67   2.0000      -0.495421       -13.4811 
  68   2.0000      -0.480910       -13.0862 
  69   2.0000      -0.463078       -12.6010 
  70   2.0000      -0.461542       -12.5592 
  71   2.0000      -0.452085       -12.3019 
  72   2.0000      -0.354397        -9.6436 
  73   2.0000      -0.346053        -9.4166 
  74   2.0000      -0.328251        -8.9322 
  75   2.0000      -0.318415        -8.6645 
  76   2.0000      -0.316070        -8.6007 
  77   0.0000       0.072513         1.9732 
  78   0.0000       0.109175         2.9708 
  79   0.0000       0.120366         3.2753 
  80   0.0000       0.134630         3.6635 
  81   0.0000       0.137832         3.7506 
  82   0.0000       0.143124         3.8946 
  83   0.0000       0.153229         4.1696 
  84   0.0000       0.159084         4.3289 
  85   0.0000       0.163411         4.4466 
  86   0.0000       0.169795         4.6204 
  87   0.0000       0.175727         4.7818 
  88   0.0000       0.185804         5.0560 
  89   0.0000       0.196432         5.3452 
  90   0.0000       0.197291         5.3686 
  91   0.0000       0.206683         5.6241 
  92   0.0000       0.208533         5.6745 
  93   0.0000       0.217238         5.9113 
  94   0.0000       0.223114         6.0712 
  95   0.0000       0.229684         6.2500 
  96   0.0000       0.238922         6.5014 
  97   0.0000       0.246525         6.7083 
  98   0.0000       0.275026         7.4838 
  99   0.0000       0.281159         7.6507 
 100   0.0000       0.293976         7.9995 
 101   0.0000       0.306272         8.3341 
 102   0.0000       0.313821         8.5395 
 103   0.0000       0.315868         8.5952 
 104   0.0000       0.323350         8.7988 
 105   0.0000       0.330189         8.9849 
 106   0.0000       0.346087         9.4175 
 107   0.0000       0.347516         9.4564 
 108   0.0000       0.351476         9.5642 
 109   0.0000       0.359279         9.7765 
 110   0.0000       0.371882        10.1194 
 111   0.0000       0.372728        10.1424 
 112   0.0000       0.384137        10.4529 
 113   0.0000       0.389684        10.6038 
 114   0.0000       0.395407        10.7596 
 115   0.0000       0.409789        11.1509 
 116   0.0000       0.414907        11.2902 
 117   0.0000       0.429309        11.6821 
 118   0.0000       0.433015        11.7829 
 119   0.0000       0.438948        11.9444 
 120   0.0000       0.442513        12.0414 
 121   0.0000       0.452839        12.3224 
 122   0.0000       0.455009        12.3814 
 123   0.0000       0.457662        12.4536 
 124   0.0000       0.460958        12.5433 
 125   0.0000       0.466408        12.6916 
 126   0.0000       0.470746        12.8097 
 127   0.0000       0.484629        13.1874 
 128   0.0000       0.491698        13.3798 
 129   0.0000       0.495555        13.4847 
 130   0.0000       0.499884        13.6025 
 131   0.0000       0.506299        13.7771 
 132   0.0000       0.514777        14.0078 
 133   0.0000       0.517238        14.0748 
 134   0.0000       0.521673        14.1955 
 135   0.0000       0.526871        14.3369 
 136   0.0000       0.534559        14.5461 
 137   0.0000       0.536045        14.5865 
 138   0.0000       0.539842        14.6898 
 139   0.0000       0.543024        14.7764 
 140   0.0000       0.550913        14.9911 
 141   0.0000       0.554067        15.0769 
 142   0.0000       0.561875        15.2894 
 143   0.0000       0.571505        15.5514 
 144   0.0000       0.575533        15.6611 
 145   0.0000       0.584253        15.8983 
 146   0.0000       0.584547        15.9063 
 147   0.0000       0.591194        16.0872 
 148   0.0000       0.592070        16.1110 
 149   0.0000       0.594427        16.1752 
 150   0.0000       0.598311        16.2809 
 151   0.0000       0.605949        16.4887 
 152   0.0000       0.609065        16.5735 
 153   0.0000       0.616384        16.7727 
 154   0.0000       0.619159        16.8482 
 155   0.0000       0.624484        16.9931 
 156   0.0000       0.626056        17.0359 
 157   0.0000       0.628777        17.1099 
 158   0.0000       0.637551        17.3486 
 159   0.0000       0.641074        17.4445 
 160   0.0000       0.645319        17.5600 
 161   0.0000       0.646949        17.6044 
 162   0.0000       0.652107        17.7447 
 163   0.0000       0.657982        17.9046 
 164   0.0000       0.664640        18.0858 
 165   0.0000       0.672169        18.2906 
 166   0.0000       0.677822        18.4445 
 167   0.0000       0.681881        18.5549 
 168   0.0000       0.683752        18.6058 
 169   0.0000       0.690733        18.7958 
 170   0.0000       0.692838        18.8531 
 171   0.0000       0.697935        18.9918 
 172   0.0000       0.704428        19.1685 
 173   0.0000       0.712665        19.3926 
 174   0.0000       0.723416        19.6852 
 175   0.0000       0.727642        19.8001 
 176   0.0000       0.735133        20.0040 
 177   0.0000       0.739027        20.1099 
 178   0.0000       0.741258        20.1707 
 179   0.0000       0.754044        20.5186 
 180   0.0000       0.757806        20.6209 
 181   0.0000       0.767051        20.8725 
 182   0.0000       0.769486        20.9388 
 183   0.0000       0.787618        21.4322 
 184   0.0000       0.793004        21.5787 
 185   0.0000       0.803394        21.8615 
 186   0.0000       0.809097        22.0167 
 187   0.0000       0.826803        22.4984 
 188   0.0000       0.831545        22.6275 
 189   0.0000       0.835392        22.7322 
 190   0.0000       0.839034        22.8313 
 191   0.0000       0.845204        22.9992 
 192   0.0000       0.849057        23.1040 
 193   0.0000       0.856510        23.3068 
 194   0.0000       0.865961        23.5640 
 195   0.0000       0.876022        23.8378 
 196   0.0000       0.879938        23.9443 
 197   0.0000       0.890465        24.2308 
 198   0.0000       0.893673        24.3181 
 199   0.0000       0.903118        24.5751 
 200   0.0000       0.908762        24.7287 
 201   0.0000       0.919193        25.0125 
 202   0.0000       0.922179        25.0938 
 203   0.0000       0.927003        25.2250 
 204   0.0000       0.936440        25.4818 
 205   0.0000       0.938457        25.5367 
 206   0.0000       0.949704        25.8428 
 207   0.0000       0.954705        25.9789 
 208   0.0000       0.964002        26.2318 
 209   0.0000       0.969578        26.3835 
 210   0.0000       0.974040        26.5050 
 211   0.0000       0.989459        26.9245 
 212   0.0000       0.993520        27.0351 
 213   0.0000       1.002540        27.2805 
 214   0.0000       1.007636        27.4192 
 215   0.0000       1.017396        27.6848 
 216   0.0000       1.020989        27.7825 
 217   0.0000       1.032082        28.0844 
 218   0.0000       1.035867        28.1874 
 219   0.0000       1.037935        28.2436 
 220   0.0000       1.044850        28.4318 
 221   0.0000       1.056674        28.7536 
 222   0.0000       1.068175        29.0665 
 223   0.0000       1.072427        29.1822 
 224   0.0000       1.080789        29.4098 
 225   0.0000       1.081995        29.4426 
 226   0.0000       1.104222        30.0474 
 227   0.0000       1.104875        30.0652 
 228   0.0000       1.111860        30.2552 
 229   0.0000       1.116204        30.3735 
 230   0.0000       1.123153        30.5625 
 231   0.0000       1.127780        30.6885 
 232   0.0000       1.134489        30.8710 
 233   0.0000       1.141428        31.0598 
 234   0.0000       1.145957        31.1831 
 235   0.0000       1.152413        31.3587 
 236   0.0000       1.160981        31.5919 
 237   0.0000       1.165711        31.7206 
 238   0.0000       1.174196        31.9515 
 239   0.0000       1.188394        32.3378 
 240   0.0000       1.190995        32.4086 
 241   0.0000       1.199216        32.6323 
 242   0.0000       1.202395        32.7188 
 243   0.0000       1.208125        32.8747 
 244   0.0000       1.213436        33.0193 
 245   0.0000       1.218736        33.1635 
 246   0.0000       1.229855        33.4661 
 247   0.0000       1.239347        33.7244 
 248   0.0000       1.246739        33.9255 
 249   0.0000       1.251779        34.0626 
 250   0.0000       1.259941        34.2847 
 251   0.0000       1.265616        34.4392 
 252   0.0000       1.270614        34.5752 
 253   0.0000       1.283396        34.9230 
 254   0.0000       1.290110        35.1057 
 255   0.0000       1.292997        35.1842 
 256   0.0000       1.305862        35.5343 
 257   0.0000       1.310301        35.6551 
 258   0.0000       1.317820        35.8597 
 259   0.0000       1.324084        36.0302 
 260   0.0000       1.332577        36.2613 
 261   0.0000       1.336915        36.3793 
 262   0.0000       1.349069        36.7100 
 263   0.0000       1.353736        36.8370 
 264   0.0000       1.360183        37.0125 
 265   0.0000       1.380459        37.5642 
 266   0.0000       1.388152        37.7735 
 267   0.0000       1.394214        37.9385 
 268   0.0000       1.395066        37.9617 
 269   0.0000       1.398118        38.0447 
 270   0.0000       1.415546        38.5190 
 271   0.0000       1.422922        38.7197 
 272   0.0000       1.430280        38.9199 
 273   0.0000       1.441569        39.2271 
 274   0.0000       1.449400        39.4402 
 275   0.0000       1.458155        39.6784 
 276   0.0000       1.463986        39.8371 
 277   0.0000       1.474787        40.1310 
 278   0.0000       1.478000        40.2184 
 279   0.0000       1.482445        40.3394 
 280   0.0000       1.489692        40.5366 
 281   0.0000       1.499885        40.8140 
 282   0.0000       1.507060        41.0092 
 283   0.0000       1.511449        41.1286 
 284   0.0000       1.515059        41.2268 
 285   0.0000       1.526521        41.5387 
 286   0.0000       1.531865        41.6842 
 287   0.0000       1.534896        41.7667 
 288   0.0000       1.543091        41.9896 
 289   0.0000       1.544922        42.0395 
 290   0.0000       1.549587        42.1664 
 291   0.0000       1.559660        42.4405 
 292   0.0000       1.565532        42.6003 
 293   0.0000       1.572770        42.7972 
 294   0.0000       1.577545        42.9272 
 295   0.0000       1.582818        43.0707 
 296   0.0000       1.592608        43.3371 
 297   0.0000       1.605828        43.6968 
 298   0.0000       1.615804        43.9683 
 299   0.0000       1.624569        44.2068 
 300   0.0000       1.626167        44.2502 
 301   0.0000       1.637070        44.5469 
 302   0.0000       1.646867        44.8135 
 303   0.0000       1.652590        44.9693 
 304   0.0000       1.658523        45.1307 
 305   0.0000       1.663522        45.2667 
 306   0.0000       1.670671        45.4613 
 307   0.0000       1.674788        45.5733 
 308   0.0000       1.689963        45.9862 
 309   0.0000       1.693911        46.0937 
 310   0.0000       1.705019        46.3959 
 311   0.0000       1.714865        46.6639 
 312   0.0000       1.723972        46.9117 
 313   0.0000       1.735444        47.2238 
 314   0.0000       1.741990        47.4020 
 315   0.0000       1.758818        47.8599 
 316   0.0000       1.762343        47.9558 
 317   0.0000       1.772106        48.2214 
 318   0.0000       1.777710        48.3740 
 319   0.0000       1.791746        48.7559 
 320   0.0000       1.795023        48.8451 
 321   0.0000       1.813007        49.3344 
 322   0.0000       1.823756        49.6269 
 323   0.0000       1.832259        49.8583 
 324   0.0000       1.837942        50.0129 
 325   0.0000       1.862149        50.6716 
 326   0.0000       1.882189        51.2170 
 327   0.0000       1.901294        51.7368 
 328   0.0000       1.907958        51.9182 
 329   0.0000       1.911646        52.0185 
 330   0.0000       1.924204        52.3603 
 331   0.0000       1.935173        52.6587 
 332   0.0000       1.944326        52.9078 
 333   0.0000       1.960236        53.3407 
 334   0.0000       1.965937        53.4959 
 335   0.0000       1.985899        54.0391 
 336   0.0000       1.989670        54.1417 
 337   0.0000       2.000226        54.4289 
 338   0.0000       2.017352        54.8949 
 339   0.0000       2.020741        54.9872 
 340   0.0000       2.025400        55.1139 
 341   0.0000       2.043423        55.6044 
 342   0.0000       2.049276        55.7636 
 343   0.0000       2.088362        56.8272 
 344   0.0000       2.091088        56.9014 
 345   0.0000       2.113737        57.5177 
 346   0.0000       2.124441        57.8090 
 347   0.0000       2.132731        58.0346 
 348   0.0000       2.154903        58.6379 
 349   0.0000       2.168999        59.0215 
 350   0.0000       2.191366        59.6301 
 351   0.0000       2.203623        59.9636 
 352   0.0000       2.209662        60.1280 
 353   0.0000       2.219777        60.4032 
 354   0.0000       2.234179        60.7951 
 355   0.0000       2.268641        61.7329 
 356   0.0000       2.280157        62.0462 
 357   0.0000       2.284046        62.1521 
 358   0.0000       2.304838        62.7178 
 359   0.0000       2.305092        62.7248 
 360   0.0000       2.320522        63.1446 
 361   0.0000       2.323057        63.2136 
 362   0.0000       2.341920        63.7269 
 363   0.0000       2.351732        63.9939 
 364   0.0000       2.362795        64.2949 
 365   0.0000       2.365469        64.3677 
 366   0.0000       2.385124        64.9025 
 367   0.0000       2.392896        65.1140 
 368   0.0000       2.410126        65.5829 
 369   0.0000       2.414705        65.7075 
 370   0.0000       2.431339        66.1601 
 371   0.0000       2.438854        66.3646 
 372   0.0000       2.464956        67.0749 
 373   0.0000       2.470669        67.2303 
 374   0.0000       2.482843        67.5616 
 375   0.0000       2.485296        67.6283 
 376   0.0000       2.500893        68.0528 
 377   0.0000       2.514824        68.4318 
 378   0.0000       2.523790        68.6758 
 379   0.0000       2.528091        68.7929 
 380   0.0000       2.559168        69.6385 
 381   0.0000       2.572789        70.0092 
 382   0.0000       2.580984        70.2321 
 383   0.0000       2.597579        70.6837 
 384   0.0000       2.603797        70.8529 
 385   0.0000       2.612593        71.0923 
 386   0.0000       2.629570        71.5542 
 387   0.0000       2.647557        72.0437 
 388   0.0000       2.652733        72.1845 
 389   0.0000       2.655898        72.2707 
 390   0.0000       2.673890        72.7602 
 391   0.0000       2.675157        72.7947 
 392   0.0000       2.690914        73.2235 
 393   0.0000       2.698842        73.4392 
 394   0.0000       2.710279        73.7504 
 395   0.0000       2.713946        73.8502 
 396   0.0000       2.735415        74.4344 
 397   0.0000       2.742663        74.6317 
 398   0.0000       2.750505        74.8451 
 399   0.0000       2.758961        75.0751 
 400   0.0000       2.768418        75.3325 
 401   0.0000       2.775115        75.5147 
 402   0.0000       2.783234        75.7356 
 403   0.0000       2.800326        76.2008 
 404   0.0000       2.808124        76.4129 
 405   0.0000       2.818828        76.7042 
 406   0.0000       2.835684        77.1629 
 407   0.0000       2.839175        77.2579 
 408   0.0000       2.844362        77.3990 
 409   0.0000       2.853353        77.6437 
 410   0.0000       2.862138        77.8827 
 411   0.0000       2.867109        78.0180 
 412   0.0000       2.877214        78.2930 
 413   0.0000       2.896005        78.8043 
 414   0.0000       2.902571        78.9830 
 415   0.0000       2.917749        79.3960 
 416   0.0000       2.935173        79.8701 
 417   0.0000       2.939298        79.9824 
 418   0.0000       2.945981        80.1642 
 419   0.0000       2.950018        80.2741 
 420   0.0000       2.956306        80.4452 
 421   0.0000       2.959441        80.5305 
 422   0.0000       2.979399        81.0736 
 423   0.0000       2.981616        81.1339 
 424   0.0000       2.989490        81.3482 
 425   0.0000       3.005431        81.7819 
 426   0.0000       3.019573        82.1668 
 427   0.0000       3.025480        82.3275 
 428   0.0000       3.031485        82.4909 
 429   0.0000       3.032882        82.5289 
 430   0.0000       3.041129        82.7533 
 431   0.0000       3.042670        82.7953 
 432   0.0000       3.059944        83.2653 
 433   0.0000       3.070539        83.5536 
 434   0.0000       3.077460        83.7419 
 435   0.0000       3.079364        83.7937 
 436   0.0000       3.083087        83.8951 
 437   0.0000       3.087800        84.0233 
 438   0.0000       3.100843        84.3782 
 439   0.0000       3.103008        84.4372 
 440   0.0000       3.105541        84.5061 
 441   0.0000       3.114292        84.7442 
 442   0.0000       3.119383        84.8827 
 443   0.0000       3.125933        85.0609 
 444   0.0000       3.144028        85.5533 
 445   0.0000       3.148762        85.6822 
 446   0.0000       3.159242        85.9674 
 447   0.0000       3.164864        86.1203 
 448   0.0000       3.172359        86.3243 
 449   0.0000       3.182325        86.5955 
 450   0.0000       3.200293        87.0844 
 451   0.0000       3.201012        87.1040 
 452   0.0000       3.206250        87.2465 
 453   0.0000       3.210127        87.3520 
 454   0.0000       3.222670        87.6933 
 455   0.0000       3.224232        87.7358 
 456   0.0000       3.237635        88.1005 
 457   0.0000       3.246057        88.3297 
 458   0.0000       3.250139        88.4408 
 459   0.0000       3.259239        88.6884 
 460   0.0000       3.266476        88.8853 
 461   0.0000       3.268480        88.9399 
 462   0.0000       3.277289        89.1796 
 463   0.0000       3.281786        89.3019 
 464   0.0000       3.285008        89.3896 
 465   0.0000       3.299083        89.7726 
 466   0.0000       3.314743        90.1987 
 467   0.0000       3.317907        90.2848 
 468   0.0000       3.319149        90.3186 
 469   0.0000       3.328635        90.5768 
 470   0.0000       3.332310        90.6768 
 471   0.0000       3.334544        90.7375 
 472   0.0000       3.344782        91.0162 
 473   0.0000       3.353136        91.2435 
 474   0.0000       3.360263        91.4374 
 475   0.0000       3.362776        91.5058 
 476   0.0000       3.369568        91.6906 
 477   0.0000       3.374375        91.8214 
 478   0.0000       3.378694        91.9389 
 479   0.0000       3.387810        92.1870 
 480   0.0000       3.392854        92.3242 
 481   0.0000       3.394867        92.3790 
 482   0.0000       3.402472        92.5860 
 483   0.0000       3.404893        92.6518 
 484   0.0000       3.409308        92.7720 
 485   0.0000       3.411555        92.8331 
 486   0.0000       3.418757        93.0291 
 487   0.0000       3.425372        93.2091 
 488   0.0000       3.433149        93.4207 
 489   0.0000       3.442866        93.6852 
 490   0.0000       3.444484        93.7292 
 491   0.0000       3.449932        93.8774 
 492   0.0000       3.452640        93.9511 
 493   0.0000       3.461129        94.1821 
 494   0.0000       3.465546        94.3023 
 495   0.0000       3.467807        94.3638 
 496   0.0000       3.477603        94.6304 
 497   0.0000       3.482108        94.7530 
 498   0.0000       3.487403        94.8971 
 499   0.0000       3.500727        95.2596 
 500   0.0000       3.514021        95.6214 
 501   0.0000       3.515695        95.6669 
 502   0.0000       3.521093        95.8138 
 503   0.0000       3.528812        96.0239 
 504   0.0000       3.533574        96.1534 
 505   0.0000       3.538958        96.2999 
 506   0.0000       3.550995        96.6275 
 507   0.0000       3.554809        96.7313 
 508   0.0000       3.572232        97.2054 
 509   0.0000       3.576789        97.3294 
 510   0.0000       3.587226        97.6134 
 511   0.0000       3.593624        97.7875 
 512   0.0000       3.597199        97.8848 
 513   0.0000       3.611066        98.2621 
 514   0.0000       3.617163        98.4280 
 515   0.0000       3.625060        98.6429 
 516   0.0000       3.628001        98.7229 
 517   0.0000       3.634525        98.9004 
 518   0.0000       3.640643        99.0669 
 519   0.0000       3.642421        99.1153 
 520   0.0000       3.650828        99.3441 
 521   0.0000       3.654151        99.4345 
 522   0.0000       3.660575        99.6093 
 523   0.0000       3.667028        99.7849 
 524   0.0000       3.672475        99.9331 
 525   0.0000       3.681690       100.1839 
 526   0.0000       3.684870       100.2704 
 527   0.0000       3.691719       100.4568 
 528   0.0000       3.693609       100.5082 
 529   0.0000       3.695814       100.5682 
 530   0.0000       3.709672       100.9453 
 531   0.0000       3.712658       101.0266 
 532   0.0000       3.726769       101.4105 
 533   0.0000       3.734413       101.6186 
 534   0.0000       3.740065       101.7723 
 535   0.0000       3.743818       101.8745 
 536   0.0000       3.749575       102.0311 
 537   0.0000       3.756254       102.2129 
 538   0.0000       3.757707       102.2524 
 539   0.0000       3.770451       102.5992 
 540   0.0000       3.777735       102.7974 
 541   0.0000       3.778545       102.8194 
 542   0.0000       3.789884       103.1280 
 543   0.0000       3.800079       103.4054 
 544   0.0000       3.802472       103.4705 
 545   0.0000       3.808613       103.6376 
 546   0.0000       3.814253       103.7911 
 547   0.0000       3.821171       103.9794 
 548   0.0000       3.831820       104.2691 
 549   0.0000       3.842969       104.5725 
 550   0.0000       3.851785       104.8124 
 551   0.0000       3.862224       105.0964 
 552   0.0000       3.869010       105.2811 
 553   0.0000       3.878226       105.5319 
 554   0.0000       3.891457       105.8919 
 555   0.0000       3.897173       106.0475 
 556   0.0000       3.910147       106.4005 
 557   0.0000       3.911828       106.4462 
 558   0.0000       3.922422       106.7345 
 559   0.0000       3.926327       106.8408 
 560   0.0000       3.936931       107.1293 
 561   0.0000       3.944191       107.3269 
 562   0.0000       3.947761       107.4240 
 563   0.0000       3.960174       107.7618 
 564   0.0000       3.966343       107.9297 
 565   0.0000       3.978941       108.2725 
 566   0.0000       3.993455       108.6674 
 567   0.0000       3.995290       108.7174 
 568   0.0000       4.009930       109.1158 
 569   0.0000       4.019723       109.3822 
 570   0.0000       4.021378       109.4273 
 571   0.0000       4.031127       109.6925 
 572   0.0000       4.042962       110.0146 
 573   0.0000       4.049238       110.1854 
 574   0.0000       4.058106       110.4267 
 575   0.0000       4.070270       110.7577 
 576   0.0000       4.078534       110.9826 
 577   0.0000       4.084517       111.1454 
 578   0.0000       4.088240       111.2467 
 579   0.0000       4.098734       111.5322 
 580   0.0000       4.113124       111.9238 
 581   0.0000       4.118776       112.0776 
 582   0.0000       4.120948       112.1367 
 583   0.0000       4.126014       112.2746 
 584   0.0000       4.133376       112.4749 
 585   0.0000       4.143379       112.7471 
 586   0.0000       4.146877       112.8423 
 587   0.0000       4.154598       113.0523 
 588   0.0000       4.158861       113.1684 
 589   0.0000       4.162977       113.2804 
 590   0.0000       4.171341       113.5080 
 591   0.0000       4.179276       113.7239 
 592   0.0000       4.190984       114.0425 
 593   0.0000       4.193732       114.1172 
 594   0.0000       4.206700       114.4701 
 595   0.0000       4.210143       114.5638 
 596   0.0000       4.220537       114.8466 
 597   0.0000       4.231040       115.1324 
 598   0.0000       4.231703       115.1505 
 599   0.0000       4.240224       115.3824 
 600   0.0000       4.248165       115.5985 
 601   0.0000       4.254675       115.7756 
 602   0.0000       4.260732       115.9404 
 603   0.0000       4.274368       116.3115 
 604   0.0000       4.279213       116.4433 
 605   0.0000       4.287521       116.6694 
 606   0.0000       4.294240       116.8522 
 607   0.0000       4.316443       117.4564 
 608   0.0000       4.323088       117.6372 
 609   0.0000       4.327235       117.7500 
 610   0.0000       4.331727       117.8723 
 611   0.0000       4.339664       118.0883 
 612   0.0000       4.346001       118.2607 
 613   0.0000       4.356407       118.5439 
 614   0.0000       4.364126       118.7539 
 615   0.0000       4.373125       118.9988 
 616   0.0000       4.378287       119.1392 
 617   0.0000       4.381926       119.2383 
 618   0.0000       4.388715       119.4230 
 619   0.0000       4.393281       119.5473 
 620   0.0000       4.396957       119.6473 
 621   0.0000       4.419086       120.2495 
 622   0.0000       4.426309       120.4460 
 623   0.0000       4.431329       120.5826 
 624   0.0000       4.435571       120.6980 
 625   0.0000       4.448681       121.0548 
 626   0.0000       4.451980       121.1445 
 627   0.0000       4.457948       121.3069 
 628   0.0000       4.462612       121.4338 
 629   0.0000       4.483061       121.9903 
 630   0.0000       4.496394       122.3531 
 631   0.0000       4.501899       122.5029 
 632   0.0000       4.505090       122.5897 
 633   0.0000       4.515649       122.8771 
 634   0.0000       4.528205       123.2187 
 635   0.0000       4.533494       123.3627 
 636   0.0000       4.545204       123.6813 
 637   0.0000       4.547028       123.7309 
 638   0.0000       4.559321       124.0654 
 639   0.0000       4.568982       124.3283 
 640   0.0000       4.582609       124.6991 
 641   0.0000       4.588458       124.8583 
 642   0.0000       4.599995       125.1722 
 643   0.0000       4.605245       125.3151 
 644   0.0000       4.624270       125.8328 
 645   0.0000       4.630849       126.0118 
 646   0.0000       4.634806       126.1195 
 647   0.0000       4.641690       126.3068 
 648   0.0000       4.643114       126.3456 
 649   0.0000       4.653208       126.6202 
 650   0.0000       4.661021       126.8328 
 651   0.0000       4.669446       127.0621 
 652   0.0000       4.673378       127.1691 
 653   0.0000       4.680744       127.3695 
 654   0.0000       4.690754       127.6419 
 655   0.0000       4.695559       127.7727 
 656   0.0000       4.704091       128.0048 
 657   0.0000       4.711992       128.2198 
 658   0.0000       4.722665       128.5102 
 659   0.0000       4.733145       128.7954 
 660   0.0000       4.737372       128.9104 
 661   0.0000       4.752521       129.3227 
 662   0.0000       4.770003       129.7984 
 663   0.0000       4.781167       130.1022 
 664   0.0000       4.803466       130.7090 
 665   0.0000       4.828450       131.3888 
 666   0.0000       4.842941       131.7831 
 667   0.0000       4.853844       132.0798 
 668   0.0000       4.857549       132.1806 
 669   0.0000       4.889220       133.0424 
 670   0.0000       4.897257       133.2611 
 671   0.0000       4.909065       133.5825 
 672   0.0000       4.921525       133.9215 
 673   0.0000       4.944024       134.5337 
 674   0.0000       4.956204       134.8652 
 675   0.0000       4.995454       135.9332 
 676   0.0000       5.007464       136.2600 
 677   0.0000       5.021405       136.6394 
 678   0.0000       5.026938       136.7899 
 679   0.0000       5.038915       137.1158 
 680   0.0000       5.053219       137.5051 
 681   0.0000       5.068176       137.9121 
 682   0.0000       5.080247       138.2405 
 683   0.0000       5.089620       138.4956 
 684   0.0000       5.093613       138.6043 
 685   0.0000       5.104440       138.8989 
 686   0.0000       5.125232       139.4646 
 687   0.0000       5.139658       139.8572 
 688   0.0000       5.145088       140.0050 
 689   0.0000       5.155539       140.2894 
 690   0.0000       5.165638       140.5642 
 691   0.0000       5.179150       140.9318 
 692   0.0000       5.185328       141.1000 
 693   0.0000       5.190241       141.2336 
 694   0.0000       5.198603       141.4612 
 695   0.0000       5.212316       141.8343 
 696   0.0000       5.225764       142.2003 
 697   0.0000       5.230348       142.3250 
 698   0.0000       5.235620       142.4685 
 699   0.0000       5.246204       142.7565 
 700   0.0000       5.260517       143.1460 
 701   0.0000       5.273587       143.5016 
 702   0.0000       5.298267       144.1732 
 703   0.0000       5.314886       144.6254 
 704   0.0000       5.316353       144.6653 
 705   0.0000       5.331165       145.0684 
 706   0.0000       5.334311       145.1540 
 707   0.0000       5.347825       145.5217 
 708   0.0000       5.363520       145.9488 
 709   0.0000       5.375078       146.2633 
 710   0.0000       5.395264       146.8126 
 711   0.0000       5.415207       147.3553 
 712   0.0000       5.421170       147.5175 
 713   0.0000       5.460331       148.5832 
 714   0.0000       5.471777       148.8946 
 715   0.0000       5.493651       149.4899 
 716   0.0000       5.498368       149.6182 
 717   0.0000       5.502065       149.7188 
 718   0.0000       5.518869       150.1761 
 719   0.0000       5.521616       150.2508 
 720   0.0000       5.544382       150.8703 
 721   0.0000       5.547997       150.9687 
 722   0.0000       5.558583       151.2567 
 723   0.0000       5.566365       151.4685 
 724   0.0000       5.589119       152.0877 
 725   0.0000       5.605356       152.5295 
 726   0.0000       5.612561       152.7256 
 727   0.0000       5.626601       153.1076 
 728   0.0000       5.634993       153.3360 
 729   0.0000       5.638926       153.4430 
 730   0.0000       5.649728       153.7369 
 731   0.0000       5.658267       153.9693 
 732   0.0000       5.664668       154.1434 
 733   0.0000       5.670297       154.2966 
 734   0.0000       5.690058       154.8343 
 735   0.0000       5.706942       155.2938 
 736   0.0000       5.717024       155.5681 
 737   0.0000       5.732809       155.9977 
 738   0.0000       5.735870       156.0810 
 739   0.0000       5.762006       156.7922 
 740   0.0000       5.774450       157.1308 
 741   0.0000       5.786757       157.4657 
 742   0.0000       5.794709       157.6821 
 743   0.0000       5.811118       158.1286 
 744   0.0000       5.827221       158.5667 
 745   0.0000       5.831787       158.6910 
 746   0.0000       5.842658       158.9868 
 747   0.0000       5.854308       159.3038 
 748   0.0000       5.922039       161.1469 
 749   0.0000       5.924846       161.2233 
 750   0.0000       5.945179       161.7765 
 751   0.0000       5.970109       162.4549 
 752   0.0000       5.978919       162.6946 
 753   0.0000       5.996716       163.1789 
 754   0.0000       6.005239       163.4109 
 755   0.0000       6.025805       163.9705 
 756   0.0000       6.050208       164.6345 
 757   0.0000       6.055877       164.7888 
 758   0.0000       6.076746       165.3567 
 759   0.0000       6.085409       165.5924 
 760   0.0000       6.092168       165.7763 
 761   0.0000       6.169337       167.8762 
 762   0.0000       6.219537       169.2422 
 763   0.0000       6.225175       169.3956 
 764   0.0000       6.229268       169.5070 
 765   0.0000       6.252402       170.1365 
 766   0.0000       6.274337       170.7334 
 767   0.0000       6.332677       172.3209 
 768   0.0000       6.342336       172.5837 
 769   0.0000       6.351879       172.8434 
 770   0.0000       6.370551       173.3515 
 771   0.0000       6.380946       173.6344 
 772   0.0000       6.408031       174.3714 
 773   0.0000       6.421981       174.7510 
 774   0.0000       6.458207       175.7368 
 775   0.0000       6.470131       176.0612 
 776   0.0000       6.510685       177.1647 
 777   0.0000       6.559575       178.4951 
 778   0.0000       6.590811       179.3451 
 779   0.0000       6.628258       180.3641 
 780   0.0000       6.660363       181.2377 
 781   0.0000       6.673123       181.5849 
 782   0.0000       6.723836       182.9649 
 783   0.0000       6.758915       183.9194 
 784   0.0000       6.798403       184.9939 
 785   0.0000       6.892693       187.5597 
 786   0.0000       6.916966       188.2202 
 787   0.0000       6.925432       188.4506 
 788   0.0000       6.970103       189.6661 
 789   0.0000       7.004940       190.6141 
 790   0.0000       7.048333       191.7949 
 791   0.0000       7.061829       192.1621 
 792   0.0000       7.084839       192.7883 
 793   0.0000       7.112230       193.5336 
 794   0.0000       7.261118       197.5851 
 795   0.0000       7.265652       197.7084 
 796   0.0000       7.279067       198.0735 
 797   0.0000       7.284837       198.2305 
 798   0.0000       7.342645       199.8035 
 799   0.0000       7.383299       200.9098 
 800   0.0000       7.392014       201.1469 
 801   0.0000       7.580881       206.2863 
 802   0.0000       7.587555       206.4679 
 803   0.0000       7.605983       206.9693 
 804   0.0000       7.653788       208.2702 
 805   0.0000       7.819013       212.7662 
 806   0.0000       7.838670       213.3010 
 807   0.0000       7.877473       214.3569 
 808   0.0000       7.936344       215.9589 
 809   0.0000       9.338689       254.1186 
 810   0.0000       9.492318       258.2991 
 811   0.0000      10.748354       292.4776 
 812   0.0000      11.160671       303.6973 
 813   0.0000      11.942783       324.9796 
 814   0.0000      12.560065       341.7767 
 815   0.0000      12.923645       351.6702 
 816   0.0000      13.051569       355.1512 
 817   0.0000      13.089844       356.1928 
 818   0.0000      13.154474       357.9514 
 819   0.0000      13.386147       364.2556 
 820   0.0000      13.497424       367.2836 
 821   0.0000      13.817605       375.9961 
 822   0.0000      13.868457       377.3799 
 823   0.0000      13.951801       379.6478 
 824   0.0000      14.029311       381.7570 
 825   0.0000      14.510107       394.8401 
 826   0.0000      14.634758       398.2320 
 827   0.0000      15.948930       433.9924 

                    ********************************
                    * MULLIKEN POPULATION ANALYSIS *
                    ********************************

-----------------------
MULLIKEN ATOMIC CHARGES
-----------------------
   0 C :   -0.273807
   1 C :    0.041782
   2 O :   -0.360021
   3 C :    0.446086
   4 O :   -0.399385
   5 C :   -0.198472
   6 C :    0.151294
   7 C :   -0.283737
   8 N :   -0.127416
   9 C :    0.206969
  10 S :   -0.440440
  11 N :   -0.210579
  12 C :    0.042325
  13 C :    0.034257
  14 C :   -0.171660
  15 C :   -0.133449
  16 C :   -0.277592
  17 C :    0.313671
  18 O :   -0.359017
  19 C :   -0.255130
  20 H :    0.090476
  21 H :    0.098555
  22 H :    0.101747
  23 H :    0.085059
  24 H :    0.110854
  25 H :    0.128968
  26 H :    0.104620
  27 H :    0.123940
  28 H :    0.198987
  29 H :    0.199853
  30 H :    0.156246
  31 H :    0.160799
  32 H :    0.160760
  33 H :    0.128829
  34 H :    0.240277
  35 H :    0.164351
Sum of atomic charges:    0.0000000

--------------------------------
MULLIKEN REDUCED ORBITAL CHARGES
--------------------------------
  0 C s       :     3.259691  s :     3.259691
      pz      :     0.981439  p :     2.936718
      px      :     0.950822
      py      :     1.004457
      dz2     :     0.026803  d :     0.072949
      dxz     :     0.014215
      dyz     :     0.003802
      dx2y2   :     0.007810
      dxy     :     0.020319
      f0      :     0.000886  f :     0.004449
      f+1     :     0.001158
      f-1     :     0.000076
      f+2     :     0.000635
      f-2     :     0.000320
      f+3     :     0.000795
      f-3     :     0.000578
  1 C s       :     3.171393  s :     3.171393
      pz      :     0.977420  p :     2.618513
      px      :     0.796524
      py      :     0.844569
      dz2     :     0.036441  d :     0.156366
      dxz     :     0.028003
      dyz     :     0.015919
      dx2y2   :     0.035912
      dxy     :     0.040090
      f0      :     0.001632  f :     0.011947
      f+1     :     0.001545
      f-1     :     0.000819
      f+2     :     0.000736
      f-2     :     0.002110
      f+3     :     0.002648
      f-3     :     0.002456
  2 O s       :     3.719125  s :     3.719125
      pz      :     1.645047  p :     4.604560
      px      :     1.335212
      py      :     1.624302
      dz2     :     0.004424  d :     0.034049
      dxz     :     0.011177
      dyz     :     0.004269
      dx2y2   :     0.007578
      dxy     :     0.006601
      f0      :     0.000190  f :     0.002287
      f+1     :     0.000442
      f-1     :     0.000125
      f+2     :     0.000451
      f-2     :     0.000265
      f+3     :     0.000405
      f-3     :     0.000408
  3 C s       :     3.054618  s :     3.054618
      pz      :     0.699781  p :     2.181892
      px      :     0.696072
      py      :     0.786039
      dz2     :     0.040406  d :     0.290873
      dxz     :     0.058776
      dyz     :     0.051434
      dx2y2   :     0.083867
      dxy     :     0.056389
      f0      :     0.002913  f :     0.026531
      f+1     :     0.003775
      f-1     :     0.001989
      f+2     :     0.002813
      f-2     :     0.005351
      f+3     :     0.003387
      f-3     :     0.006302
  4 O s       :     3.770776  s :     3.770776
      pz      :     1.627244  p :     4.590694
      px      :     1.520821
      py      :     1.442629
      dz2     :     0.003964  d :     0.035489
      dxz     :     0.003092
      dyz     :     0.006840
      dx2y2   :     0.009897
      dxy     :     0.011697
      f0      :     0.000264  f :     0.002426
      f+1     :     0.000174
      f-1     :     0.000288
      f+2     :     0.000064
      f-2     :     0.000344
      f+3     :     0.000666
      f-3     :     0.000626
  5 C s       :     3.185570  s :     3.185570
      pz      :     0.940580  p :     2.918412
      px      :     1.101247
      py      :     0.876585
      dz2     :     0.015470  d :     0.084216
      dxz     :     0.011972
      dyz     :     0.027658
      dx2y2   :     0.011758
      dxy     :     0.017358
      f0      :     0.000721  f :     0.010274
      f+1     :     0.001210
      f-1     :     0.001647
      f+2     :     0.002354
      f-2     :     0.001176
      f+3     :     0.001533
      f-3     :     0.001634
  6 C s       :     3.188180  s :     3.188180
      pz      :     0.844233  p :     2.468094
      px      :     0.841561
      py      :     0.782300
      dz2     :     0.032150  d :     0.178107
      dxz     :     0.017604
      dyz     :     0.051422
      dx2y2   :     0.026516
      dxy     :     0.050415
      f0      :     0.001604  f :     0.014324
      f+1     :     0.001153
      f-1     :     0.002751
      f+2     :     0.002637
      f-2     :     0.002179
      f+3     :     0.002150
      f-3     :     0.001851
  7 C s       :     3.280556  s :     3.280556
      pz      :     0.924944  p :     2.929405
      px      :     0.992415
      py      :     1.012047
      dz2     :     0.020182  d :     0.069105
      dxz     :     0.014444
      dyz     :     0.007718
      dx2y2   :     0.019487
      dxy     :     0.007274
      f0      :     0.000382  f :     0.004671
      f+1     :     0.001519
      f-1     :     0.000707
      f+2     :     0.000405
      f-2     :     0.000532
      f+3     :     0.000113
      f-3     :     0.001012
  8 N s       :     3.346148  s :     3.346148
      pz      :     1.274544  p :     3.716880
      px      :     1.361402
      py      :     1.080934
      dz2     :     0.012090  d :     0.059430
      dxz     :     0.009807
      dyz     :     0.013632
      dx2y2   :     0.011641
      dxy     :     0.012260
      f0      :     0.000571  f :     0.004957
      f+1     :     0.000974
      f-1     :     0.000561
      f+2     :     0.001011
      f-2     :     0.000962
      f+3     :     0.000448
      f-3     :     0.000429
  9 C s       :     3.160124  s :     3.160124
      pz      :     0.750948  p :     2.353163
      px      :     0.719287
      py      :     0.882929
      dz2     :     0.057950  d :     0.262167
      dxz     :     0.031868
      dyz     :     0.054772
      dx2y2   :     0.058087
      dxy     :     0.059490
      f0      :     0.002404  f :     0.017577
      f+1     :     0.002559
      f-1     :     0.002300
      f+2     :     0.002973
      f-2     :     0.002105
      f+3     :     0.002490
      f-3     :     0.002746
 10 S s       :     5.855080  s :     5.855080
      pz      :     3.541516  p :    10.490412
      px      :     3.677229
      py      :     3.271668
      dz2     :     0.009631  d :     0.084821
      dxz     :     0.004524
      dyz     :     0.034452
      dx2y2   :     0.016594
      dxy     :     0.019620
      f0      :     0.001196  f :     0.010126
      f+1     :     0.000173
      f-1     :     0.001687
      f+2     :     0.002560
      f-2     :     0.001616
      f+3     :     0.001872
      f-3     :     0.001022
 11 N s       :     3.380670  s :     3.380670
      pz      :     1.369606  p :     3.767283
      px      :     1.373705
      py      :     1.023971
      dz2     :     0.007129  d :     0.058200
      dxz     :     0.008057
      dyz     :     0.013749
      dx2y2   :     0.013690
      dxy     :     0.015576
      f0      :     0.000407  f :     0.004426
      f+1     :     0.000543
      f-1     :     0.000567
      f+2     :     0.000643
      f-2     :     0.000691
      f+3     :     0.000843
      f-3     :     0.000733
 12 C s       :     3.118515  s :     3.118515
      pz      :     0.870346  p :     2.642967
      px      :     0.986592
      py      :     0.786029
      dz2     :     0.033543  d :     0.184805
      dxz     :     0.033579
      dyz     :     0.041226
      dx2y2   :     0.039136
      dxy     :     0.037319
      f0      :     0.001145  f :     0.011387
      f+1     :     0.001174
      f-1     :     0.001931
      f+2     :     0.002555
      f-2     :     0.001847
      f+3     :     0.001519
      f-3     :     0.001216
 13 C s       :     3.099214  s :     3.099214
      pz      :     0.905857  p :     2.745972
      px      :     0.911653
      py      :     0.928463
      dz2     :     0.020166  d :     0.109323
      dxz     :     0.010837
      dyz     :     0.031803
      dx2y2   :     0.023785
      dxy     :     0.022732
      f0      :     0.001172  f :     0.011234
      f+1     :     0.001578
      f-1     :     0.001361
[...]
      f-1     :     0.005957
      f+2     :     0.006316
      f-2     :     0.005857
      f+3     :     0.005390
      f-3     :     0.008157
 15 C s       :     2.705782  s :     2.705782
      pz      :     0.928077  p :     2.796807
      px      :     0.908657
      py      :     0.960074
      dz2     :     0.109781  d :     0.414929
      dxz     :     0.070247
      dyz     :     0.071768
      dx2y2   :     0.081034
      dxy     :     0.082099
      f0      :     0.004258  f :     0.040950
      f+1     :     0.005896
      f-1     :     0.006858
      f+2     :     0.007132
      f-2     :     0.006821
      f+3     :     0.005466
      f-3     :     0.004519
 16 C s       :     2.702087  s :     2.702087
      pz      :     0.947929  p :     2.867811
      px      :     0.953739
      py      :     0.966143
      dz2     :     0.057724  d :     0.390976
      dxz     :     0.055123
      dyz     :     0.100498
      dx2y2   :     0.086290
      dxy     :     0.091341
      f0      :     0.005280  f :     0.040295
      f+1     :     0.005412
      f-1     :     0.004126
      f+2     :     0.005425
      f-2     :     0.006223
      f+3     :     0.006648
      f-3     :     0.007180
 17 C s       :     2.701668  s :     2.701668
      pz      :     0.852879  p :     2.684978
      px      :     0.818784
      py      :     1.013316
      dz2     :     0.145051  d :     0.707312
      dxz     :     0.117679
      dyz     :     0.151934
      dx2y2   :     0.149506
      dxy     :     0.143143
      f0      :     0.013460  f :     0.099162
      f+1     :     0.015822
      f-1     :     0.010656
      f+2     :     0.015587
      f-2     :     0.017208
      f+3     :     0.011799
      f-3     :     0.014630
 18 O s       :     3.177347  s :     3.177347
      pz      :     1.372200  p :     4.348996
      px      :     1.482897
      py      :     1.493899
      dz2     :     0.010704  d :     0.075593
      dxz     :     0.017844
      dyz     :     0.021855
      dx2y2   :     0.015057
      dxy     :     0.010132
      f0      :     0.000694  f :     0.005077
      f+1     :     0.000759
      f-1     :     0.000483
      f+2     :     0.000947
      f-2     :     0.001024
      f+3     :     0.000475
      f-3     :     0.000695
 19 C s       :     2.695639  s :     2.695639
      pz      :     0.947728  p :     2.846451
      px      :     0.938548
      py      :     0.960175
      dz2     :     0.091622  d :     0.388727
      dxz     :     0.067047
      dyz     :     0.075778
      dx2y2   :     0.072215
      dxy     :     0.082064
      f0      :     0.004145  f :     0.040828
      f+1     :     0.006196
      f-1     :     0.006688
      f+2     :     0.007164
      f-2     :     0.007133
      f+3     :     0.005340
      f-3     :     0.004162
 20 H s       :     0.852036  s :     0.852036
      pz      :     0.040326  p :     0.150843
      px      :     0.044214
      py      :     0.066302
      dz2     :     0.003291  d :     0.027516
      dxz     :     0.002016
      dyz     :     0.006674
      dx2y2   :     0.007394
      dxy     :     0.008141
 21 H s       :     0.845193  s :     0.845193
      pz      :     0.039468  p :     0.150532
      px      :     0.056216
      py      :     0.054849
      dz2     :     0.002622  d :     0.027366
      dxz     :     0.005000
      dyz     :     0.003919
      dx2y2   :     0.009061
      dxy     :     0.006764
 22 H s       :     0.846619  s :     0.846619
      pz      :     0.071014  p :     0.150437
      px      :     0.040444
      py      :     0.038979
      dz2     :     0.009435  d :     0.027460
      dxz     :     0.008240
      dyz     :     0.008091
      dx2y2   :     0.000517
      dxy     :     0.001177
 23 H s       :     0.859289  s :     0.859289
      pz      :     0.077422  p :     0.145239
      px      :     0.036588
      py      :     0.031228
      dz2     :     0.009661  d :     0.026882
      dxz     :     0.008533
      dyz     :     0.007004
      dx2y2   :     0.000532
      dxy     :     0.001151
 24 H s       :     0.853998  s :     0.853998
      pz      :     0.040143  p :     0.145331
      px      :     0.036803
      py      :     0.068385
      dz2     :     0.003601  d :     0.026910
      dxz     :     0.001799
      dyz     :     0.007288
      dx2y2   :     0.006893
      dxy     :     0.007329
 25 H s       :     0.828820  s :     0.828820
      pz      :     0.063139  p :     0.150900
      px      :     0.044646
      py      :     0.043115
      dz2     :     0.008773  d :     0.027728
      dxz     :     0.007083
      dyz     :     0.006460
      dx2y2   :     0.003348
      dxy     :     0.002063
 26 H s       :     0.842846  s :     0.842846
      pz      :     0.036844  p :     0.150065
      px      :     0.040206
      py      :     0.073014
      dz2     :     0.002338  d :     0.027724
      dxz     :     0.000234
      dyz     :     0.009001
      dx2y2   :     0.006715
      dxy     :     0.009436
 27 H s       :     0.831318  s :     0.831318
      pz      :     0.037929  p :     0.151977
      px      :     0.068962
      py      :     0.045086
      dz2     :     0.002376  d :     0.027808
      dxz     :     0.008153
      dyz     :     0.000852
      dx2y2   :     0.008740
      dxy     :     0.007686
 28 H s       :     0.742490  s :     0.742490
      pz      :     0.064183  p :     0.253996
      px      :     0.079354
      py      :     0.110460
      dz2     :     0.006530  d :     0.061861
      dxz     :     0.002878
      dyz     :     0.017162
      dx2y2   :     0.016521
      dxy     :     0.018770
 29 H s       :     0.747930  s :     0.747930
      pz      :     0.111264  p :     0.253940
      px      :     0.100575
      py      :     0.042101
      dz2     :     0.020917  d :     0.061341
      dxz     :     0.015314
      dyz     :     0.008868
      dx2y2   :     0.009462
      dxy     :     0.006781
 30 H s       :     0.825205  s :     0.825205
      pz      :     0.045635  p :     0.153215
      px      :     0.067715
      py      :     0.039865
      dz2     :     0.004126  d :     0.029182
      dxz     :     0.008250
      dyz     :     0.003019
      dx2y2   :     0.007432
      dxy     :     0.006354
 31 H s       :     0.840252  s :     0.840252
      pz      :     0.058955  p :     0.155801
      px      :     0.061427
      py      :     0.035420
      dz2     :     0.006391  d :     0.027448
      dxz     :     0.007211
      dyz     :     0.004407
      dx2y2   :     0.004618
      dxy     :     0.004821
 32 H s       :     0.842891  s :     0.842891
      pz      :     0.035678  p :     0.151275
      px      :     0.043717
      py      :     0.071880
      dz2     :     0.002666  d :     0.026472
      dxz     :     0.001374
      dyz     :     0.006821
      dx2y2   :     0.007816
      dxy     :     0.007795
 33 H s       :     0.849131  s :     0.849131
      pz      :     0.059713  p :     0.159073
      px      :     0.044461
      py      :     0.054899
      dz2     :     0.006877  d :     0.027759
      dxz     :     0.004656
      dyz     :     0.006951
      dx2y2   :     0.004706
      dxy     :     0.004569
 34 H s       :     0.706937  s :     0.706937
      pz      :     0.110624  p :     0.348019
      px      :     0.086508
      py      :     0.150887
      dz2     :     0.023898  d :     0.099603
      dxz     :     0.012610
      dyz     :     0.024671
      dx2y2   :     0.018557
      dxy     :     0.019867
 35 H s       :     0.839399  s :     0.839399
      pz      :     0.037545  p :     0.156687
      px      :     0.046077
      py      :     0.073065
      dz2     :     0.002643  d :     0.027916
      dxz     :     0.001530
      dyz     :     0.007292
      dx2y2   :     0.008262
      dxy     :     0.008190


                      *****************************
                      * MAYER POPULATION ANALYSIS *
                      *****************************

  NA   - Mulliken gross atomic population
  ZA   - Total nuclear charge
  QA   - Mulliken gross atomic charge
  VA   - Mayer's total valence
  BVA  - Mayer's bonded valence
  FA   - Mayer's free valence

  ATOM       NA         ZA         QA         VA         BVA        FA
  0 C      6.2738     6.0000    -0.2738     3.8961     3.8961     0.0000
  1 C      5.9582     6.0000     0.0418     3.8794     3.8794     0.0000
  2 O      8.3600     8.0000    -0.3600     2.0022     2.0022     0.0000
  3 C      5.5539     6.0000     0.4461     4.2170     4.2170     0.0000
  4 O      8.3994     8.0000    -0.3994     2.1088     2.1088    -0.0000
  5 C      6.1985     6.0000    -0.1985     3.6384     3.6384    -0.0000
  6 C      5.8487     6.0000     0.1513     3.8474     3.8474    -0.0000
  7 C      6.2837     6.0000    -0.2837     3.8952     3.8952     0.0000
  8 N      7.1274     7.0000    -0.1274     3.2948     3.2948    -0.0000
  9 C      5.7930     6.0000     0.2070     4.1545     4.1545     0.0000
 10 S     16.4404    16.0000    -0.4404     1.7565     1.7565    -0.0000
 11 N      7.2106     7.0000    -0.2106     3.2516     3.2516    -0.0000
 12 C      5.9577     6.0000     0.0423     3.9359     3.9359     0.0000
 13 C      5.9657     6.0000     0.0343     3.7648     3.7648    -0.0000
 14 C      6.1717     6.0000    -0.1717     3.8681     3.8681    -0.0000
 15 C      6.1334     6.0000    -0.1334     3.8047     3.8047     0.0000
 16 C      6.2776     6.0000    -0.2776     3.7963     3.7963     0.0000
 17 C      5.6863     6.0000     0.3137     3.8591     3.8591     0.0000
 18 O      8.3590     8.0000    -0.3590     2.1148     2.1148    -0.0000
 19 C      6.2551     6.0000    -0.2551     3.8449     3.8449     0.0000
 20 H      0.9095     1.0000     0.0905     0.9812     0.9812    -0.0000
 21 H      0.9014     1.0000     0.0986     0.9832     0.9832     0.0000
 22 H      0.8983     1.0000     0.1017     0.9836     0.9836     0.0000
 23 H      0.9149     1.0000     0.0851     0.9767     0.9767     0.0000
 24 H      0.8891     1.0000     0.1109     0.9808     0.9808     0.0000
 25 H      0.8710     1.0000     0.1290     0.9808     0.9808     0.0000
 26 H      0.8954     1.0000     0.1046     0.9861     0.9861     0.0000
 27 H      0.8761     1.0000     0.1239     0.9775     0.9775     0.0000
 28 H      0.8010     1.0000     0.1990     1.0217     1.0217    -0.0000
 29 H      0.8001     1.0000     0.1999     1.0145     1.0145     0.0000
 30 H      0.8438     1.0000     0.1562     0.9914     0.9914     0.0000
 31 H      0.8392     1.0000     0.1608     0.9899     0.9899    -0.0000
 32 H      0.8392     1.0000     0.1608     0.9770     0.9770     0.0000
 33 H      0.8712     1.0000     0.1288     0.9920     0.9920    -0.0000
 34 H      0.7597     1.0000     0.2403     1.0108     1.0108    -0.0000
 35 H      0.8356     1.0000     0.1644     0.9897     0.9897     0.0000

  Mayer bond orders larger than 0.100000
B(  0-C ,  1-C ) :   0.9743 B(  0-C , 20-H ) :   0.9787 B(  0-C , 21-H ) :   0.9768 
B(  0-C , 22-H ) :   0.9766 B(  1-C ,  2-O ) :   0.9050 B(  1-C , 23-H ) :   0.9701 
B(  1-C , 24-H ) :   0.9799 B(  2-O ,  3-C ) :   1.0837 B(  3-C ,  4-O ) :   2.0309 
B(  3-C ,  5-C ) :   1.0316 B(  5-C ,  6-C ) :   1.6572 B(  5-C , 12-C ) :   0.9506 
B(  6-C ,  7-C ) :   0.9534 B(  6-C ,  8-N ) :   1.1391 B(  7-C , 25-H ) :   0.9649 
B(  7-C , 26-H ) :   0.9908 B(  7-C , 27-H ) :   0.9644 B(  8-N ,  9-C ) :   1.1838 
B(  8-N , 28-H ) :   0.9470 B(  9-C , 10-S ) :   1.6107 B(  9-C , 11-N ) :   1.3052 
B( 11-N , 12-C ) :   0.9783 B( 11-N , 29-H ) :   0.9485 B( 12-C , 13-C ) :   0.9718 
B( 12-C , 30-H ) :   0.9961 B( 13-C , 14-C ) :   1.3788 B( 13-C , 19-C ) :   1.3627 
B( 14-C , 15-C ) :   1.3974 B( 14-C , 31-H ) :   0.9629 B( 15-C , 16-C ) :   1.3591 
B( 15-C , 32-H ) :   0.9709 B( 16-C , 17-C ) :   1.3331 B( 16-C , 33-H ) :   0.9858 
B( 17-C , 18-O ) :   1.1041 B( 17-C , 19-C ) :   1.3673 B( 18-O , 34-H ) :   0.9803 
B( 19-C , 35-H ) :   0.9601 

-------
TIMINGS
-------

Total SCF time: 0 days 1 hours 31 min 27 sec 

Total time                  ....    5487.442 sec
Sum of individual times     ....    5475.297 sec  ( 99.8%)

Fock matrix formation       ....    5448.238 sec  ( 99.3%)
Diagonalization             ....       2.051 sec  (  0.0%)
Density matrix formation    ....       0.324 sec  (  0.0%)
Population analysis         ....       0.328 sec  (  0.0%)
Initial guess               ....       5.131 sec  (  0.1%)
Orbital Transformation      ....       0.000 sec  (  0.0%)
Orbital Orthonormalization  ....       0.000 sec  (  0.0%)
DIIS solution               ....      14.189 sec  (  0.3%)
SOSCF solution              ....       3.717 sec  (  0.1%)

------------------------------------------------------------------------------
                                ORCA  MP2 
------------------------------------------------------------------------------

Freezing NCore=48 chemical core electrons

-------------
RI-MP2 ENERGY
-------------
Dimension of the basis                    ...  828
Memory devoted to MP2                     ...  256 MB   
Data format for buffers                   ... DOUBLE
Compression type for matrix containers    ... UNCOMPRESSED
Overall scaling of the MP2 energy         ...   1.000e+00
Calculating two index integrals           ... done (    0.040 sec)
Cholesky decomposition of V**-1           ... done (    0.351 sec)

-----------------
RI-TRANSFORMATION (AUX index driven)
-----------------

Dimension of the orbital-basis         ... 828
Dimension of the aux-basis             ... 2141
Transformation of internal/external MOs...   24-  76 to   77- 827
Number Format for Storage              ... Double (8 Byte)
Integral mode                          ... Direct

First Phase: integral generation and transformation of MO indices
  Aux angular momentum 0               ... done (    5.181 sec)
  Aux angular momentum 1               ... done (    8.762 sec)
  Aux angular momentum 2               ... done (   11.236 sec)
  Aux angular momentum 3               ... done (    9.102 sec)
  Aux angular momentum 4               ... done (    3.167 sec)
Closing buffer VIA ( 0.63 GB; CompressionRatio= 1.00)
  Phase 1 completed in    37.923 sec
Second Phase: sorting and transformation of aux index

IA-Transformation
Memory available                       ... 167 MB 
Max. # MO pairs treated in a batch     ... 12    
# of internal orbitals                 ... 53
# batches for internal orbitals        ... 5
Closing buffer IAV ( 0.63 GB; CompressionRatio= 1.00)
(ia|v) transformation done in    33.438 sec

  Phase 2 completed in    33.622 sec
RI-Integral transformation completed in    71.554 sec
Opening buffers                              ... done

Starting loop over batches of integrals:

Operator 0  - window                       ... ( 24- 76)x( 77-827)
Operator 0  - Memory available             ...   256 MB
Operator 0  - Memory needed per MO         ...  12.3 MB
Operator 0  - Number of orbitals per batch ... 13
Operator 0  - Number of batches            ... 5

OPERATOR  0   PASS   0:  MOs    24 ...   36
  Reading integrals       ... ok
  Internal MO  26
  Internal MO  29
  Internal MO  32
  Internal MO  35
OPERATOR  0   PASS   1:  MOs    37 ...   49
  Reading integrals       ... ok
  Internal MO  38
  Internal MO  41
  Internal MO  44
  Internal MO  47
OPERATOR  0   PASS   2:  MOs    50 ...   62
  Reading integrals       ... ok
  Internal MO  50
  Internal MO  53
  Internal MO  56
  Internal MO  59
  Internal MO  62
OPERATOR  0   PASS   3:  MOs    63 ...   75
  Reading integrals       ... ok
  Internal MO  65
  Internal MO  68
  Internal MO  71
  Internal MO  74
OPERATOR  0   PASS   4:  MOs    76 ...   76
  Reading integrals       ... ok
Time spent in pair loops =   124.708 sec
Deleting buffer (Ka|jb)[aa] ...done

-----------------------------------------------
 RI-MP2 CORRELATION ENERGY:     -3.527339273 Eh
-----------------------------------------------


-------
TIMINGS
-------

Total time                :  196.793 sec
Integral trafo            :   71.570 sec ( 36.4%)
I/O of integrals          :    6.688 sec (  3.4%)
K(i,j) Operators          :   60.081 sec ( 30.5%)
T(i,j) pair energies      :    9.874 sec (  5.0%)
V-calculation             :    0.040 sec (  0.0%)
V**(-1/2)                 :    0.351 sec (  0.2%)
Gamma(ia|P)               :    0.000 sec (  0.0%)
Gamma-Trafo               :    0.000 sec (  0.0%)
D(virtual)                :    0.000 sec (  0.0%)
D(internal)               :    0.000 sec (  0.0%)
W(virtual)                :    0.000 sec (  0.0%)
W(internal)               :    0.000 sec (  0.0%)
L(virtual)                :    0.000 sec (  0.0%)
L(internal)               :    0.000 sec (  0.0%)
G(D)                      :    0.000 sec (  0.0%)
G(Z)                      :    0.000 sec (  0.0%)
Z-Vector Solution         :    0.000 sec (  0.0%)
3-Index Derivative        :    0.000 sec (  0.0%)
2-Index Derivative        :    0.000 sec (  0.0%)
Separable Gradient        :    0.000 sec (  0.0%)


---------------------------------------
MP2 TOTAL ENERGY:    -1274.330332669 Eh
---------------------------------------

-------------------------   --------------------
FINAL SINGLE POINT ENERGY     -1274.330332669040
-------------------------   --------------------


                            ***************************************
                            *     ORCA property calculations      *
                            ***************************************


  WARNING: The energy has been calculated at the MP2 level but the densities
           used in the property calculations are still SCF densities
           MP2 response densities have not been calculated 
           use %mp2 Density relaxed end
           or  %mp2 Density unrelaxed end

                                    ---------------------
                                    Active property flags
                                    ---------------------
   (+) Dipole Moment


------------------------------------------------------------------------------
                       ORCA ELECTRIC PROPERTIES CALCULATION
------------------------------------------------------------------------------

Dipole Moment Calculation                       ... on
Quadrupole Moment Calculation                   ... off
Polarizability Calculation                      ... off
GBWName                                         ... CONFS/Conf937.orca.gbw
Electron density file                           ... CONFS/Conf937.orca.scfp
The origin for moment calculation is the CENTER OF MASS  = (31.946565, 32.978555 33.555420)

-------------
DIPOLE MOMENT
-------------
                                X             Y             Z
Electronic contribution:     11.48380       8.22190      10.70884
Nuclear contribution   :    -12.95380      -9.49436     -11.45576
                        -----------------------------------------
Total Dipole Moment    :     -1.47000      -1.27246      -0.74692
                        -----------------------------------------
Magnitude (a.u.)       :      2.08277
Magnitude (Debye)      :      5.29399



--------------------
Rotational spectrum 
--------------------
 
Rotational constants in cm-1:     0.009569     0.009401     0.005770 
Rotational constants in MHz :   286.868425   281.826445   172.970365 

 Dipole components along the rotational axes: 
x,y,z [a.u.] :     1.916857     0.347746     0.736666 
x,y,z [Debye]:     4.872263     0.883901     1.872457 

 

Timings for individual modules:

Sum of individual times         ...     5686.758 sec (=  94.779 min)
GTO integral calculation        ...        1.520 sec (=   0.025 min)   0.0 %
SCF iterations                  ...     5487.526 sec (=  91.459 min)  96.5 %
MP2 module                      ...      197.712 sec (=   3.295 min)   3.5 %
                             ****ORCA TERMINATED NORMALLY****
TOTAL RUN TIME: 0 days 1 hours 34 minutes 49 seconds 192 msec
