
                                 *****************
                                 * O   R   C   A *
                                 *****************

           --- An Ab Initio, DFT and Semiempirical electronic structure package ---

                  #######################################################
                  #                        -***-                        #
                  #          Department of theory and spectroscopy      #
                  #               Directorship: Frank Neese             #
                  #        Max Planck Institute fuer Kohlenforschung    #
                  #                Kaiser Wilhelm Platz 1               #
                  #                 D-45470 Muelheim/Ruhr               #
                  #                      Germany                        #
                  #                                                     #
                  #                  All rights reserved                #
                  #                        -***-                        #
                  #######################################################


                         Program Version 4.2.0 -  RELEASE  -


 With contributions from (in alphabetic order):
   Daniel Aravena         : Magnetic Suceptibility
   Michael Atanasov       : Ab Initio Ligand Field Theory (pilot matlab implementation)
   Alexander A. Auer      : GIAO ZORA, VPT2
   Ute Becker             : Parallelization
   Giovanni Bistoni       : ED, misc. LED, open-shell LED, HFLED
   Martin Brehm           : Molecular dynamics
   Dmytro Bykov           : SCF Hessian
   Vijay G. Chilkuri      : MRCI spin determinant printing, contributions to CSF-ICE
   Dipayan Datta          : RHF DLPNO-CCSD density
   Achintya Kumar Dutta   : EOM-CC, STEOM-CC
   Dmitry Ganyushin       : Spin-Orbit,Spin-Spin,Magnetic field MRCI
   Miquel Garcia          : C-PCM Hessian, Gaussian charge scheme
   Yang Guo               : DLPNO-NEVPT2, CIM, IAO-localization
   Andreas Hansen         : Spin unrestricted coupled pair/coupled cluster methods
   Benjamin Helmich-Paris : CASSCF linear response (MC-RPA)
   Lee Huntington         : MR-EOM, pCC
   Robert Izsak           : Overlap fitted RIJCOSX, COSX-SCS-MP3, EOM
   Christian Kollmar      : KDIIS, OOCD, Brueckner-CCSD(T), CCSD density
   Simone Kossmann        : Meta GGA functionals, TD-DFT gradient, OOMP2, MP2 Hessian
   Martin Krupicka        : AUTO-CI
   Lucas Lang             : DCDCAS
   Dagmar Lenk            : GEPOL surface, SMD
   Dimitrios Liakos       : Extrapolation schemes; Compound Job, initial MDCI parallelization
   Dimitrios Manganas     : Further ROCIS development; embedding schemes
   Dimitrios Pantazis     : SARC Basis sets
   Taras Petrenko         : DFT Hessian,TD-DFT gradient, ASA, ECA, R-Raman, ABS, FL, XAS/XES, NRVS
   Peter Pinski           : DLPNO-MP2, DLPNO-MP2 Gradient
   Christoph Reimann      : Effective Core Potentials
   Marius Retegan         : Local ZFS, SOC
   Christoph Riplinger    : Optimizer, TS searches, QM/MM, DLPNO-CCSD(T), (RO)-DLPNO pert. Triples
   Tobias Risthaus        : Range-separated hybrids, TD-DFT gradient, RPA, STAB
   Michael Roemelt        : Original ROCIS implementation
   Masaaki Saitow         : Open-shell DLPNO-CCSD energy and density
   Barbara Sandhoefer     : DKH picture change effects
   Avijit Sen             : IP-ROCIS
   Kantharuban Sivalingam : CASSCF convergence, NEVPT2, FIC-MRCI
   Bernardo de Souza      : ESD, SOC TD-DFT
   Georgi Stoychev        : AutoAux, RI-MP2 NMR
   Willem Van den Heuvel  : Paramagnetic NMR
   Boris Wezisla          : Elementary symmetry handling
   Frank Wennmohs         : Technical directorship


 We gratefully acknowledge several colleagues who have allowed us to
 interface, adapt or use parts of their codes:
   Stefan Grimme, W. Hujo, H. Kruse,             : VdW corrections, initial TS optimization,
                  C. Bannwarth                     DFT functionals, gCP, sTDA/sTD-DF
   Ed Valeev, F. Pavosevic, A. Kumar             : LibInt (2-el integral package), F12 methods
   Garnet Chan, S. Sharma, J. Yang, R. Olivares  : DMRG
   Ulf Ekstrom                                   : XCFun DFT Library
   Mihaly Kallay                                 : mrcc  (arbitrary order and MRCC methods)
   Andreas Klamt, Michael Diedenhofen            : otool_cosmo (COSMO solvation model)
   Jiri Pittner, Ondrej Demel                    : Mk-CCSD
   Frank Weinhold                                : gennbo (NPA and NBO analysis)
   Christopher J. Cramer and Donald G. Truhlar   : smd solvation model
   Lars Goerigk                                  : TD-DFT with DH, B97 family of functionals
   V. Asgeirsson, H. Jonsson                     : NEB implementation
   FAccTs GmbH                                   : IRC, NEB, NEB-TS, Multilevel, MM, QM/MM, CI optimization
   S Lehtola, MJT Oliveira, MAL Marques          : LibXC Library


 Your calculation uses the libint2 library for the computation of 2-el integrals
 For citations please refer to: http://libint.valeyev.net

 Your ORCA version has been built with support for libXC version: 4.2.3
 For citations please refer to: https://tddft.org/programs/libxc/

 This ORCA versions uses:
   CBLAS   interface :  Fast vector & matrix operations
   LAPACKE interface :  Fast linear algebra routines
   SCALAPACK package :  Parallel linear algebra routines


----- Orbital basis set information -----
Your calculation utilizes the basis: cc-pVTZ 
       H, B-Ne : Obtained from the ccRepo (grant-hill.group.shef.ac.uk/ccrepo) Feb. 2017
                 T. H. Dunning, Jr., J. Chem. Phys. 90, 1007 (1989)
            He : Obtained from the ccRepo (grant-hill.group.shef.ac.uk/ccrepo) Feb. 2017
                 D. E. Woon, T. H. Dunning, Jr., J. Chem. Phys. 100, 2975 (1994)
  Li-Be, Na-Mg : Obtained from the ccRepo (grant-hill.group.shef.ac.uk/ccrepo) Feb. 2017
                 B. P. Prascher, D. E. Woon, K. A. Peterson, T. H. Dunning, Jr., A. K. Wilson, Theor. Chem. Acc. 128, 69 (2011)
         Al-Ar : Obtained from the ccRepo (grant-hill.group.shef.ac.uk/ccrepo) Feb. 2017
                 D. E. Woon, T. H. Dunning, Jr., J. Chem. Phys. 98, 1358 (1993)
            Ca : Obtained from the Peterson Research Group Website (tyr0.chem.wsu.edu/~kipeters) Feb. 2017
                 J. Koput, K. A. Peterson, J. Phys. Chem. 106, 9595 (2002)
         Sc-Zn : Obtained from the ccRepo (grant-hill.group.shef.ac.uk/ccrepo) Feb. 2017
                 N. B. Balabanov, K. A. Peterson, J. Chem. Phys. 123, 064107 (2005)
                 N. B. Balabanov, K. A. Peterson, J. Chem. Phys. 125, 074110 (2006)
         Ga-Kr : Obtained from the ccRepo (grant-hill.group.shef.ac.uk/ccrepo) Feb. 2017
                 A. K. Wilson, D. E. Woon, K. A. Peterson, T. H. Dunning, Jr., J. Chem. Phys. 110, 7667 (1999)
             Y : Obtained from the ccRepo (grant-hill.group.shef.ac.uk/ccrepo) Feb. 2017
                 K. A. Peterson, D. Figgen, M. Dolg, H. Stoll, J. Chem. Phys. 126, 124101 (2007)
        Ag, Au : Obtained from the Peterson Research Group Website (tyr0.chem.wsu.edu/~kipeters) Feb. 2017
                 K. A. Peterson, C. Puzzarini, Theor. Chem. Acc. 114, 283 (2005)

----- AuxC basis set information -----
Your calculation utilizes the auxiliary basis: cc-pVTZ/C 
  Obtained from the EMSL Basis Set Exchange (bse.pnl.gov) Feb. 2017
  H-He, B-F, Al-Ar, Ga-Kr : F. Weigend, A. Kohn, C. Hattig, J. Chem. Phys. 116, 3175 (2002)
             Li-Be, Na-Mg : C. Haettig, Phys. Chem. Chem. Phys. 7, 59 (2005)
                       Ne : C. Haettig, Phys. Chem. Chem. Phys. 7, 59 (2005)
                            F. Weigend, A. Kohn, C. Hattig, J. Chem. Phys. 116, 3175 (2002)
                    Sc-Zn : J. G. Hill, J. A. Platts, J. Chem. Phys. 128, 044104 (2008)

================================================================================
                                        WARNINGS
                       Please study these warnings very carefully!
================================================================================


WARNING: No MP2 level density has been requested!
         To caclulate MP2 level properties use
         %mp2 Density relaxed end
         or
         %mp2 Density unrelaxed end

WARNING: Post HF methods need fully converged wavefunctions
  ===> : Setting SCFConvForced true
         You can overwrite this default with %scf ConvForced false 


INFO   : the flag for use of LIBINT has been found!

================================================================================
                                       INPUT FILE
================================================================================
NAME = CONFS/Conf218.orca
|  1> ! ri-mp2 cc-pvtz cc-pvtz/c TightSCF NoKeepInts
|  2> 
|  3> %scf
|  4>   MaxCore 4096
|  5> end
|  6> *xyz  0  1
|  7>     C       15.3864267   15.3563519   13.1906330
|  8>     C       14.6199587   15.6109825   14.5014828
|  9>     O       15.2743108   16.6840818   15.2029552
| 10>     C       16.2803304   16.4094797   16.0858427
| 11>     O       16.6889029   15.2756046   16.2778744
| 12>     C       16.8140007   17.5987876   16.8364607
| 13>     C       16.7764955   18.8660163   16.3432820
| 14>     C       16.0230400   19.3780646   15.1309671
| 15>     N       17.5226682   19.8857200   16.9401811
| 16>     C       18.4928297   19.6867061   17.8845885
| 17>     S       19.4147132   20.9313061   18.4648630
| 18>     N       18.6755123   18.3949316   18.3071333
| 19>     C       17.8205709   17.2492407   17.9412129
| 20>     C       17.1904164   16.5648741   19.1472434
| 21>     C       17.3795251   15.1893274   19.3718732
| 22>     C       16.8005827   14.5610430   20.4872739
| 23>     C       16.0273710   15.3152649   21.3865356
| 24>     C       15.8360398   16.6859442   21.1640736
| 25>     O       15.0870004   17.4157413   22.0287922
| 26>     C       16.4132429   17.3083046   20.0525741
| 27>     H       15.4396791   16.2706298   12.5868875
| 28>     H       14.8856535   14.5812143   12.5979871
| 29>     H       16.4088858   15.0168495   13.3997253
| 30>     H       13.5937779   15.9133523   14.2563733
| 31>     H       14.5674446   14.6984535   15.1115348
| 32>     H       14.9420055   19.2420130   15.2605928
| 33>     H       16.3276427   18.8379145   14.2258671
| 34>     H       16.1942098   20.4446412   14.9410090
| 35>     H       17.4148449   20.8364243   16.6250745
| 36>     H       19.3813555   18.2778067   19.0231003
| 37>     H       18.5663775   16.5928564   17.4696410
| 38>     H       17.9647391   14.6026590   18.6676773
| 39>     H       16.9478771   13.4944526   20.6468122
| 40>     H       15.5770996   14.8336958   22.2480565
| 41>     H       14.7944368   16.8185494   22.7333970
| 42>     H       16.2570322   18.3707146   19.8984215
| 43> *
| 44> 
| 45>                          ****END OF INPUT****
================================================================================

                       ****************************
                       * Single Point Calculation *
                       ****************************

---------------------------------
CARTESIAN COORDINATES (ANGSTROEM)
---------------------------------
  C     15.386427   15.356352   13.190633
  C     14.619959   15.610982   14.501483
  O     15.274311   16.684082   15.202955
  C     16.280330   16.409480   16.085843
  O     16.688903   15.275605   16.277874
  C     16.814001   17.598788   16.836461
  C     16.776495   18.866016   16.343282
  C     16.023040   19.378065   15.130967
  N     17.522668   19.885720   16.940181
  C     18.492830   19.686706   17.884588
  S     19.414713   20.931306   18.464863
  N     18.675512   18.394932   18.307133
  C     17.820571   17.249241   17.941213
  C     17.190416   16.564874   19.147243
  C     17.379525   15.189327   19.371873
  C     16.800583   14.561043   20.487274
  C     16.027371   15.315265   21.386536
  C     15.836040   16.685944   21.164074
  O     15.087000   17.415741   22.028792
  C     16.413243   17.308305   20.052574
  H     15.439679   16.270630   12.586887
  H     14.885654   14.581214   12.597987
  H     16.408886   15.016849   13.399725
  H     13.593778   15.913352   14.256373
  H     14.567445   14.698453   15.111535
  H     14.942005   19.242013   15.260593
  H     16.327643   18.837915   14.225867
  H     16.194210   20.444641   14.941009
  H     17.414845   20.836424   16.625075
  H     19.381356   18.277807   19.023100
  H     18.566378   16.592856   17.469641
  H     17.964739   14.602659   18.667677
  H     16.947877   13.494453   20.646812
  H     15.577100   14.833696   22.248057
  H     14.794437   16.818549   22.733397
  H     16.257032   18.370715   19.898421

----------------------------
CARTESIAN COORDINATES (A.U.)
----------------------------
  NO LB      ZA    FRAG     MASS         X           Y           Z
   0 C     6.0000    0    12.011   29.076133   29.019300   24.926684
   1 C     6.0000    0    12.011   27.627718   29.500482   27.403831
   2 O     8.0000    0    15.999   28.864264   31.528345   28.729422
   3 C     6.0000    0    12.011   30.765366   31.009423   30.397837
   4 O     8.0000    0    15.999   31.537456   28.866709   30.760725
   5 C     6.0000    0    12.011   31.773857   33.256889   31.816300
   6 C     6.0000    0    12.011   31.702982   35.651604   30.884327
   7 C     6.0000    0    12.011   30.279157   36.619235   28.593384
   8 N     7.0000    0    14.007   33.113044   37.578565   32.012303
   9 C     6.0000    0    12.011   34.946384   37.202483   33.796974
  10 S    16.0000    0    32.060   36.688491   39.554436   34.893534
  11 N     7.0000    0    14.007   35.291604   34.761383   34.595468
  12 C     6.0000    0    12.011   33.675999   32.596341   33.903979
  13 C     6.0000    0    12.011   32.485179   31.303075   36.183046
  14 C     6.0000    0    12.011   32.842543   28.703669   36.607535
  15 C     6.0000    0    12.011   31.748500   27.516383   38.715337
  16 C     6.0000    0    12.011   30.287342   28.941656   40.414695
  17 C     6.0000    0    12.011   29.925778   31.531865   39.994303
  18 O     8.0000    0    15.999   28.510299   32.910981   41.628384
  19 C     6.0000    0    12.011   31.016534   32.707956   37.893873
  20 H     1.0000    0     1.008   29.176765   30.747034   23.785770
  21 H     1.0000    0     1.008   28.129808   27.554502   23.806745
  22 H     1.0000    0     1.008   31.008300   28.377733   25.321811
  23 H     1.0000    0     1.008   25.688517   30.071878   26.940641
  24 H     1.0000    0     1.008   27.528481   27.776052   28.556662
  25 H     1.0000    0     1.008   28.236298   36.362135   28.838341
  26 H     1.0000    0     1.008   30.854773   35.598499   26.882993
  27 H     1.0000    0     1.008   30.602621   38.634773   28.234415
  28 H     1.0000    0     1.008   32.909288   39.375136   31.416838
  29 H     1.0000    0     1.008   36.625454   34.540049   35.948450
  30 H     1.0000    0     1.008   35.085369   31.355954   33.012837
  31 H     1.0000    0     1.008   33.948437   27.595026   35.276798
  32 H     1.0000    0     1.008   32.026846   25.500820   39.016821
  33 H     1.0000    0     1.008   29.436452   28.031623   42.042734
  34 H     1.0000    0     1.008   27.957434   31.782452   42.959894
  35 H     1.0000    0     1.008   30.721339   34.715619   37.602567

--------------------------------
INTERNAL COORDINATES (ANGSTROEM)
--------------------------------
 C      0   0   0     0.000000000000     0.00000000     0.00000000
 C      1   0   0     1.539687349964     0.00000000     0.00000000
 O      2   1   0     1.439368718014   108.17385423     0.00000000
 C      3   2   1     1.366371869794   119.98588807   270.38448741
 O      4   3   2     1.220442708185   122.33513852     2.57340829
 C      4   3   2     1.504222274808   115.13506936   184.56422281
 C      6   4   3     1.360331006875   123.08212281   332.62826721
 C      7   6   4     1.516441910782   128.17656823    11.42999688
 N      7   6   4     1.397446911192   120.67537345   193.39691171
 C      9   7   6     1.368475504220   124.55489101    11.30991860
 S     10   9   7     1.653970024796   121.85892590   175.31405280
 N     10   9   7     1.371349116454   116.36384511   356.41868931
 C     12  10   9     1.475611796820   125.29420978   352.79981406
 C     13  12  10     1.523142115495   113.09176472   239.10647009
 C     14  13  12     1.406538080304   120.67995655   236.06119133
 C     15  14  13     1.405003313648   120.57779926   179.80649612
 C     16  15  14     1.405481630098   119.64760231   359.91855455
 C     17  16  15     1.401734180573   119.88684385     0.15778124
 O     18  17  16     1.356982714373   120.00698546   179.82364457
 C     18  17  16     1.398544609456   120.32763195   359.86547366
 H      1   2   3     1.096926855038   110.78853235   303.16557631
 H      1   2   3     1.096741199900   110.46534441   183.16713495
 H      1   2   3     1.097453452634   110.65514576    63.56520120
 H      2   1   3     1.097521388052   108.71578731   118.44212284
 H      2   1   3     1.098922358151   111.04431897   237.05344296
 H      8   7   6     1.097245847635   110.68340106    61.62739307
 H      8   7   6     1.097155843706   110.81330958   301.76387886
 H      8   7   6     1.096799354420   112.90954893   181.73598140
 H      9   7   6     1.007351328696   119.86075164   186.20353038
 H     12  10   9     1.012196428701   114.82462697   181.54650577
 H     13  12  10     1.099749012620   100.18481788   121.37690935
 H     15  14  13     1.087449816282   119.77125932   358.76424949
 H     16  15  14     1.088468277356   119.91980439   179.55464172
 H     17  16  15     1.084837035167   119.88372043   179.89008118
 H     19  18  17     0.968865083308   107.37437082     1.22084775
 H     20  18  17     1.084840916900   119.29510109   180.20329141

---------------------------
INTERNAL COORDINATES (A.U.)
---------------------------
 C      0   0   0     0.000000000000     0.00000000     0.00000000
 C      1   0   0     2.909587423296     0.00000000     0.00000000
 O      2   1   0     2.720012682779   108.17385423     0.00000000
 C      3   2   1     2.582068631005   119.98588807   270.38448741
 O      4   3   2     2.306302480610   122.33513852     2.57340829
 C      4   3   2     2.842568143931   115.13506936   184.56422281
 C      6   4   3     2.570653054474   123.08212281   332.62826721
 C      7   6   4     2.865659909378   128.17656823    11.42999688
 N      7   6   4     2.640791948847   120.67537345   193.39691171
 C      9   7   6     2.586043923956   124.55489101    11.30991860
 S     10   9   7     3.125550380579   121.85892590   175.31405280
 N     10   9   7     2.591474264094   116.36384511   356.41868931
 C     12  10   9     2.788502175972   125.29420978   352.79981406
 C     13  12  10     2.878321461328   113.09176472   239.10647009
 C     14  13  12     2.657971768705   120.67995655   236.06119133
 C     15  14  13     2.655071480046   120.57779926   179.80649612
 C     16  15  14     2.655975367143   119.64760231   359.91855455
 C     17  16  15     2.648893713839   119.88684385     0.15778124
 O     18  17  16     2.564325698630   120.00698546   179.82364457
 C     18  17  16     2.642866297943   120.32763195   359.86547366
 H      1   2   3     2.072891344966   110.78853235   303.16557631
 H      1   2   3     2.072540507600   110.46534441   183.16713495
 H      1   2   3     2.073886470204   110.65514576    63.56520120
 H      2   1   3     2.074014849539   108.71578731   118.44212284
 H      2   1   3     2.076662299348   111.04431897   237.05344296
 H      8   7   6     2.073494153613   110.68340106    61.62739307
 H      8   7   6     2.073324070835   110.81330958   301.76387886
 H      8   7   6     2.072650403715   112.90954893   181.73598140
 H      9   7   6     1.903618131877   119.86075164   186.20353038
 H     12  10   9     1.912774043978   114.82462697   181.54650577
 H     13  12  10     2.078224449903   100.18481788   121.37690935
 H     15  14  13     2.054982337156   119.77125932   358.76424949
 H     16  15  14     2.056906949664   119.91980439   179.55464172
 H     17  16  15     2.050044896400   119.88372043   179.89008118
 H     19  18  17     1.830889668171   107.37437082     1.22084775
 H     20  18  17     2.050052231814   119.29510109   180.20329141

---------------------
BASIS SET INFORMATION
---------------------
There are 5 groups of distinct atoms

 Group   1 Type C   : 18s5p2d1f contracted to 4s3p2d1f pattern {8811/311/11/1}
 Group   2 Type O   : 18s5p2d1f contracted to 4s3p2d1f pattern {8811/311/11/1}
 Group   3 Type N   : 18s5p2d1f contracted to 4s3p2d1f pattern {8811/311/11/1}
 Group   4 Type S   : 41s16p2d1f contracted to 5s4p2d1f pattern {13131311/7711/11/1}
 Group   5 Type H   : 5s2p1d contracted to 3s2p1d pattern {311/11/1}

Atom   0C    basis set group =>   1
Atom   1C    basis set group =>   1
Atom   2O    basis set group =>   2
Atom   3C    basis set group =>   1
Atom   4O    basis set group =>   2
Atom   5C    basis set group =>   1
Atom   6C    basis set group =>   1
Atom   7C    basis set group =>   1
Atom   8N    basis set group =>   3
Atom   9C    basis set group =>   1
Atom  10S    basis set group =>   4
Atom  11N    basis set group =>   3
Atom  12C    basis set group =>   1
Atom  13C    basis set group =>   1
Atom  14C    basis set group =>   1
Atom  15C    basis set group =>   1
Atom  16C    basis set group =>   1
Atom  17C    basis set group =>   1
Atom  18O    basis set group =>   2
Atom  19C    basis set group =>   1
Atom  20H    basis set group =>   5
Atom  21H    basis set group =>   5
Atom  22H    basis set group =>   5
Atom  23H    basis set group =>   5
Atom  24H    basis set group =>   5
Atom  25H    basis set group =>   5
Atom  26H    basis set group =>   5
Atom  27H    basis set group =>   5
Atom  28H    basis set group =>   5
Atom  29H    basis set group =>   5
Atom  30H    basis set group =>   5
Atom  31H    basis set group =>   5
Atom  32H    basis set group =>   5
Atom  33H    basis set group =>   5
Atom  34H    basis set group =>   5
Atom  35H    basis set group =>   5
---------------------------------
AUXILIARY/C BASIS SET INFORMATION
---------------------------------
There are 5 groups of distinct atoms

 Group   1 Type C   : 8s6p5d3f1g contracted to 8s6p5d3f1g pattern {11111111/111111/11111/111/1}
 Group   2 Type O   : 8s6p5d3f1g contracted to 8s6p5d3f1g pattern {11111111/111111/11111/111/1}
 Group   3 Type N   : 8s6p5d3f1g contracted to 8s6p5d3f1g pattern {11111111/111111/11111/111/1}
 Group   4 Type S   : 10s8p7d5f2g contracted to 10s8p7d5f2g pattern {1111111111/11111111/1111111/11111/11}
 Group   5 Type H   : 4s3p2d1f contracted to 4s3p2d1f pattern {1111/111/11/1}

Atom   0C    basis set group =>   1
Atom   1C    basis set group =>   1
Atom   2O    basis set group =>   2
Atom   3C    basis set group =>   1
Atom   4O    basis set group =>   2
Atom   5C    basis set group =>   1
Atom   6C    basis set group =>   1
Atom   7C    basis set group =>   1
Atom   8N    basis set group =>   3
Atom   9C    basis set group =>   1
Atom  10S    basis set group =>   4
Atom  11N    basis set group =>   3
Atom  12C    basis set group =>   1
Atom  13C    basis set group =>   1
Atom  14C    basis set group =>   1
Atom  15C    basis set group =>   1
Atom  16C    basis set group =>   1
Atom  17C    basis set group =>   1
Atom  18O    basis set group =>   2
Atom  19C    basis set group =>   1
Atom  20H    basis set group =>   5
Atom  21H    basis set group =>   5
Atom  22H    basis set group =>   5
Atom  23H    basis set group =>   5
Atom  24H    basis set group =>   5
Atom  25H    basis set group =>   5
Atom  26H    basis set group =>   5
Atom  27H    basis set group =>   5
Atom  28H    basis set group =>   5
Atom  29H    basis set group =>   5
Atom  30H    basis set group =>   5
Atom  31H    basis set group =>   5
Atom  32H    basis set group =>   5
Atom  33H    basis set group =>   5
Atom  34H    basis set group =>   5
Atom  35H    basis set group =>   5
------------------------------------------------------------------------------
                           ORCA GTO INTEGRAL CALCULATION
------------------------------------------------------------------------------

                         BASIS SET STATISTICS AND STARTUP INFO

 # of primitive gaussian shells          ...  682
 # of primitive gaussian functions       ... 1312
 # of contracted shells                  ...  298
 # of contracted basis functions         ...  828
 Highest angular momentum                ...    3
 Maximum contraction depth               ...   13
 Integral package used                   ... LIBINT
 Integral threshhold            Thresh   ...  2.500e-11
 Primitive cut-off              TCut     ...  2.500e-12


------------------------------ INTEGRAL EVALUATION ----------------------------


 * One electron integrals 
 Pre-screening matrix                    ... done
 Shell pair data                         ... done (   0.012 sec)

-------------------------------------------------------------------------------
                                 ORCA SCF
-------------------------------------------------------------------------------

------------
SCF SETTINGS
------------
Hamiltonian:
 Ab initio Hamiltonian  Method          .... Hartree-Fock(GTOs)


General Settings:
 Integral files         IntName         .... CONFS/Conf218.orca
 Hartree-Fock type      HFTyp           .... RHF
 Total Charge           Charge          ....    0
 Multiplicity           Mult            ....    1
 Number of Electrons    NEL             ....  154
 Basis Dimension        Dim             ....  828
 Nuclear Repulsion      ENuc            ....   1670.9614967466 Eh

Convergence Acceleration:
 DIIS                   CNVDIIS         .... on
   Start iteration      DIISMaxIt       ....    12
   Startup error        DIISStart       ....  0.200000
   # of expansion vecs  DIISMaxEq       ....     5
   Bias factor          DIISBfac        ....   1.050
   Max. coefficient     DIISMaxC        ....  10.000
 Newton-Raphson         CNVNR           .... off
 SOSCF                  CNVSOSCF        .... on
   Start iteration      SOSCFMaxIt      ....   150
   Startup grad/error   SOSCFStart      ....  0.003300
 Level Shifting         CNVShift        .... on
   Level shift para.    LevelShift      ....    0.2500
   Turn off err/grad.   ShiftErr        ....    0.0010
 Zerner damping         CNVZerner       .... off
 Static damping         CNVDamp         .... on
   Fraction old density DampFac         ....    0.7000
   Max. Damping (<1)    DampMax         ....    0.9800
   Min. Damping (>=0)   DampMin         ....    0.0000
   Turn off err/grad.   DampErr         ....    0.1000
 Fernandez-Rico         CNVRico         .... off

SCF Procedure:
 Maximum # iterations   MaxIter         ....   125
 SCF integral mode      SCFMode         .... Direct
   Integral package                     .... LIBINT
 Reset frequency        DirectResetFreq ....    20
 Integral Threshold     Thresh          ....  2.500e-11 Eh
 Primitive CutOff       TCut            ....  2.500e-12 Eh

Convergence Tolerance:
 Convergence Check Mode ConvCheckMode   .... Total+1el-Energy
 Convergence forced     ConvForced      .... 1
 Energy Change          TolE            ....  1.000e-08 Eh
 1-El. energy change                    ....  1.000e-05 Eh
 Orbital Gradient       TolG            ....  1.000e-05
 Orbital Rotation angle TolX            ....  1.000e-05
 DIIS Error             TolErr          ....  5.000e-07


Diagonalization of the overlap matrix:
Smallest eigenvalue                        ... 3.548e-05
Time for diagonalization                   ...    0.298 sec
Threshold for overlap eigenvalues          ... 1.000e-08
Number of eigenvalues below threshold      ... 0
Time for construction of square roots      ...    0.295 sec
Total time needed                          ...    0.594 sec

-------------------
DFT GRID GENERATION
-------------------

General Integration Accuracy     IntAcc      ...  4.340
Radial Grid Type                 RadialGrid  ... Gauss-Chebyshev
Angular Grid (max. acc.)         AngularGrid ... Lebedev-110
Angular grid pruning method      GridPruning ... 3 (G Style)
Weight generation scheme         WeightScheme... Becke
Basis function cutoff            BFCut       ...    1.0000e-11
Integration weight cutoff        WCut        ...    1.0000e-14
Grids for H and He will be reduced by one unit

# of grid points (after initial pruning)     ...  46246 (   0.0 sec)
# of grid points (after weights+screening)   ...  41442 (   0.3 sec)
nearest neighbour list constructed           ...    0.0 sec
Grid point re-assignment to atoms done       ...    0.0 sec
Grid point division into batches done        ...    0.0 sec
Reduced shell lists constructed in    0.8 sec

Total number of grid points                  ...    41442
Total number of batches                      ...      665
Average number of points per batch           ...       62
Average number of grid points per atom       ...     1151
Average number of shells per batch           ...   141.60 (47.52%)
Average number of basis functions per batch  ...   360.02 (43.48%)
Average number of large shells per batch     ...    90.66 (64.02%)
Average number of large basis fcns per batch ...   234.55 (65.15%)
Maximum spatial batch extension              ...  23.82, 21.13, 20.68 au
Average spatial batch extension              ...   3.76,  3.40,  3.32 au

Time for grid setup =    1.120 sec

------------------------------
INITIAL GUESS: MODEL POTENTIAL
------------------------------
Loading Hartree-Fock densities                     ... done
Calculating cut-offs                               ... done
Setting up the integral package                    ... done
Initializing the effective Hamiltonian             ... done
Starting the Coulomb interaction                   ... done (   2.7 sec)
Reading the grid                                   ... done
Mapping shells                                     ... done
Starting the XC term evaluation                    ... done (   1.0 sec)
Transforming the Hamiltonian                       ... done (   0.2 sec)
Diagonalizing the Hamiltonian                      ... done (   0.3 sec)
Back transforming the eigenvectors                 ... done (   0.1 sec)
Now organizing SCF variables                       ... done
                      ------------------
                      INITIAL GUESS DONE (   5.7 sec)
                      ------------------
--------------
SCF ITERATIONS
--------------
ITER       Energy         Delta-E        Max-DP      RMS-DP      [F,P]     Damp
               ***  Starting incremental Fock matrix formation  ***
  0  -1270.0151925429   0.000000000000 0.04931241  0.00042322  0.3090188 0.7000
  1  -1270.2830709446  -0.267878401676 0.03608080  0.00033892  0.1795802 0.7000
                               ***Turning on DIIS***
  2  -1270.4501943918  -0.167123447194 0.02583947  0.00022948  0.1097397 0.7000
  3  -1272.5955025161  -2.145308124368 0.06315175  0.00050676  0.0829263 0.0000
  4  -1270.7583360224   1.837166493760 0.00683846  0.00009213  0.0070566 0.0000
  5  -1270.8214406476  -0.063104625211 0.00322254  0.00004852  0.0036727 0.0000
                      *** Initiating the SOSCF procedure ***
                           *** Shutting down DIIS ***
                      *** Re-Reading the Fockian *** 
                      *** Removing any level shift *** 
ITER      Energy       Delta-E        Grad      Rot      Max-DP    RMS-DP
  6  -1270.79883497   0.0226056771  0.001478  0.001478  0.001681  0.000025
               *** Restarting incremental Fock matrix formation ***
  7  -1270.81323490  -0.0143999279  0.000847  0.002149  0.001261  0.000014
  8  -1270.81327829  -0.0000433940  0.000388  0.002465  0.001373  0.000015
  9  -1270.81329431  -0.0000160174  0.000134  0.000265  0.000346  0.000004
 10  -1270.81329622  -0.0000019070  0.000040  0.000112  0.000106  0.000001
 11  -1270.81329640  -0.0000001836  0.000021  0.000112  0.000055  0.000001
 12  -1270.81329645  -0.0000000495  0.000009  0.000034  0.000026  0.000000
 13  -1270.81329645  -0.0000000016  0.000003  0.000009  0.000005  0.000000
                  ***Gradient check signals convergence***
              ***Rediagonalizing the Fockian in SOSCF/NRSCF***

               *****************************************************
               *                     SUCCESS                       *
               *           SCF CONVERGED AFTER  14 CYCLES          *
               *****************************************************


----------------
TOTAL SCF ENERGY
----------------

Total Energy       :        -1270.81329644 Eh          -34580.58784 eV

Components:
Nuclear Repulsion  :         1670.96149675 Eh           45469.17393 eV
Electronic Energy  :        -2941.77479319 Eh          -80049.76177 eV
One Electron Energy:        -5063.37833227 Eh         -137781.52910 eV
Two Electron Energy:         2121.60353908 Eh           57731.76732 eV

Virial components:
Potential Energy   :        -2539.75481892 Eh          -69110.24212 eV
Kinetic Energy     :         1268.94152248 Eh           34529.65428 eV
Virial Ratio       :            2.00147507


---------------
SCF CONVERGENCE
---------------

  Last Energy change         ...    9.0954e-09  Tolerance :   1.0000e-08
  Last MAX-Density change    ...    1.8255e-06  Tolerance :   1.0000e-07
  Last RMS-Density change    ...    2.8007e-08  Tolerance :   5.0000e-09
  Last Orbital Gradient      ...    1.0452e-06  Tolerance :   1.0000e-05
  Last Orbital Rotation      ...    3.1555e-06  Tolerance :   1.0000e-05

             **** THE GBW FILE WAS UPDATED (CONFS/Conf218.orca.gbw) ****
             **** DENSITY FILE WAS UPDATED (CONFS/Conf218.orca.scfp) ****
             **** ENERGY FILE WAS UPDATED (CONFS/Conf218.orca.en.tmp) ****
             **** THE GBW FILE WAS UPDATED (CONFS/Conf218.orca.gbw) ****
             **** DENSITY FILE WAS UPDATED (CONFS/Conf218.orca.scfp) ****
----------------
ORBITAL ENERGIES
----------------

  NO   OCC          E(Eh)            E(eV) 
   0   2.0000     -91.887755     -2500.3929 
   1   2.0000     -20.604980      -560.6900 
   2   2.0000     -20.590771      -560.3034 
   3   2.0000     -20.545024      -559.0585 
   4   2.0000     -15.628331      -425.2685 
   5   2.0000     -15.605413      -424.6449 
   6   2.0000     -11.397029      -310.1289 
   7   2.0000     -11.382232      -309.7263 
   8   2.0000     -11.338321      -308.5314 
   9   2.0000     -11.306748      -307.6722 
  10   2.0000     -11.303903      -307.5948 
  11   2.0000     -11.300457      -307.5011 
  12   2.0000     -11.261608      -306.4439 
  13   2.0000     -11.259070      -306.3749 
  14   2.0000     -11.254116      -306.2401 
  15   2.0000     -11.246847      -306.0423 
  16   2.0000     -11.237068      -305.7762 
  17   2.0000     -11.233213      -305.6713 
  18   2.0000     -11.229998      -305.5838 
  19   2.0000     -11.229973      -305.5831 
  20   2.0000      -8.892841      -241.9865 
  21   2.0000      -6.574420      -178.8990 
  22   2.0000      -6.572415      -178.8445 
  23   2.0000      -6.571829      -178.8285 
  24   2.0000      -1.454701       -39.5844 
  25   2.0000      -1.410515       -38.3821 
  26   2.0000      -1.357549       -36.9408 
  27   2.0000      -1.339743       -36.4563 
  28   2.0000      -1.236857       -33.6566 
  29   2.0000      -1.151558       -31.3355 
  30   2.0000      -1.120396       -30.4875 
  31   2.0000      -1.043051       -28.3829 
  32   2.0000      -1.035553       -28.1788 
  33   2.0000      -1.009034       -27.4572 
  34   2.0000      -0.998210       -27.1627 
  35   2.0000      -0.983276       -26.7563 
  36   2.0000      -0.920436       -25.0463 
  37   2.0000      -0.893541       -24.3145 
  38   2.0000      -0.847401       -23.0590 
  39   2.0000      -0.834294       -22.7023 
  40   2.0000      -0.827103       -22.5066 
  41   2.0000      -0.817005       -22.2318 
  42   2.0000      -0.757527       -20.6134 
  43   2.0000      -0.735490       -20.0137 
  44   2.0000      -0.725480       -19.7413 
  45   2.0000      -0.689887       -18.7728 
  46   2.0000      -0.685275       -18.6473 
  47   2.0000      -0.680321       -18.5125 
  48   2.0000      -0.671641       -18.2763 
  49   2.0000      -0.656856       -17.8739 
  50   2.0000      -0.648011       -17.6333 
  51   2.0000      -0.639501       -17.4017 
  52   2.0000      -0.629534       -17.1305 
  53   2.0000      -0.612822       -16.6757 
  54   2.0000      -0.602469       -16.3940 
  55   2.0000      -0.597352       -16.2548 
  56   2.0000      -0.593988       -16.1632 
  57   2.0000      -0.584237       -15.8979 
  58   2.0000      -0.572178       -15.5698 
  59   2.0000      -0.565571       -15.3900 
  60   2.0000      -0.560962       -15.2645 
  61   2.0000      -0.546991       -14.8844 
  62   2.0000      -0.535099       -14.5608 
  63   2.0000      -0.533209       -14.5094 
  64   2.0000      -0.514889       -14.0108 
  65   2.0000      -0.508849       -13.8465 
  66   2.0000      -0.499329       -13.5874 
  67   2.0000      -0.493463       -13.4278 
  68   2.0000      -0.480619       -13.0783 
  69   2.0000      -0.465878       -12.6772 
  70   2.0000      -0.455266       -12.3884 
  71   2.0000      -0.454495       -12.3674 
  72   2.0000      -0.353033        -9.6065 
  73   2.0000      -0.343714        -9.3529 
  74   2.0000      -0.326831        -8.8935 
  75   2.0000      -0.316893        -8.6231 
  76   2.0000      -0.313364        -8.5271 
  77   0.0000       0.077993         2.1223 
  78   0.0000       0.112739         3.0678 
  79   0.0000       0.121395         3.3033 
  80   0.0000       0.136539         3.7154 
  81   0.0000       0.140590         3.8257 
  82   0.0000       0.146353         3.9825 
  83   0.0000       0.154158         4.1949 
  84   0.0000       0.164113         4.4657 
  85   0.0000       0.164954         4.4886 
  86   0.0000       0.169094         4.6013 
  87   0.0000       0.173348         4.7171 
  88   0.0000       0.191456         5.2098 
  89   0.0000       0.191935         5.2228 
  90   0.0000       0.206104         5.6084 
  91   0.0000       0.208842         5.6829 
  92   0.0000       0.212499         5.7824 
  93   0.0000       0.221433         6.0255 
  94   0.0000       0.224207         6.1010 
  95   0.0000       0.236175         6.4267 
  96   0.0000       0.244290         6.6475 
  97   0.0000       0.247393         6.7319 
  98   0.0000       0.253117         6.8877 
  99   0.0000       0.266493         7.2517 
 100   0.0000       0.298957         8.1350 
 101   0.0000       0.307247         8.3606 
 102   0.0000       0.314690         8.5632 
 103   0.0000       0.318302         8.6614 
 104   0.0000       0.325884         8.8677 
 105   0.0000       0.328796         8.9470 
 106   0.0000       0.349082         9.4990 
 107   0.0000       0.351805         9.5731 
 108   0.0000       0.354548         9.6477 
 109   0.0000       0.366242         9.9659 
 110   0.0000       0.373232        10.1561 
 111   0.0000       0.374923        10.2022 
 112   0.0000       0.385332        10.4854 
 113   0.0000       0.386423        10.5151 
 114   0.0000       0.398691        10.8489 
 115   0.0000       0.400774        10.9056 
 116   0.0000       0.418712        11.3937 
 117   0.0000       0.424019        11.5381 
 118   0.0000       0.431049        11.7294 
 119   0.0000       0.438499        11.9322 
 120   0.0000       0.446834        12.1590 
 121   0.0000       0.447030        12.1643 
 122   0.0000       0.454786        12.3754 
 123   0.0000       0.458598        12.4791 
 124   0.0000       0.463442        12.6109 
 125   0.0000       0.467790        12.7292 
 126   0.0000       0.479740        13.0544 
 127   0.0000       0.484717        13.1898 
 128   0.0000       0.491842        13.3837 
 129   0.0000       0.495583        13.4855 
 130   0.0000       0.498682        13.5698 
 131   0.0000       0.504197        13.7199 
 132   0.0000       0.518043        14.0967 
 133   0.0000       0.519647        14.1403 
 134   0.0000       0.524790        14.2803 
 135   0.0000       0.527744        14.3606 
 136   0.0000       0.537928        14.6378 
 137   0.0000       0.540163        14.6986 
 138   0.0000       0.543600        14.7921 
 139   0.0000       0.546715        14.8769 
 140   0.0000       0.556231        15.1358 
 141   0.0000       0.563943        15.3457 
 142   0.0000       0.571642        15.5552 
 143   0.0000       0.575700        15.6656 
 144   0.0000       0.576679        15.6922 
 145   0.0000       0.580501        15.7962 
 146   0.0000       0.585671        15.9369 
 147   0.0000       0.590351        16.0643 
 148   0.0000       0.594509        16.1774 
 149   0.0000       0.596246        16.2247 
 150   0.0000       0.602414        16.3925 
 151   0.0000       0.608284        16.5522 
 152   0.0000       0.608985        16.5713 
 153   0.0000       0.609527        16.5861 
 154   0.0000       0.618175        16.8214 
 155   0.0000       0.625334        17.0162 
 156   0.0000       0.625728        17.0269 
 157   0.0000       0.629794        17.1376 
 158   0.0000       0.636277        17.3140 
 159   0.0000       0.638568        17.3763 
 160   0.0000       0.644294        17.5321 
 161   0.0000       0.647859        17.6292 
 162   0.0000       0.650021        17.6880 
 163   0.0000       0.659089        17.9347 
 164   0.0000       0.662780        18.0351 
 165   0.0000       0.670720        18.2512 
 166   0.0000       0.674167        18.3450 
 167   0.0000       0.682267        18.5654 
 168   0.0000       0.685733        18.6597 
 169   0.0000       0.694278        18.8923 
 170   0.0000       0.696038        18.9402 
 171   0.0000       0.702858        19.1257 
 172   0.0000       0.713017        19.4022 
 173   0.0000       0.715497        19.4697 
 174   0.0000       0.725319        19.7369 
 175   0.0000       0.729990        19.8640 
 176   0.0000       0.736052        20.0290 
 177   0.0000       0.738096        20.0846 
 178   0.0000       0.744720        20.2649 
 179   0.0000       0.753006        20.4903 
 180   0.0000       0.760226        20.6868 
 181   0.0000       0.762554        20.7501 
 182   0.0000       0.768373        20.9085 
 183   0.0000       0.784137        21.3375 
 184   0.0000       0.794605        21.6223 
 185   0.0000       0.808021        21.9874 
 186   0.0000       0.815278        22.1849 
 187   0.0000       0.823266        22.4022 
 188   0.0000       0.828984        22.5578 
 189   0.0000       0.834890        22.7185 
 190   0.0000       0.841797        22.9064 
 191   0.0000       0.848780        23.0965 
 192   0.0000       0.853046        23.2126 
 193   0.0000       0.860961        23.4279 
 194   0.0000       0.862981        23.4829 
 195   0.0000       0.870037        23.6749 
 196   0.0000       0.882537        24.0151 
 197   0.0000       0.892268        24.2798 
 198   0.0000       0.901456        24.5299 
 199   0.0000       0.906826        24.6760 
 200   0.0000       0.914396        24.8820 
 201   0.0000       0.915059        24.9000 
 202   0.0000       0.923402        25.1271 
 203   0.0000       0.932315        25.3696 
 204   0.0000       0.936116        25.4730 
 205   0.0000       0.942068        25.6350 
 206   0.0000       0.950620        25.8677 
 207   0.0000       0.959674        26.1141 
 208   0.0000       0.961012        26.1505 
 209   0.0000       0.973722        26.4963 
 210   0.0000       0.981110        26.6974 
 211   0.0000       0.990770        26.9602 
 212   0.0000       0.996790        27.1240 
 213   0.0000       1.005467        27.3601 
 214   0.0000       1.008451        27.4413 
 215   0.0000       1.012564        27.5533 
 216   0.0000       1.021001        27.7829 
 217   0.0000       1.028278        27.9809 
 218   0.0000       1.032164        28.0866 
 219   0.0000       1.044638        28.4260 
 220   0.0000       1.046426        28.4747 
 221   0.0000       1.055892        28.7323 
 222   0.0000       1.068348        29.0712 
 223   0.0000       1.078243        29.3405 
 224   0.0000       1.082786        29.4641 
 225   0.0000       1.087580        29.5945 
 226   0.0000       1.095169        29.8011 
 227   0.0000       1.109015        30.1778 
 228   0.0000       1.114288        30.3213 
 229   0.0000       1.116845        30.3909 
 230   0.0000       1.125616        30.6296 
 231   0.0000       1.133195        30.8358 
 232   0.0000       1.135551        30.8999 
 233   0.0000       1.147654        31.2292 
 234   0.0000       1.151492        31.3337 
 235   0.0000       1.156608        31.4729 
 236   0.0000       1.161152        31.5965 
 237   0.0000       1.173639        31.9363 
 238   0.0000       1.180484        32.1226 
 239   0.0000       1.189715        32.3738 
 240   0.0000       1.189836        32.3771 
 241   0.0000       1.196175        32.5496 
 242   0.0000       1.207581        32.8600 
 243   0.0000       1.208971        32.8978 
 244   0.0000       1.219373        33.1808 
 245   0.0000       1.224066        33.3085 
 246   0.0000       1.230036        33.4710 
 247   0.0000       1.239089        33.7173 
 248   0.0000       1.242835        33.8193 
 249   0.0000       1.250755        34.0348 
 250   0.0000       1.254252        34.1299 
 251   0.0000       1.261853        34.3368 
 252   0.0000       1.269136        34.5350 
 253   0.0000       1.281414        34.8690 
 254   0.0000       1.288832        35.0709 
 255   0.0000       1.298547        35.3353 
 256   0.0000       1.302118        35.4324 
 257   0.0000       1.311258        35.6812 
 258   0.0000       1.319757        35.9124 
 259   0.0000       1.330163        36.1956 
 260   0.0000       1.334149        36.3040 
 261   0.0000       1.344382        36.5825 
 262   0.0000       1.351773        36.7836 
 263   0.0000       1.359634        36.9975 
 264   0.0000       1.365863        37.1670 
 265   0.0000       1.371302        37.3150 
 266   0.0000       1.382373        37.6163 
 267   0.0000       1.390445        37.8359 
 268   0.0000       1.401483        38.1363 
 269   0.0000       1.406418        38.2706 
 270   0.0000       1.413772        38.4707 
 271   0.0000       1.417020        38.5591 
 272   0.0000       1.424299        38.7572 
 273   0.0000       1.430235        38.9187 
 274   0.0000       1.449327        39.4382 
 275   0.0000       1.454912        39.5902 
 276   0.0000       1.465920        39.8897 
 277   0.0000       1.470666        40.0189 
 278   0.0000       1.482706        40.3465 
 279   0.0000       1.490277        40.5525 
 280   0.0000       1.496305        40.7165 
 281   0.0000       1.500719        40.8367 
 282   0.0000       1.507017        41.0080 
 283   0.0000       1.509931        41.0873 
 284   0.0000       1.520919        41.3863 
 285   0.0000       1.531390        41.6712 
 286   0.0000       1.538960        41.8772 
 287   0.0000       1.539872        41.9020 
 288   0.0000       1.546335        42.0779 
 289   0.0000       1.551693        42.2237 
 290   0.0000       1.560621        42.4667 
 291   0.0000       1.562728        42.5240 
 292   0.0000       1.566144        42.6170 
 293   0.0000       1.575461        42.8705 
 294   0.0000       1.586166        43.1618 
 295   0.0000       1.589194        43.2442 
 296   0.0000       1.600551        43.5532 
 297   0.0000       1.612319        43.8734 
 298   0.0000       1.617262        44.0079 
 299   0.0000       1.626477        44.2587 
 300   0.0000       1.636053        44.5193 
 301   0.0000       1.637601        44.5614 
 302   0.0000       1.644650        44.7532 
 303   0.0000       1.654561        45.0229 
 304   0.0000       1.657426        45.1009 
 305   0.0000       1.667862        45.3848 
 306   0.0000       1.681901        45.7669 
 307   0.0000       1.685563        45.8665 
 308   0.0000       1.694360        46.1059 
 309   0.0000       1.703911        46.3658 
 310   0.0000       1.713726        46.6329 
 311   0.0000       1.717883        46.7460 
 312   0.0000       1.726146        46.9708 
 313   0.0000       1.747849        47.5614 
 314   0.0000       1.756338        47.7924 
 315   0.0000       1.770565        48.1795 
 316   0.0000       1.773209        48.2515 
 317   0.0000       1.779252        48.4159 
 318   0.0000       1.783589        48.5339 
 319   0.0000       1.790154        48.7126 
 320   0.0000       1.795972        48.8709 
 321   0.0000       1.816708        49.4351 
 322   0.0000       1.833924        49.9036 
 323   0.0000       1.841833        50.1188 
 324   0.0000       1.848020        50.2872 
 325   0.0000       1.878187        51.1081 
 326   0.0000       1.885982        51.3202 
 327   0.0000       1.901779        51.7500 
 328   0.0000       1.908201        51.9248 
 329   0.0000       1.911454        52.0133 
 330   0.0000       1.925213        52.3877 
 331   0.0000       1.934906        52.6515 
 332   0.0000       1.937383        52.7189 
 333   0.0000       1.952086        53.1190 
 334   0.0000       1.958996        53.3070 
 335   0.0000       1.972018        53.6613 
 336   0.0000       1.980548        53.8935 
 337   0.0000       2.002843        54.5001 
 338   0.0000       2.008597        54.6567 
 339   0.0000       2.019705        54.9590 
 340   0.0000       2.021963        55.0204 
 341   0.0000       2.033942        55.3464 
 342   0.0000       2.048442        55.7409 
 343   0.0000       2.057176        55.9786 
 344   0.0000       2.085145        56.7397 
 345   0.0000       2.107471        57.3472 
 346   0.0000       2.119224        57.6670 
 347   0.0000       2.133096        58.0445 
 348   0.0000       2.144235        58.3476 
 349   0.0000       2.159420        58.7608 
 350   0.0000       2.171795        59.0975 
 351   0.0000       2.200415        59.8763 
 352   0.0000       2.208333        60.0918 
 353   0.0000       2.214293        60.2540 
 354   0.0000       2.231796        60.7303 
 355   0.0000       2.257188        61.4212 
 356   0.0000       2.275021        61.9065 
 357   0.0000       2.284187        62.1559 
 358   0.0000       2.299764        62.5797 
 359   0.0000       2.309764        62.8519 
 360   0.0000       2.316438        63.0335 
 361   0.0000       2.323196        63.2174 
 362   0.0000       2.343122        63.7596 
 363   0.0000       2.347894        63.8895 
 364   0.0000       2.364927        64.3529 
 365   0.0000       2.377032        64.6823 
 366   0.0000       2.384533        64.8864 
 367   0.0000       2.399742        65.3003 
 368   0.0000       2.406635        65.4879 
 369   0.0000       2.418733        65.8171 
 370   0.0000       2.435141        66.2635 
 371   0.0000       2.448454        66.6258 
 372   0.0000       2.471104        67.2422 
 373   0.0000       2.474391        67.3316 
 374   0.0000       2.478483        67.4430 
 375   0.0000       2.489721        67.7488 
 376   0.0000       2.511677        68.3462 
 377   0.0000       2.517908        68.5158 
 378   0.0000       2.530485        68.8580 
 379   0.0000       2.539878        69.1136 
 380   0.0000       2.563099        69.7455 
 381   0.0000       2.568851        69.9020 
 382   0.0000       2.583548        70.3019 
 383   0.0000       2.601037        70.7778 
 384   0.0000       2.607444        70.9522 
 385   0.0000       2.615804        71.1796 
 386   0.0000       2.634187        71.6799 
 387   0.0000       2.645883        71.9981 
 388   0.0000       2.657334        72.3097 
 389   0.0000       2.663873        72.4877 
 390   0.0000       2.675158        72.7948 
 391   0.0000       2.683835        73.0309 
 392   0.0000       2.700092        73.4732 
 393   0.0000       2.708647        73.7060 
 394   0.0000       2.722754        74.0899 
 395   0.0000       2.735936        74.4486 
 396   0.0000       2.741730        74.6063 
 397   0.0000       2.746534        74.7370 
 398   0.0000       2.754980        74.9668 
 399   0.0000       2.757253        75.0287 
 400   0.0000       2.766511        75.2806 
 401   0.0000       2.778410        75.6044 
 402   0.0000       2.790155        75.9240 
 403   0.0000       2.799954        76.1906 
 404   0.0000       2.810530        76.4784 
 405   0.0000       2.818781        76.7029 
 406   0.0000       2.830309        77.0166 
 407   0.0000       2.843203        77.3675 
 408   0.0000       2.846306        77.4519 
 409   0.0000       2.853379        77.6444 
 410   0.0000       2.856809        77.7377 
 411   0.0000       2.874768        78.2264 
 412   0.0000       2.885402        78.5158 
 413   0.0000       2.899868        78.9094 
 414   0.0000       2.905678        79.0675 
 415   0.0000       2.916091        79.3509 
 416   0.0000       2.917047        79.3769 
 417   0.0000       2.944811        80.1324 
 418   0.0000       2.949604        80.2628 
 419   0.0000       2.958848        80.5143 
 420   0.0000       2.961462        80.5855 
 421   0.0000       2.965670        80.7000 
 422   0.0000       2.977782        81.0296 
 423   0.0000       2.981945        81.1429 
 424   0.0000       2.996539        81.5400 
 425   0.0000       3.002703        81.7077 
 426   0.0000       3.019558        82.1664 
 427   0.0000       3.029109        82.4262 
 428   0.0000       3.034892        82.5836 
 429   0.0000       3.037503        82.6547 
 430   0.0000       3.041543        82.7646 
 431   0.0000       3.049069        82.9694 
 432   0.0000       3.052927        83.0744 
 433   0.0000       3.067459        83.4698 
 434   0.0000       3.082117        83.8687 
 435   0.0000       3.084339        83.9291 
 436   0.0000       3.088779        84.0499 
 437   0.0000       3.097400        84.2845 
 438   0.0000       3.103873        84.4607 
 439   0.0000       3.108778        84.5941 
 440   0.0000       3.114922        84.7613 
 441   0.0000       3.119976        84.8989 
 442   0.0000       3.127778        85.1112 
 443   0.0000       3.129034        85.1453 
 444   0.0000       3.134919        85.3055 
 445   0.0000       3.148077        85.6635 
 446   0.0000       3.156899        85.9036 
 447   0.0000       3.160647        86.0056 
 448   0.0000       3.172418        86.3259 
 449   0.0000       3.179711        86.5243 
 450   0.0000       3.198004        87.0221 
 451   0.0000       3.202809        87.1529 
 452   0.0000       3.209545        87.3362 
 453   0.0000       3.214574        87.4730 
 454   0.0000       3.216591        87.5279 
 455   0.0000       3.223901        87.7268 
 456   0.0000       3.241523        88.2063 
 457   0.0000       3.246442        88.3402 
 458   0.0000       3.251873        88.4880 
 459   0.0000       3.261048        88.7376 
 460   0.0000       3.269697        88.9730 
 461   0.0000       3.270590        88.9973 
 462   0.0000       3.282317        89.3164 
 463   0.0000       3.292401        89.5908 
 464   0.0000       3.295669        89.6797 
 465   0.0000       3.305530        89.9480 
 466   0.0000       3.317158        90.2645 
 467   0.0000       3.318359        90.2971 
 468   0.0000       3.320893        90.3661 
 469   0.0000       3.327844        90.5552 
 470   0.0000       3.338515        90.8456 
 471   0.0000       3.344970        91.0213 
 472   0.0000       3.350558        91.1733 
 473   0.0000       3.356085        91.3237 
 474   0.0000       3.359435        91.4149 
 475   0.0000       3.367956        91.6467 
 476   0.0000       3.370824        91.7248 
 477   0.0000       3.376561        91.8809 
 478   0.0000       3.386934        92.1632 
 479   0.0000       3.392824        92.3234 
 480   0.0000       3.399305        92.4998 
 481   0.0000       3.401414        92.5572 
 482   0.0000       3.405589        92.6708 
 483   0.0000       3.408976        92.7630 
 484   0.0000       3.413693        92.8913 
 485   0.0000       3.415606        92.9434 
 486   0.0000       3.420404        93.0739 
 487   0.0000       3.428879        93.3045 
 488   0.0000       3.433797        93.4384 
 489   0.0000       3.438991        93.5797 
 490   0.0000       3.445623        93.7602 
 491   0.0000       3.448751        93.8453 
 492   0.0000       3.462162        94.2102 
 493   0.0000       3.462690        94.2246 
 494   0.0000       3.470561        94.4388 
 495   0.0000       3.473201        94.5106 
 496   0.0000       3.481252        94.7297 
 497   0.0000       3.484324        94.8133 
 498   0.0000       3.491160        94.9993 
 499   0.0000       3.505156        95.3801 
 500   0.0000       3.508747        95.4779 
 501   0.0000       3.519069        95.7587 
 502   0.0000       3.524187        95.8980 
 503   0.0000       3.534393        96.1757 
 504   0.0000       3.539028        96.3018 
 505   0.0000       3.542740        96.4029 
 506   0.0000       3.550681        96.6190 
 507   0.0000       3.558316        96.8267 
 508   0.0000       3.571325        97.1807 
 509   0.0000       3.579886        97.4137 
 510   0.0000       3.593453        97.7828 
 511   0.0000       3.603657        98.0605 
 512   0.0000       3.607872        98.1752 
 513   0.0000       3.610512        98.2470 
 514   0.0000       3.623351        98.5964 
 515   0.0000       3.627048        98.6970 
 516   0.0000       3.634185        98.8912 
 517   0.0000       3.636994        98.9676 
 518   0.0000       3.641544        99.0915 
 519   0.0000       3.643139        99.1349 
 520   0.0000       3.650750        99.3420 
 521   0.0000       3.660122        99.5970 
 522   0.0000       3.662855        99.6714 
 523   0.0000       3.666805        99.7788 
 524   0.0000       3.673415        99.9587 
 525   0.0000       3.674261        99.9817 
 526   0.0000       3.682322       100.2011 
 527   0.0000       3.687859       100.3517 
 528   0.0000       3.694025       100.5195 
 529   0.0000       3.696495       100.5867 
 530   0.0000       3.704279       100.7985 
 531   0.0000       3.722153       101.2849 
 532   0.0000       3.728199       101.4494 
 533   0.0000       3.730050       101.4998 
 534   0.0000       3.734661       101.6253 
 535   0.0000       3.745526       101.9209 
 536   0.0000       3.750727       102.0625 
 537   0.0000       3.756449       102.2182 
 538   0.0000       3.759195       102.2929 
 539   0.0000       3.773195       102.6739 
 540   0.0000       3.778370       102.8147 
 541   0.0000       3.783556       102.9558 
 542   0.0000       3.786674       103.0407 
 543   0.0000       3.791263       103.1655 
 544   0.0000       3.800787       103.4247 
 545   0.0000       3.807057       103.5953 
 546   0.0000       3.817858       103.8892 
 547   0.0000       3.830722       104.2393 
 548   0.0000       3.837032       104.4110 
 549   0.0000       3.841767       104.5398 
 550   0.0000       3.856661       104.9451 
 551   0.0000       3.862106       105.0932 
 552   0.0000       3.872021       105.3630 
 553   0.0000       3.878417       105.5371 
 554   0.0000       3.886796       105.7651 
 555   0.0000       3.897316       106.0514 
 556   0.0000       3.900719       106.1440 
 557   0.0000       3.907999       106.3421 
 558   0.0000       3.921167       106.7004 
 559   0.0000       3.928327       106.8952 
 560   0.0000       3.938517       107.1725 
 561   0.0000       3.941004       107.2402 
 562   0.0000       3.961585       107.8002 
 563   0.0000       3.968647       107.9924 
 564   0.0000       3.970655       108.0470 
 565   0.0000       3.983824       108.4054 
 566   0.0000       3.989989       108.5731 
 567   0.0000       3.997214       108.7697 
 568   0.0000       4.001142       108.8766 
 569   0.0000       4.021894       109.4413 
 570   0.0000       4.030109       109.6648 
 571   0.0000       4.032897       109.7407 
 572   0.0000       4.038261       109.8867 
 573   0.0000       4.050331       110.2151 
 574   0.0000       4.059170       110.4556 
 575   0.0000       4.073200       110.8374 
 576   0.0000       4.076967       110.9399 
 577   0.0000       4.084113       111.1344 
 578   0.0000       4.092395       111.3597 
 579   0.0000       4.096826       111.4803 
 580   0.0000       4.113886       111.9445 
 581   0.0000       4.117005       112.0294 
 582   0.0000       4.121778       112.1593 
 583   0.0000       4.128101       112.3313 
 584   0.0000       4.141609       112.6989 
 585   0.0000       4.143352       112.7464 
 586   0.0000       4.149352       112.9096 
 587   0.0000       4.153824       113.0313 
 588   0.0000       4.159570       113.1877 
 589   0.0000       4.168197       113.4224 
 590   0.0000       4.178765       113.7100 
 591   0.0000       4.180622       113.7605 
 592   0.0000       4.186904       113.9314 
 593   0.0000       4.196361       114.1888 
 594   0.0000       4.197829       114.2287 
 595   0.0000       4.212432       114.6261 
 596   0.0000       4.214449       114.6810 
 597   0.0000       4.228389       115.0603 
 598   0.0000       4.232646       115.1761 
 599   0.0000       4.237397       115.3054 
 600   0.0000       4.245846       115.5353 
 601   0.0000       4.253413       115.7412 
 602   0.0000       4.265211       116.0623 
 603   0.0000       4.274344       116.3108 
 604   0.0000       4.280626       116.4817 
 605   0.0000       4.284403       116.5845 
 606   0.0000       4.304632       117.1350 
 607   0.0000       4.312430       117.3472 
 608   0.0000       4.321129       117.5839 
 609   0.0000       4.333738       117.9270 
 610   0.0000       4.339200       118.0756 
 611   0.0000       4.345822       118.2558 
 612   0.0000       4.353449       118.4634 
 613   0.0000       4.357985       118.5868 
 614   0.0000       4.362155       118.7003 
 615   0.0000       4.366291       118.8128 
 616   0.0000       4.377328       119.1131 
 617   0.0000       4.380246       119.1926 
 618   0.0000       4.385008       119.3221 
 619   0.0000       4.398498       119.6892 
 620   0.0000       4.403007       119.8119 
 621   0.0000       4.417900       120.2172 
 622   0.0000       4.424592       120.3993 
 623   0.0000       4.432143       120.6048 
 624   0.0000       4.437519       120.7510 
 625   0.0000       4.446214       120.9876 
 626   0.0000       4.452439       121.1570 
 627   0.0000       4.458339       121.3176 
 628   0.0000       4.475729       121.7908 
 629   0.0000       4.477322       121.8341 
 630   0.0000       4.500950       122.4771 
 631   0.0000       4.507901       122.6662 
 632   0.0000       4.516023       122.8872 
 633   0.0000       4.520508       123.0093 
 634   0.0000       4.529988       123.2672 
 635   0.0000       4.545792       123.6973 
 636   0.0000       4.552227       123.8724 
 637   0.0000       4.556523       123.9893 
 638   0.0000       4.562781       124.1596 
 639   0.0000       4.575197       124.4974 
 640   0.0000       4.583406       124.7208 
 641   0.0000       4.590215       124.9061 
 642   0.0000       4.599447       125.1573 
 643   0.0000       4.610939       125.4700 
 644   0.0000       4.626533       125.8944 
 645   0.0000       4.633644       126.0878 
 646   0.0000       4.636934       126.1774 
 647   0.0000       4.639682       126.2522 
 648   0.0000       4.645583       126.4127 
 649   0.0000       4.653131       126.6181 
 650   0.0000       4.660252       126.8119 
 651   0.0000       4.668618       127.0396 
 652   0.0000       4.674951       127.2119 
 653   0.0000       4.680100       127.3520 
 654   0.0000       4.686736       127.5326 
 655   0.0000       4.696086       127.7870 
 656   0.0000       4.705883       128.0536 
 657   0.0000       4.715271       128.3091 
 658   0.0000       4.723961       128.5455 
 659   0.0000       4.732876       128.7881 
 660   0.0000       4.744856       129.1141 
 661   0.0000       4.748100       129.2024 
 662   0.0000       4.758486       129.4850 
 663   0.0000       4.781892       130.1219 
 664   0.0000       4.791796       130.3914 
 665   0.0000       4.816429       131.0617 
 666   0.0000       4.836264       131.6014 
 667   0.0000       4.855092       132.1138 
 668   0.0000       4.867483       132.4509 
 669   0.0000       4.889090       133.0389 
 670   0.0000       4.900882       133.3598 
 671   0.0000       4.908710       133.5728 
 672   0.0000       4.914015       133.7171 
 673   0.0000       4.941538       134.4661 
 674   0.0000       4.954295       134.8132 
 675   0.0000       4.986923       135.7011 
 676   0.0000       5.011998       136.3834 
 677   0.0000       5.018453       136.5591 
 678   0.0000       5.025697       136.7562 
 679   0.0000       5.033928       136.9802 
 680   0.0000       5.055678       137.5720 
 681   0.0000       5.066156       137.8571 
 682   0.0000       5.082130       138.2918 
 683   0.0000       5.091377       138.5434 
 684   0.0000       5.098359       138.7334 
 685   0.0000       5.103571       138.8752 
 686   0.0000       5.122715       139.3962 
 687   0.0000       5.144621       139.9923 
 688   0.0000       5.147202       140.0625 
 689   0.0000       5.155372       140.2848 
 690   0.0000       5.167578       140.6170 
 691   0.0000       5.174245       140.7984 
 692   0.0000       5.181667       141.0003 
 693   0.0000       5.186125       141.1216 
 694   0.0000       5.197598       141.4338 
 695   0.0000       5.214824       141.9026 
 696   0.0000       5.225273       142.1869 
 697   0.0000       5.237872       142.5297 
 698   0.0000       5.240837       142.6104 
 699   0.0000       5.251505       142.9007 
 700   0.0000       5.256071       143.0250 
 701   0.0000       5.275006       143.5402 
 702   0.0000       5.299516       144.2072 
 703   0.0000       5.316675       144.6741 
 704   0.0000       5.322146       144.8230 
 705   0.0000       5.330871       145.0604 
 706   0.0000       5.343608       145.4070 
 707   0.0000       5.348701       145.5455 
 708   0.0000       5.366054       146.0178 
 709   0.0000       5.390002       146.6694 
 710   0.0000       5.407631       147.1491 
 711   0.0000       5.416756       147.3974 
 712   0.0000       5.427215       147.6820 
 713   0.0000       5.458581       148.5355 
 714   0.0000       5.474858       148.9785 
 715   0.0000       5.488392       149.3467 
 716   0.0000       5.494052       149.5008 
 717   0.0000       5.512124       149.9925 
 718   0.0000       5.522341       150.2705 
 719   0.0000       5.525799       150.3646 
 720   0.0000       5.537986       150.6963 
 721   0.0000       5.547382       150.9519 
 722   0.0000       5.558417       151.2522 
 723   0.0000       5.571196       151.5999 
 724   0.0000       5.592053       152.1675 
 725   0.0000       5.602764       152.4589 
 726   0.0000       5.628651       153.1634 
 727   0.0000       5.630202       153.2056 
 728   0.0000       5.632329       153.2635 
 729   0.0000       5.636374       153.3735 
 730   0.0000       5.653025       153.8266 
 731   0.0000       5.660365       154.0264 
 732   0.0000       5.675131       154.4282 
 733   0.0000       5.679404       154.5444 
 734   0.0000       5.698309       155.0589 
 735   0.0000       5.705092       155.2435 
 736   0.0000       5.719018       155.6224 
 737   0.0000       5.726389       155.8230 
 738   0.0000       5.748696       156.4300 
 739   0.0000       5.757730       156.6758 
 740   0.0000       5.763583       156.8351 
 741   0.0000       5.781840       157.3319 
 742   0.0000       5.811133       158.1290 
 743   0.0000       5.822584       158.4406 
 744   0.0000       5.827529       158.5751 
 745   0.0000       5.852270       159.2484 
 746   0.0000       5.861136       159.4896 
 747   0.0000       5.876286       159.9019 
 748   0.0000       5.890867       160.2986 
 749   0.0000       5.932533       161.4324 
 750   0.0000       5.951713       161.9543 
 751   0.0000       5.965738       162.3360 
 752   0.0000       5.980234       162.7305 
 753   0.0000       5.990360       163.0060 
 754   0.0000       6.001714       163.3149 
 755   0.0000       6.024142       163.9252 
 756   0.0000       6.055629       164.7820 
 757   0.0000       6.060388       164.9115 
 758   0.0000       6.086040       165.6096 
 759   0.0000       6.090083       165.7196 
 760   0.0000       6.100847       166.0125 
 761   0.0000       6.167880       167.8366 
 762   0.0000       6.197731       168.6488 
 763   0.0000       6.222170       169.3139 
 764   0.0000       6.228034       169.4734 
 765   0.0000       6.261808       170.3925 
 766   0.0000       6.282951       170.9678 
 767   0.0000       6.328845       172.2166 
 768   0.0000       6.348892       172.7621 
 769   0.0000       6.355527       172.9427 
 770   0.0000       6.372564       173.4063 
 771   0.0000       6.383269       173.6976 
 772   0.0000       6.409791       174.4193 
 773   0.0000       6.459491       175.7717 
 774   0.0000       6.464454       175.9067 
 775   0.0000       6.484814       176.4608 
 776   0.0000       6.513769       177.2487 
 777   0.0000       6.523687       177.5185 
 778   0.0000       6.562543       178.5759 
 779   0.0000       6.593258       179.4117 
 780   0.0000       6.674563       181.6241 
 781   0.0000       6.680525       181.7863 
 782   0.0000       6.695407       182.1913 
 783   0.0000       6.740522       183.4189 
 784   0.0000       6.780433       184.5050 
 785   0.0000       6.891412       187.5249 
 786   0.0000       6.919904       188.3002 
 787   0.0000       6.925823       188.4612 
 788   0.0000       6.941056       188.8757 
 789   0.0000       7.040432       191.5799 
 790   0.0000       7.053075       191.9239 
 791   0.0000       7.065234       192.2548 
 792   0.0000       7.087211       192.8528 
 793   0.0000       7.109433       193.4575 
 794   0.0000       7.207627       196.1295 
 795   0.0000       7.261239       197.5883 
 796   0.0000       7.267794       197.7667 
 797   0.0000       7.286512       198.2761 
 798   0.0000       7.345231       199.8739 
 799   0.0000       7.362796       200.3519 
 800   0.0000       7.443895       202.5587 
 801   0.0000       7.490377       203.8235 
 802   0.0000       7.583400       206.3548 
 803   0.0000       7.592295       206.5969 
 804   0.0000       7.681567       209.0261 
 805   0.0000       7.820641       212.8105 
 806   0.0000       7.830243       213.0717 
 807   0.0000       7.938355       216.0136 
 808   0.0000       7.954599       216.4557 
 809   0.0000       9.340169       254.1589 
 810   0.0000       9.551489       259.9092 
 811   0.0000      10.775189       293.2078 
 812   0.0000      11.178254       304.1758 
 813   0.0000      11.924531       324.4830 
 814   0.0000      12.562737       341.8495 
 815   0.0000      12.921750       351.6187 
 816   0.0000      13.029964       354.5634 
 817   0.0000      13.070334       355.6619 
 818   0.0000      13.114734       356.8701 
 819   0.0000      13.388043       364.3072 
 820   0.0000      13.506703       367.5361 
 821   0.0000      13.758633       374.3914 
 822   0.0000      13.895553       378.1172 
 823   0.0000      13.923127       378.8675 
 824   0.0000      14.026822       381.6892 
 825   0.0000      14.475267       393.8920 
 826   0.0000      14.649267       398.6268 
 827   0.0000      15.948614       433.9838 

                    ********************************
                    * MULLIKEN POPULATION ANALYSIS *
                    ********************************

-----------------------
MULLIKEN ATOMIC CHARGES
-----------------------
   0 C :   -0.291386
   1 C :    0.027318
   2 O :   -0.342538
   3 C :    0.425141
   4 O :   -0.431722
   5 C :   -0.179484
   6 C :    0.168026
   7 C :   -0.282683
   8 N :   -0.128840
   9 C :    0.207497
  10 S :   -0.442952
  11 N :   -0.210532
  12 C :    0.040863
  13 C :    0.031109
  14 C :   -0.164559
  15 C :   -0.134255
  16 C :   -0.276608
  17 C :    0.314607
  18 O :   -0.359150
  19 C :   -0.250474
  20 H :    0.090639
  21 H :    0.099284
  22 H :    0.110907
  23 H :    0.108107
  24 H :    0.112280
  25 H :    0.131753
  26 H :    0.123603
  27 H :    0.102340
  28 H :    0.198820
  29 H :    0.199983
  30 H :    0.154805
  31 H :    0.158041
  32 H :    0.159435
  33 H :    0.127879
  34 H :    0.239792
  35 H :    0.162953
Sum of atomic charges:   -0.0000000

--------------------------------
MULLIKEN REDUCED ORBITAL CHARGES
--------------------------------
  0 C s       :     3.262433  s :     3.262433
      pz      :     0.937695  p :     2.952104
      px      :     1.005024
      py      :     1.009385
      dz2     :     0.013266  d :     0.072364
      dxz     :     0.013995
      dyz     :     0.018850
      dx2y2   :     0.014263
      dxy     :     0.011990
      f0      :     0.000625  f :     0.004486
      f+1     :     0.001083
      f-1     :     0.000402
      f+2     :     0.000970
      f-2     :     0.000674
      f+3     :     0.000247
      f-3     :     0.000484
  1 C s       :     3.170164  s :     3.170164
      pz      :     0.877972  p :     2.641877
      px      :     0.945035
      py      :     0.818870
      dz2     :     0.028086  d :     0.149176
      dxz     :     0.020312
      dyz     :     0.042065
      dx2y2   :     0.031626
      dxy     :     0.027087
      f0      :     0.001117  f :     0.011465
      f+1     :     0.001514
      f-1     :     0.002025
      f+2     :     0.002114
      f-2     :     0.001872
      f+3     :     0.001233
      f-3     :     0.001589
  2 O s       :     3.715189  s :     3.715189
      pz      :     1.534582  p :     4.591192
      px      :     1.468931
      py      :     1.587679
      dz2     :     0.005341  d :     0.033902
      dxz     :     0.006515
      dyz     :     0.007281
      dx2y2   :     0.007957
      dxy     :     0.006808
      f0      :     0.000301  f :     0.002255
      f+1     :     0.000470
      f-1     :     0.000141
      f+2     :     0.000467
      f-2     :     0.000491
      f+3     :     0.000220
      f-3     :     0.000164
  3 C s       :     3.090289  s :     3.090289
      pz      :     0.672970  p :     2.151949
      px      :     0.664883
      py      :     0.814096
      dz2     :     0.044182  d :     0.306102
      dxz     :     0.037035
      dyz     :     0.079678
      dx2y2   :     0.072865
      dxy     :     0.072343
      f0      :     0.002990  f :     0.026519
      f+1     :     0.003381
      f-1     :     0.002647
      f+2     :     0.004310
      f-2     :     0.003666
      f+3     :     0.004242
      f-3     :     0.005283
  4 O s       :     3.769346  s :     3.769346
      pz      :     1.627377  p :     4.624748
      px      :     1.597088
      py      :     1.400283
      dz2     :     0.004077  d :     0.035223
      dxz     :     0.000988
      dyz     :     0.009330
      dx2y2   :     0.009923
      dxy     :     0.010906
      f0      :     0.000250  f :     0.002405
      f+1     :     0.000076
      f-1     :     0.000369
      f+2     :     0.000296
      f-2     :     0.000180
      f+3     :     0.000674
      f-3     :     0.000561
  5 C s       :     3.183446  s :     3.183446
      pz      :     0.967200  p :     2.901135
      px      :     1.068490
      py      :     0.865445
      dz2     :     0.016644  d :     0.084687
      dxz     :     0.010736
      dyz     :     0.024749
      dx2y2   :     0.008177
      dxy     :     0.024381
      f0      :     0.000916  f :     0.010215
      f+1     :     0.001128
      f-1     :     0.001270
      f+2     :     0.002140
      f-2     :     0.001620
      f+3     :     0.001809
      f-3     :     0.001331
  6 C s       :     3.174939  s :     3.174939
      pz      :     0.831906  p :     2.465938
      px      :     0.829365
      py      :     0.804667
      dz2     :     0.030449  d :     0.176778
      dxz     :     0.019997
      dyz     :     0.047745
      dx2y2   :     0.026670
      dxy     :     0.051916
      f0      :     0.001329  f :     0.014319
      f+1     :     0.001384
      f-1     :     0.002677
      f+2     :     0.002273
      f-2     :     0.002315
      f+3     :     0.002357
      f-3     :     0.001984
  7 C s       :     3.276898  s :     3.276898
      pz      :     0.919008  p :     2.931911
      px      :     1.007816
      py      :     1.005087
      dz2     :     0.019453  d :     0.069197
      dxz     :     0.011712
      dyz     :     0.011682
      dx2y2   :     0.020157
      dxy     :     0.006193
      f0      :     0.000344  f :     0.004677
      f+1     :     0.001125
      f-1     :     0.001007
      f+2     :     0.000622
      f-2     :     0.000539
      f+3     :     0.000602
      f-3     :     0.000437
  8 N s       :     3.345817  s :     3.345817
      pz      :     1.335282  p :     3.718573
      px      :     1.310612
      py      :     1.072679
      dz2     :     0.009545  d :     0.059488
      dxz     :     0.010201
      dyz     :     0.012709
      dx2y2   :     0.015524
      dxy     :     0.011509
      f0      :     0.000582  f :     0.004962
      f+1     :     0.000986
      f-1     :     0.000361
      f+2     :     0.000942
      f-2     :     0.001023
      f+3     :     0.000498
      f-3     :     0.000569
  9 C s       :     3.159905  s :     3.159905
      pz      :     0.725204  p :     2.352662
      px      :     0.768592
      py      :     0.858865
      dz2     :     0.051688  d :     0.262347
      dxz     :     0.032373
      dyz     :     0.057200
      dx2y2   :     0.070000
      dxy     :     0.051086
      f0      :     0.002025  f :     0.017590
      f+1     :     0.002649
      f-1     :     0.002440
      f+2     :     0.003249
      f-2     :     0.001878
      f+3     :     0.002781
      f-3     :     0.002567
 10 S s       :     5.855202  s :     5.855202
      pz      :     3.642143  p :    10.492903
      px      :     3.485448
      py      :     3.365312
      dz2     :     0.010557  d :     0.084728
      dxz     :     0.007401
      dyz     :     0.021454
      dx2y2   :     0.011225
      dxy     :     0.034091
      f0      :     0.001174  f :     0.010119
      f+1     :     0.000661
      f-1     :     0.000986
      f+2     :     0.000865
      f-2     :     0.002300
      f+3     :     0.002494
      f-3     :     0.001638
 11 N s       :     3.381169  s :     3.381169
      pz      :     1.405119  p :     3.766726
      px      :     1.328869
      py      :     1.032739
      dz2     :     0.006413  d :     0.058205
      dxz     :     0.008426
      dyz     :     0.012462
      dx2y2   :     0.014875
      dxy     :     0.016030
      f0      :     0.000464  f :     0.004431
      f+1     :     0.000443
      f-1     :     0.000641
      f+2     :     0.000743
      f-2     :     0.000600
      f+3     :     0.000786
      f-3     :     0.000753
 12 C s       :     3.119791  s :     3.119791
      pz      :     0.883090  p :     2.643722
      px      :     0.897898
      py      :     0.862734
      dz2     :     0.036068  d :     0.184254
      dxz     :     0.035106
      dyz     :     0.037650
      dx2y2   :     0.027204
      dxy     :     0.048226
      f0      :     0.001337  f :     0.011370
      f+1     :     0.001675
      f-1     :     0.001471
      f+2     :     0.001422
      f-2     :     0.002439
      f+3     :     0.001500
      f-3     :     0.001525
 13 C s       :     3.101754  s :     3.101754
      pz      :     0.889104  p :     2.746391
      px      :     0.906898
      py      :     0.950389
      dz2     :     0.022333  d :     0.109512
      dxz     :     0.011667
      dyz     :     0.031242
      dx2y2   :     0.018217
      dxy     :     0.026054
      f0      :     0.001156  f :     0.011234
      f+1     :     0.001480
      f-1     :     0.001909
[...]
      f-1     :     0.006209
      f+2     :     0.007537
      f-2     :     0.004435
      f+3     :     0.006195
      f-3     :     0.005047
 15 C s       :     2.705695  s :     2.705695
      pz      :     0.951141  p :     2.797464
      px      :     0.879253
      py      :     0.967070
      dz2     :     0.115777  d :     0.414927
      dxz     :     0.072418
      dyz     :     0.088381
      dx2y2   :     0.089534
      dxy     :     0.048818
      f0      :     0.005642  f :     0.040949
      f+1     :     0.005828
      f-1     :     0.007672
      f+2     :     0.007484
      f-2     :     0.006252
      f+3     :     0.003602
      f-3     :     0.004470
 16 C s       :     2.702052  s :     2.702052
      pz      :     0.952545  p :     2.867558
      px      :     0.933262
      py      :     0.981751
      dz2     :     0.070707  d :     0.391062
      dxz     :     0.048160
      dyz     :     0.106425
      dx2y2   :     0.082342
      dxy     :     0.083429
      f0      :     0.004772  f :     0.040303
      f+1     :     0.004504
      f-1     :     0.006939
      f+2     :     0.006836
      f-2     :     0.004594
      f+3     :     0.007444
      f-3     :     0.005215
 17 C s       :     2.701621  s :     2.701621
      pz      :     0.883444  p :     2.684550
      px      :     0.818618
      py      :     0.982488
      dz2     :     0.151490  d :     0.706975
      dxz     :     0.100630
      dyz     :     0.183230
      dx2y2   :     0.129394
      dxy     :     0.142232
      f0      :     0.014301  f :     0.099136
      f+1     :     0.012049
      f-1     :     0.015757
      f+2     :     0.019707
      f-2     :     0.013730
      f+3     :     0.013153
      f-3     :     0.010439
 18 O s       :     3.177347  s :     3.177347
      pz      :     1.323722  p :     4.348909
      px      :     1.510410
      py      :     1.514777
      dz2     :     0.012568  d :     0.075590
      dxz     :     0.014523
      dyz     :     0.026170
      dx2y2   :     0.008929
      dxy     :     0.013400
      f0      :     0.000697  f :     0.005079
      f+1     :     0.000491
      f-1     :     0.000900
      f+2     :     0.000949
      f-2     :     0.001039
      f+3     :     0.000539
      f-3     :     0.000465
 19 C s       :     2.695577  s :     2.695577
      pz      :     0.957705  p :     2.844959
      px      :     0.920139
      py      :     0.967115
      dz2     :     0.102282  d :     0.388626
      dxz     :     0.069664
      dyz     :     0.085790
      dx2y2   :     0.080199
      dxy     :     0.050690
      f0      :     0.005465  f :     0.040838
      f+1     :     0.006583
      f-1     :     0.007513
      f+2     :     0.007112
      f-2     :     0.006522
      f+3     :     0.003530
      f-3     :     0.004113
 20 H s       :     0.852468  s :     0.852468
      pz      :     0.048883  p :     0.150955
      px      :     0.040086
      py      :     0.061986
      dz2     :     0.005595  d :     0.027553
      dxz     :     0.002939
      dyz     :     0.007498
      dx2y2   :     0.005028
      dxy     :     0.006492
 21 H s       :     0.847007  s :     0.847007
      pz      :     0.049338  p :     0.151284
      px      :     0.045742
      py      :     0.056203
      dz2     :     0.005487  d :     0.027418
      dxz     :     0.004081
      dyz     :     0.006113
      dx2y2   :     0.006795
      dxy     :     0.004942
 22 H s       :     0.845236  s :     0.845236
      pz      :     0.039392  p :     0.151751
      px      :     0.070091
      py      :     0.042268
      dz2     :     0.002644  d :     0.027487
      dxz     :     0.007878
      dyz     :     0.001389
      dx2y2   :     0.007521
      dxy     :     0.008055
 23 H s       :     0.855055  s :     0.855055
      pz      :     0.039021  p :     0.144495
      px      :     0.073126
      py      :     0.032347
      dz2     :     0.002820  d :     0.026919
      dxz     :     0.008232
      dyz     :     0.001594
      dx2y2   :     0.007842
      dxy     :     0.006430
 24 H s       :     0.850935  s :     0.850935
      pz      :     0.047756  p :     0.148173
      px      :     0.036892
      py      :     0.063526
      dz2     :     0.004590  d :     0.027020
      dxz     :     0.003151
      dyz     :     0.007598
      dx2y2   :     0.005525
      dxy     :     0.006157
 25 H s       :     0.829290  s :     0.829290
      pz      :     0.037804  p :     0.151667
      px      :     0.073793
      py      :     0.040070
      dz2     :     0.002524  d :     0.027779
      dxz     :     0.008737
      dyz     :     0.000201
      dx2y2   :     0.007602
      dxy     :     0.008716
 26 H s       :     0.831059  s :     0.831059
      pz      :     0.061689  p :     0.151772
      px      :     0.041785
      py      :     0.048298
      dz2     :     0.008579  d :     0.027802
      dxz     :     0.006585
      dyz     :     0.006769
      dx2y2   :     0.003629
      dxy     :     0.002240
 27 H s       :     0.843457  s :     0.843457
      pz      :     0.038011  p :     0.150157
      px      :     0.040618
      py      :     0.071528
      dz2     :     0.002525  d :     0.027739
      dxz     :     0.000496
      dyz     :     0.008971
      dx2y2   :     0.007273
      dxy     :     0.008474
 28 H s       :     0.742472  s :     0.742472
      pz      :     0.073428  p :     0.254442
      px      :     0.066641
      py      :     0.114373
      dz2     :     0.008084  d :     0.061936
      dxz     :     0.002078
      dyz     :     0.019014
      dx2y2   :     0.014372
      dxy     :     0.018388
 29 H s       :     0.747781  s :     0.747781
      pz      :     0.108312  p :     0.253836
      px      :     0.101283
      py      :     0.044241
      dz2     :     0.020041  d :     0.061361
      dxz     :     0.015088
      dyz     :     0.007866
      dx2y2   :     0.009882
      dxy     :     0.008484
 30 H s       :     0.826046  s :     0.826046
      pz      :     0.044830  p :     0.153425
      px      :     0.054397
      py      :     0.054198
      dz2     :     0.004334  d :     0.029239
      dxz     :     0.006041
      dyz     :     0.004898
      dx2y2   :     0.006763
      dxy     :     0.007203
 31 H s       :     0.840977  s :     0.840977
      pz      :     0.056758  p :     0.155793
      px      :     0.053936
      py      :     0.045099
      dz2     :     0.006351  d :     0.027468
      dxz     :     0.005640
      dyz     :     0.005933
      dx2y2   :     0.004814
      dxy     :     0.004730
 32 H s       :     0.843347  s :     0.843347
      pz      :     0.035812  p :     0.151370
      px      :     0.038551
      py      :     0.077007
      dz2     :     0.002898  d :     0.026487
      dxz     :     0.000352
      dyz     :     0.008139
      dx2y2   :     0.007494
      dxy     :     0.007604
 33 H s       :     0.849357  s :     0.849357
      pz      :     0.065526  p :     0.159107
      px      :     0.050942
      py      :     0.042639
      dz2     :     0.008087  d :     0.027767
      dxz     :     0.006398
      dyz     :     0.006829
      dx2y2   :     0.003300
      dxy     :     0.003153
 34 H s       :     0.707138  s :     0.707138
      pz      :     0.121068  p :     0.348184
      px      :     0.098024
      py      :     0.129092
      dz2     :     0.027154  d :     0.099653
      dxz     :     0.018064
      dyz     :     0.024710
      dx2y2   :     0.014128
      dxy     :     0.015596
 35 H s       :     0.839391  s :     0.839391
      pz      :     0.036741  p :     0.156612
      px      :     0.041611
      py      :     0.078259
      dz2     :     0.002887  d :     0.027918
      dxz     :     0.000417
      dyz     :     0.008549
      dx2y2   :     0.007645
      dxy     :     0.008419


                      *****************************
                      * MAYER POPULATION ANALYSIS *
                      *****************************

  NA   - Mulliken gross atomic population
  ZA   - Total nuclear charge
  QA   - Mulliken gross atomic charge
  VA   - Mayer's total valence
  BVA  - Mayer's bonded valence
  FA   - Mayer's free valence

  ATOM       NA         ZA         QA         VA         BVA        FA
  0 C      6.2914     6.0000    -0.2914     3.8762     3.8762    -0.0000
  1 C      5.9727     6.0000     0.0273     3.8518     3.8518     0.0000
  2 O      8.3425     8.0000    -0.3425     2.0736     2.0736     0.0000
  3 C      5.5749     6.0000     0.4251     4.2276     4.2276     0.0000
  4 O      8.4317     8.0000    -0.4317     2.0727     2.0727    -0.0000
  5 C      6.1795     6.0000    -0.1795     3.6610     3.6610     0.0000
  6 C      5.8320     6.0000     0.1680     3.8428     3.8428     0.0000
  7 C      6.2827     6.0000    -0.2827     3.8883     3.8883     0.0000
  8 N      7.1288     7.0000    -0.1288     3.2951     3.2951    -0.0000
  9 C      5.7925     6.0000     0.2075     4.1540     4.1540    -0.0000
 10 S     16.4430    16.0000    -0.4430     1.7537     1.7537    -0.0000
 11 N      7.2105     7.0000    -0.2105     3.2513     3.2513    -0.0000
 12 C      5.9591     6.0000     0.0409     3.9394     3.9394     0.0000
 13 C      5.9689     6.0000     0.0311     3.7725     3.7725     0.0000
 14 C      6.1646     6.0000    -0.1646     3.8647     3.8647    -0.0000
 15 C      6.1343     6.0000    -0.1343     3.8051     3.8051    -0.0000
 16 C      6.2766     6.0000    -0.2766     3.7969     3.7969     0.0000
 17 C      5.6854     6.0000     0.3146     3.8586     3.8586     0.0000
 18 O      8.3591     8.0000    -0.3591     2.1149     2.1149    -0.0000
 19 C      6.2505     6.0000    -0.2505     3.8470     3.8470     0.0000
 20 H      0.9094     1.0000     0.0906     0.9821     0.9821    -0.0000
 21 H      0.9007     1.0000     0.0993     0.9845     0.9845    -0.0000
 22 H      0.8891     1.0000     0.1109     0.9876     0.9876    -0.0000
 23 H      0.8919     1.0000     0.1081     0.9753     0.9753     0.0000
 24 H      0.8877     1.0000     0.1123     0.9883     0.9883     0.0000
 25 H      0.8682     1.0000     0.1318     0.9796     0.9796     0.0000
 26 H      0.8764     1.0000     0.1236     0.9803     0.9803     0.0000
 27 H      0.8977     1.0000     0.1023     0.9866     0.9866     0.0000
 28 H      0.8012     1.0000     0.1988     1.0221     1.0221    -0.0000
 29 H      0.8000     1.0000     0.2000     1.0147     1.0147     0.0000
 30 H      0.8452     1.0000     0.1548     0.9936     0.9936     0.0000
 31 H      0.8420     1.0000     0.1580     0.9905     0.9905    -0.0000
 32 H      0.8406     1.0000     0.1594     0.9773     0.9773    -0.0000
 33 H      0.8721     1.0000     0.1279     0.9923     0.9923     0.0000
 34 H      0.7602     1.0000     0.2398     1.0112     1.0112    -0.0000
 35 H      0.8370     1.0000     0.1630     0.9901     0.9901     0.0000

  Mayer bond orders larger than 0.100000
B(  0-C ,  1-C ) :   0.9630 B(  0-C , 20-H ) :   0.9784 B(  0-C , 21-H ) :   0.9765 
B(  0-C , 22-H ) :   0.9760 B(  1-C ,  2-O ) :   0.8943 B(  1-C , 23-H ) :   0.9846 
B(  1-C , 24-H ) :   0.9748 B(  2-O ,  3-C ) :   1.1589 B(  3-C ,  4-O ) :   1.9578 
B(  3-C ,  5-C ) :   1.0665 B(  5-C ,  6-C ) :   1.6515 B(  5-C , 12-C ) :   0.9504 
B(  6-C ,  7-C ) :   0.9533 B(  6-C ,  8-N ) :   1.1360 B(  7-C , 25-H ) :   0.9632 
B(  7-C , 26-H ) :   0.9658 B(  7-C , 27-H ) :   0.9913 B(  8-N ,  9-C ) :   1.1854 
B(  8-N , 28-H ) :   0.9468 B(  9-C , 10-S ) :   1.6073 B(  9-C , 11-N ) :   1.3068 
B( 11-N , 12-C ) :   0.9769 B( 11-N , 29-H ) :   0.9484 B( 12-C , 13-C ) :   0.9754 
B( 12-C , 30-H ) :   0.9978 B( 13-C , 14-C ) :   1.3747 B( 13-C , 19-C ) :   1.3677 
B( 14-C , 15-C ) :   1.3970 B( 14-C , 31-H ) :   0.9643 B( 15-C , 16-C ) :   1.3587 
B( 15-C , 32-H ) :   0.9713 B( 16-C , 17-C ) :   1.3334 B( 16-C , 33-H ) :   0.9861 
B( 17-C , 18-O ) :   1.1030 B( 17-C , 19-C ) :   1.3676 B( 18-O , 34-H ) :   0.9808 
B( 19-C , 35-H ) :   0.9601 

-------
TIMINGS
-------

Total SCF time: 0 days 1 hours 23 min 41 sec 

Total time                  ....    5021.615 sec
Sum of individual times     ....    5014.091 sec  ( 99.9%)

Fock matrix formation       ....    4989.375 sec  ( 99.4%)
Diagonalization             ....       4.441 sec  (  0.1%)
Density matrix formation    ....       0.188 sec  (  0.0%)
Population analysis         ....       0.663 sec  (  0.0%)
Initial guess               ....       4.586 sec  (  0.1%)
Orbital Transformation      ....       0.000 sec  (  0.0%)
Orbital Orthonormalization  ....       0.000 sec  (  0.0%)
DIIS solution               ....       7.177 sec  (  0.1%)
SOSCF solution              ....       6.541 sec  (  0.1%)

------------------------------------------------------------------------------
                                ORCA  MP2 
------------------------------------------------------------------------------

Freezing NCore=48 chemical core electrons

-------------
RI-MP2 ENERGY
-------------
Dimension of the basis                    ...  828
Memory devoted to MP2                     ...  256 MB   
Data format for buffers                   ... DOUBLE
Compression type for matrix containers    ... UNCOMPRESSED
Overall scaling of the MP2 energy         ...   1.000e+00
Calculating two index integrals           ... done (    0.032 sec)
Cholesky decomposition of V**-1           ... done (    1.631 sec)

-----------------
RI-TRANSFORMATION (AUX index driven)
-----------------

Dimension of the orbital-basis         ... 828
Dimension of the aux-basis             ... 2141
Transformation of internal/external MOs...   24-  76 to   77- 827
Number Format for Storage              ... Double (8 Byte)
Integral mode                          ... Direct

First Phase: integral generation and transformation of MO indices
  Aux angular momentum 0               ... done (    9.139 sec)
  Aux angular momentum 1               ... done (   15.271 sec)
  Aux angular momentum 2               ... done (   18.745 sec)
  Aux angular momentum 3               ... done (   14.676 sec)
  Aux angular momentum 4               ... done (    4.923 sec)
Closing buffer VIA ( 0.63 GB; CompressionRatio= 1.00)
  Phase 1 completed in    63.312 sec
Second Phase: sorting and transformation of aux index

IA-Transformation
Memory available                       ... 167 MB 
Max. # MO pairs treated in a batch     ... 12    
# of internal orbitals                 ... 53
# batches for internal orbitals        ... 5
Closing buffer IAV ( 0.63 GB; CompressionRatio= 1.00)
(ia|v) transformation done in    73.449 sec

  Phase 2 completed in    73.483 sec
RI-Integral transformation completed in   136.821 sec
Opening buffers                              ... done

Starting loop over batches of integrals:

Operator 0  - window                       ... ( 24- 76)x( 77-827)
Operator 0  - Memory available             ...   256 MB
Operator 0  - Memory needed per MO         ...  12.3 MB
Operator 0  - Number of orbitals per batch ... 13
Operator 0  - Number of batches            ... 5

OPERATOR  0   PASS   0:  MOs    24 ...   36
  Reading integrals       ... ok
  Internal MO  26
  Internal MO  29
  Internal MO  32
  Internal MO  35
OPERATOR  0   PASS   1:  MOs    37 ...   49
  Reading integrals       ... ok
  Internal MO  38
  Internal MO  41
  Internal MO  44
  Internal MO  47
OPERATOR  0   PASS   2:  MOs    50 ...   62
  Reading integrals       ... ok
  Internal MO  50
  Internal MO  53
  Internal MO  56
  Internal MO  59
  Internal MO  62
OPERATOR  0   PASS   3:  MOs    63 ...   75
  Reading integrals       ... ok
  Internal MO  65
  Internal MO  68
  Internal MO  71
  Internal MO  74
OPERATOR  0   PASS   4:  MOs    76 ...   76
  Reading integrals       ... ok
Time spent in pair loops =   456.894 sec
Deleting buffer (Ka|jb)[aa] ...done

-----------------------------------------------
 RI-MP2 CORRELATION ENERGY:     -3.529152911 Eh
-----------------------------------------------


-------
TIMINGS
-------

Total time                :  595.679 sec
Integral trafo            :  136.831 sec ( 23.0%)
I/O of integrals          :    7.506 sec (  1.3%)
K(i,j) Operators          :  382.258 sec ( 64.2%)
T(i,j) pair energies      :    3.492 sec (  0.6%)
V-calculation             :    0.032 sec (  0.0%)
V**(-1/2)                 :    1.631 sec (  0.3%)
Gamma(ia|P)               :    0.000 sec (  0.0%)
Gamma-Trafo               :    0.000 sec (  0.0%)
D(virtual)                :    0.000 sec (  0.0%)
D(internal)               :    0.000 sec (  0.0%)
W(virtual)                :    0.000 sec (  0.0%)
W(internal)               :    0.000 sec (  0.0%)
L(virtual)                :    0.000 sec (  0.0%)
L(internal)               :    0.000 sec (  0.0%)
G(D)                      :    0.000 sec (  0.0%)
G(Z)                      :    0.000 sec (  0.0%)
Z-Vector Solution         :    0.000 sec (  0.0%)
3-Index Derivative        :    0.000 sec (  0.0%)
2-Index Derivative        :    0.000 sec (  0.0%)
Separable Gradient        :    0.000 sec (  0.0%)


---------------------------------------
MP2 TOTAL ENERGY:    -1274.342449354 Eh
---------------------------------------

-------------------------   --------------------
FINAL SINGLE POINT ENERGY     -1274.342449353713
-------------------------   --------------------


                            ***************************************
                            *     ORCA property calculations      *
                            ***************************************


  WARNING: The energy has been calculated at the MP2 level but the densities
           used in the property calculations are still SCF densities
           MP2 response densities have not been calculated 
           use %mp2 Density relaxed end
           or  %mp2 Density unrelaxed end

                                    ---------------------
                                    Active property flags
                                    ---------------------
   (+) Dipole Moment


------------------------------------------------------------------------------
                       ORCA ELECTRIC PROPERTIES CALCULATION
------------------------------------------------------------------------------

Dipole Moment Calculation                       ... on
Quadrupole Moment Calculation                   ... off
Polarizability Calculation                      ... off
GBWName                                         ... CONFS/Conf218.orca.gbw
Electron density file                           ... CONFS/Conf218.orca.scfp
The origin for moment calculation is the CENTER OF MASS  = (31.856685, 32.966630 33.681032)

-------------
DIPOLE MOMENT
-------------
                                X             Y             Z
Electronic contribution:      8.33584       8.65928      13.51559
Nuclear contribution   :     -9.92788      -9.78061     -14.54277
                        -----------------------------------------
Total Dipole Moment    :     -1.59204      -1.12134      -1.02718
                        -----------------------------------------
Magnitude (a.u.)       :      2.20161
Magnitude (Debye)      :      5.59604



--------------------
Rotational spectrum 
--------------------
 
Rotational constants in cm-1:     0.010204     0.008598     0.005410 
Rotational constants in MHz :   305.908626   257.760656   162.190086 

 Dipole components along the rotational axes: 
x,y,z [a.u.] :    -1.507924     1.448873    -0.688486 
x,y,z [Debye]:    -3.832839     3.682742    -1.749991 

 

Timings for individual modules:

Sum of individual times         ...     5619.499 sec (=  93.658 min)
GTO integral calculation        ...        1.347 sec (=   0.022 min)   0.0 %
SCF iterations                  ...     5021.644 sec (=  83.694 min)  89.4 %
MP2 module                      ...      596.508 sec (=   9.942 min)  10.6 %
                             ****ORCA TERMINATED NORMALLY****
TOTAL RUN TIME: 0 days 1 hours 33 minutes 40 seconds 707 msec
