
                                 *****************
                                 * O   R   C   A *
                                 *****************

           --- An Ab Initio, DFT and Semiempirical electronic structure package ---

                  #######################################################
                  #                        -***-                        #
                  #          Department of theory and spectroscopy      #
                  #               Directorship: Frank Neese             #
                  #        Max Planck Institute fuer Kohlenforschung    #
                  #                Kaiser Wilhelm Platz 1               #
                  #                 D-45470 Muelheim/Ruhr               #
                  #                      Germany                        #
                  #                                                     #
                  #                  All rights reserved                #
                  #                        -***-                        #
                  #######################################################


                         Program Version 4.2.0 -  RELEASE  -


 With contributions from (in alphabetic order):
   Daniel Aravena         : Magnetic Suceptibility
   Michael Atanasov       : Ab Initio Ligand Field Theory (pilot matlab implementation)
   Alexander A. Auer      : GIAO ZORA, VPT2
   Ute Becker             : Parallelization
   Giovanni Bistoni       : ED, misc. LED, open-shell LED, HFLED
   Martin Brehm           : Molecular dynamics
   Dmytro Bykov           : SCF Hessian
   Vijay G. Chilkuri      : MRCI spin determinant printing, contributions to CSF-ICE
   Dipayan Datta          : RHF DLPNO-CCSD density
   Achintya Kumar Dutta   : EOM-CC, STEOM-CC
   Dmitry Ganyushin       : Spin-Orbit,Spin-Spin,Magnetic field MRCI
   Miquel Garcia          : C-PCM Hessian, Gaussian charge scheme
   Yang Guo               : DLPNO-NEVPT2, CIM, IAO-localization
   Andreas Hansen         : Spin unrestricted coupled pair/coupled cluster methods
   Benjamin Helmich-Paris : CASSCF linear response (MC-RPA)
   Lee Huntington         : MR-EOM, pCC
   Robert Izsak           : Overlap fitted RIJCOSX, COSX-SCS-MP3, EOM
   Christian Kollmar      : KDIIS, OOCD, Brueckner-CCSD(T), CCSD density
   Simone Kossmann        : Meta GGA functionals, TD-DFT gradient, OOMP2, MP2 Hessian
   Martin Krupicka        : AUTO-CI
   Lucas Lang             : DCDCAS
   Dagmar Lenk            : GEPOL surface, SMD
   Dimitrios Liakos       : Extrapolation schemes; Compound Job, initial MDCI parallelization
   Dimitrios Manganas     : Further ROCIS development; embedding schemes
   Dimitrios Pantazis     : SARC Basis sets
   Taras Petrenko         : DFT Hessian,TD-DFT gradient, ASA, ECA, R-Raman, ABS, FL, XAS/XES, NRVS
   Peter Pinski           : DLPNO-MP2, DLPNO-MP2 Gradient
   Christoph Reimann      : Effective Core Potentials
   Marius Retegan         : Local ZFS, SOC
   Christoph Riplinger    : Optimizer, TS searches, QM/MM, DLPNO-CCSD(T), (RO)-DLPNO pert. Triples
   Tobias Risthaus        : Range-separated hybrids, TD-DFT gradient, RPA, STAB
   Michael Roemelt        : Original ROCIS implementation
   Masaaki Saitow         : Open-shell DLPNO-CCSD energy and density
   Barbara Sandhoefer     : DKH picture change effects
   Avijit Sen             : IP-ROCIS
   Kantharuban Sivalingam : CASSCF convergence, NEVPT2, FIC-MRCI
   Bernardo de Souza      : ESD, SOC TD-DFT
   Georgi Stoychev        : AutoAux, RI-MP2 NMR
   Willem Van den Heuvel  : Paramagnetic NMR
   Boris Wezisla          : Elementary symmetry handling
   Frank Wennmohs         : Technical directorship


 We gratefully acknowledge several colleagues who have allowed us to
 interface, adapt or use parts of their codes:
   Stefan Grimme, W. Hujo, H. Kruse,             : VdW corrections, initial TS optimization,
                  C. Bannwarth                     DFT functionals, gCP, sTDA/sTD-DF
   Ed Valeev, F. Pavosevic, A. Kumar             : LibInt (2-el integral package), F12 methods
   Garnet Chan, S. Sharma, J. Yang, R. Olivares  : DMRG
   Ulf Ekstrom                                   : XCFun DFT Library
   Mihaly Kallay                                 : mrcc  (arbitrary order and MRCC methods)
   Andreas Klamt, Michael Diedenhofen            : otool_cosmo (COSMO solvation model)
   Jiri Pittner, Ondrej Demel                    : Mk-CCSD
   Frank Weinhold                                : gennbo (NPA and NBO analysis)
   Christopher J. Cramer and Donald G. Truhlar   : smd solvation model
   Lars Goerigk                                  : TD-DFT with DH, B97 family of functionals
   V. Asgeirsson, H. Jonsson                     : NEB implementation
   FAccTs GmbH                                   : IRC, NEB, NEB-TS, Multilevel, MM, QM/MM, CI optimization
   S Lehtola, MJT Oliveira, MAL Marques          : LibXC Library


 Your calculation uses the libint2 library for the computation of 2-el integrals
 For citations please refer to: http://libint.valeyev.net

 Your ORCA version has been built with support for libXC version: 4.2.3
 For citations please refer to: https://tddft.org/programs/libxc/

 This ORCA versions uses:
   CBLAS   interface :  Fast vector & matrix operations
   LAPACKE interface :  Fast linear algebra routines
   SCALAPACK package :  Parallel linear algebra routines


----- Orbital basis set information -----
Your calculation utilizes the basis: cc-pVTZ 
       H, B-Ne : Obtained from the ccRepo (grant-hill.group.shef.ac.uk/ccrepo) Feb. 2017
                 T. H. Dunning, Jr., J. Chem. Phys. 90, 1007 (1989)
            He : Obtained from the ccRepo (grant-hill.group.shef.ac.uk/ccrepo) Feb. 2017
                 D. E. Woon, T. H. Dunning, Jr., J. Chem. Phys. 100, 2975 (1994)
  Li-Be, Na-Mg : Obtained from the ccRepo (grant-hill.group.shef.ac.uk/ccrepo) Feb. 2017
                 B. P. Prascher, D. E. Woon, K. A. Peterson, T. H. Dunning, Jr., A. K. Wilson, Theor. Chem. Acc. 128, 69 (2011)
         Al-Ar : Obtained from the ccRepo (grant-hill.group.shef.ac.uk/ccrepo) Feb. 2017
                 D. E. Woon, T. H. Dunning, Jr., J. Chem. Phys. 98, 1358 (1993)
            Ca : Obtained from the Peterson Research Group Website (tyr0.chem.wsu.edu/~kipeters) Feb. 2017
                 J. Koput, K. A. Peterson, J. Phys. Chem. 106, 9595 (2002)
         Sc-Zn : Obtained from the ccRepo (grant-hill.group.shef.ac.uk/ccrepo) Feb. 2017
                 N. B. Balabanov, K. A. Peterson, J. Chem. Phys. 123, 064107 (2005)
                 N. B. Balabanov, K. A. Peterson, J. Chem. Phys. 125, 074110 (2006)
         Ga-Kr : Obtained from the ccRepo (grant-hill.group.shef.ac.uk/ccrepo) Feb. 2017
                 A. K. Wilson, D. E. Woon, K. A. Peterson, T. H. Dunning, Jr., J. Chem. Phys. 110, 7667 (1999)
             Y : Obtained from the ccRepo (grant-hill.group.shef.ac.uk/ccrepo) Feb. 2017
                 K. A. Peterson, D. Figgen, M. Dolg, H. Stoll, J. Chem. Phys. 126, 124101 (2007)
        Ag, Au : Obtained from the Peterson Research Group Website (tyr0.chem.wsu.edu/~kipeters) Feb. 2017
                 K. A. Peterson, C. Puzzarini, Theor. Chem. Acc. 114, 283 (2005)

----- AuxC basis set information -----
Your calculation utilizes the auxiliary basis: cc-pVTZ/C 
  Obtained from the EMSL Basis Set Exchange (bse.pnl.gov) Feb. 2017
  H-He, B-F, Al-Ar, Ga-Kr : F. Weigend, A. Kohn, C. Hattig, J. Chem. Phys. 116, 3175 (2002)
             Li-Be, Na-Mg : C. Haettig, Phys. Chem. Chem. Phys. 7, 59 (2005)
                       Ne : C. Haettig, Phys. Chem. Chem. Phys. 7, 59 (2005)
                            F. Weigend, A. Kohn, C. Hattig, J. Chem. Phys. 116, 3175 (2002)
                    Sc-Zn : J. G. Hill, J. A. Platts, J. Chem. Phys. 128, 044104 (2008)

================================================================================
                                        WARNINGS
                       Please study these warnings very carefully!
================================================================================


WARNING: No MP2 level density has been requested!
         To caclulate MP2 level properties use
         %mp2 Density relaxed end
         or
         %mp2 Density unrelaxed end

WARNING: Post HF methods need fully converged wavefunctions
  ===> : Setting SCFConvForced true
         You can overwrite this default with %scf ConvForced false 


INFO   : the flag for use of LIBINT has been found!

================================================================================
                                       INPUT FILE
================================================================================
NAME = CONFS/Conf597.orca
|  1> ! ri-mp2 cc-pvtz cc-pvtz/c TightSCF NoKeepInts
|  2> 
|  3> %scf
|  4>   MaxCore 4096
|  5> end
|  6> *xyz  0  1
|  7>     C       14.5053442   15.8883186   16.0760640
|  8>     C       15.1403284   15.7696500   14.6726405
|  9>     O       16.2810737   16.6406449   14.5333715
| 10>     C       17.2477551   16.6223829   15.4931030
| 11>     O       17.9842237   15.6614282   15.6292925
| 12>     C       17.1846728   17.7529228   16.4787798
| 13>     C       16.8337367   19.0129921   16.1135145
| 14>     C       16.2509762   19.4637024   14.7888915
| 15>     N       17.0433169   20.0897890   16.9784351
| 16>     C       17.7915269   20.0276501   18.1233347
| 17>     S       18.0868306   21.3680363   19.0459512
| 18>     N       18.3013784   18.7972478   18.4538620
| 19>     C       17.9848713   17.5300187   17.7663415
| 20>     C       17.3621746   16.4836666   18.6805177
| 21>     C       17.9140813   15.1936360   18.7746759
| 22>     C       17.3284251   14.2249672   19.6068129
| 23>     C       16.1809177   14.5492920   20.3507196
| 24>     C       15.6273307   15.8335004   20.2564702
| 25>     O       14.5143417   16.1469440   20.9663450
| 26>     C       16.2124008   16.7954407   19.4270309
| 27>     H       15.1698486   15.4828359   16.8499645
| 28>     H       13.5685570   15.3194303   16.1167472
| 29>     H       14.2772747   16.9333704   16.3193279
| 30>     H       15.4508355   14.7290565   14.5068028
| 31>     H       14.3951681   16.0240920   13.9080236
| 32>     H       15.2419326   19.0568807   14.6493388
| 33>     H       16.8722873   19.1204824   13.9518738
| 34>     H       16.1792582   20.5550552   14.7056425
| 35>     H       16.6969504   21.0043422   16.7361562
| 36>     H       18.8343159   18.7751375   19.3142111
| 37>     H       18.9908095   17.2202689   17.4470023
| 38>     H       18.7910592   14.9368961   18.1846733
| 39>     H       17.7610509   13.2278162   19.6666834
| 40>     H       15.7242538   13.8031903   20.9924847
| 41>     H       14.2878313   15.3747689   21.5062666
| 42>     H       15.7698606   17.7841457   19.3666475
| 43> *
| 44> 
| 45>                          ****END OF INPUT****
================================================================================

                       ****************************
                       * Single Point Calculation *
                       ****************************

---------------------------------
CARTESIAN COORDINATES (ANGSTROEM)
---------------------------------
  C     14.505344   15.888319   16.076064
  C     15.140328   15.769650   14.672640
  O     16.281074   16.640645   14.533371
  C     17.247755   16.622383   15.493103
  O     17.984224   15.661428   15.629292
  C     17.184673   17.752923   16.478780
  C     16.833737   19.012992   16.113515
  C     16.250976   19.463702   14.788892
  N     17.043317   20.089789   16.978435
  C     17.791527   20.027650   18.123335
  S     18.086831   21.368036   19.045951
  N     18.301378   18.797248   18.453862
  C     17.984871   17.530019   17.766341
  C     17.362175   16.483667   18.680518
  C     17.914081   15.193636   18.774676
  C     17.328425   14.224967   19.606813
  C     16.180918   14.549292   20.350720
  C     15.627331   15.833500   20.256470
  O     14.514342   16.146944   20.966345
  C     16.212401   16.795441   19.427031
  H     15.169849   15.482836   16.849964
  H     13.568557   15.319430   16.116747
  H     14.277275   16.933370   16.319328
  H     15.450835   14.729057   14.506803
  H     14.395168   16.024092   13.908024
  H     15.241933   19.056881   14.649339
  H     16.872287   19.120482   13.951874
  H     16.179258   20.555055   14.705642
  H     16.696950   21.004342   16.736156
  H     18.834316   18.775137   19.314211
  H     18.990810   17.220269   17.447002
  H     18.791059   14.936896   18.184673
  H     17.761051   13.227816   19.666683
  H     15.724254   13.803190   20.992485
  H     14.287831   15.374769   21.506267
  H     15.769861   17.784146   19.366647

----------------------------
CARTESIAN COORDINATES (A.U.)
----------------------------
  NO LB      ZA    FRAG     MASS         X           Y           Z
   0 C     6.0000    0    12.011   27.411128   30.024571   30.379358
   1 C     6.0000    0    12.011   28.611074   29.800320   27.727272
   2 O     8.0000    0    15.999   30.766770   31.446262   27.464092
   3 C     6.0000    0    12.011   32.593534   31.411751   29.277722
   4 O     8.0000    0    15.999   33.985258   29.595810   29.535082
   5 C     6.0000    0    12.011   32.474325   33.548162   31.140381
   6 C     6.0000    0    12.011   31.811152   35.929348   30.450129
   7 C     6.0000    0    12.011   30.709894   36.781067   27.946955
   8 N     7.0000    0    14.007   32.207201   37.964199   32.084593
   9 C     6.0000    0    12.011   33.621113   37.846774   34.248139
  10 S    16.0000    0    32.060   34.179156   40.379737   35.991632
  11 N     7.0000    0    14.007   34.584593   35.521650   34.872745
  12 C     6.0000    0    12.011   33.986481   33.126934   33.573520
  13 C     6.0000    0    12.011   32.809755   31.149616   35.301062
  14 C     6.0000    0    12.011   33.852708   28.711811   35.478996
  15 C     6.0000    0    12.011   32.745978   26.881292   37.051507
  16 C     6.0000    0    12.011   30.577503   27.494177   38.457287
  17 C     6.0000    0    12.011   29.531375   29.920979   38.279181
  18 O     8.0000    0    15.999   27.428131   30.513302   39.620650
  19 C     6.0000    0    12.011   30.636997   31.738783   36.711768
  20 H     1.0000    0     1.008   28.666859   29.258320   31.841818
  21 H     1.0000    0     1.008   25.640857   28.949528   30.456238
  22 H     1.0000    0     1.008   26.980139   31.999433   30.839060
  23 H     1.0000    0     1.008   29.197848   27.833883   27.413884
  24 H     1.0000    0     1.008   27.202925   30.281145   26.282356
  25 H     1.0000    0     1.008   28.803078   36.012285   27.683238
  26 H     1.0000    0     1.008   31.884002   36.132475   26.365221
  27 H     1.0000    0     1.008   30.574367   38.843425   27.789637
  28 H     1.0000    0     1.008   31.552664   39.692454   31.626752
  29 H     1.0000    0     1.008   35.591699   35.479868   36.498569
  30 H     1.0000    0     1.008   35.887429   32.541592   32.970056
  31 H     1.0000    0     1.008   35.509956   28.226643   34.364052
  32 H     1.0000    0     1.008   33.563522   24.996950   37.164646
  33 H     1.0000    0     1.008   29.714533   26.084249   39.670047
  34 H     1.0000    0     1.008   27.000088   29.054103   40.640954
  35 H     1.0000    0     1.008   29.800718   33.607165   36.597660

--------------------------------
INTERNAL COORDINATES (ANGSTROEM)
--------------------------------
 C      0   0   0     0.000000000000     0.00000000     0.00000000
 C      1   0   0     1.544954591963     0.00000000     0.00000000
 O      2   1   0     1.441987451284   111.49877185     0.00000000
 C      3   2   1     1.362310897645   119.02645530    49.80191200
 O      4   3   2     1.218346220969   121.21537807    69.61538272
 C      4   3   2     1.501219036691   115.00156501   258.85691398
 C      6   4   3     1.358068306997   122.20854159   322.76877661
 C      7   6   4     1.515709624900   127.61163733    10.51296897
 N      7   6   4     1.396962085522   120.65706461   193.09675547
 C      9   7   6     1.369114509847   124.38510786    11.27814731
 S     10   9   7     1.653801876422   121.82399324   175.59410197
 N     10   9   7     1.372256050430   116.43346129   356.58141701
 C     12  10   9     1.476052429339   125.30424330   352.78455979
 C     13  12  10     1.522603698279   113.45483696   239.60318925
 C     14  13  12     1.406287922535   120.67039829   233.51488522
 C     15  14  13     1.404907262228   120.56705862   180.75861067
 C     16  15  14     1.405473936882   119.65326542     0.00000000
 C     17  16  15     1.401617897503   119.88803641     0.11566805
 O     18  17  16     1.356802725593   120.03125893   179.55256987
 C     18  17  16     1.398429731900   120.32411780   359.89927626
 H      1   2   3     1.097681329676   111.30058819   291.72084070
 H      1   2   3     1.096749414736   110.17653518   172.67317122
 H      1   2   3     1.096962299515   111.10473075    53.07257973
 H      2   1   3     1.098522477755   109.03034340   121.03542342
 H      2   1   3     1.097562575813   109.63235779   238.88062301
 H      8   7   6     1.096880959069   110.76839448    67.06807225
 H      8   7   6     1.097463476156   110.84668517   307.29081092
 H      8   7   6     1.096870457982   112.78851847   187.49466736
 H      9   7   6     1.007509986719   119.94914505   186.06789970
 H     12  10   9     1.012280503686   114.82854439   181.20196421
 H     13  12  10     1.099924599905   100.42183085   121.37023309
 H     15  14  13     1.087707994522   119.77721729   359.62350948
 H     16  15  14     1.088604462786   119.89905853   179.61658712
 H     17  16  15     1.084929540516   119.87161951   179.84224129
 H     19  18  17     0.969059688830   107.40736699     3.02714554
 H     20  18  17     1.084908088566   119.28992118   179.98982347

---------------------------
INTERNAL COORDINATES (A.U.)
---------------------------
 C      0   0   0     0.000000000000     0.00000000     0.00000000
 C      1   0   0     2.919541068154     0.00000000     0.00000000
 O      2   1   0     2.724961371477   111.49877185     0.00000000
 C      3   2   1     2.574394505805   119.02645530    49.80191200
 O      4   3   2     2.302340693928   121.21537807    69.61538272
 C      4   3   2     2.836892846375   115.00156501   258.85691398
 C      6   4   3     2.566377171382   122.20854159   322.76877661
 C      7   6   4     2.864276089610   127.61163733    10.51296897
 N      7   6   4     2.639875761108   120.65706461   193.09675547
 C      9   7   6     2.587251469589   124.38510786    11.27814731
 S     10   9   7     3.125232626202   121.82399324   175.59410197
 N     10   9   7     2.593188120930   116.43346129   356.58141701
 C     12  10   9     2.789334850760   125.30424330   352.78455979
 C     13  12  10     2.877304000242   113.45483696   239.60318925
 C     14  13  12     2.657499039033   120.67039829   233.51488522
 C     15  14  13     2.654889969168   120.56705862   180.75861067
 C     16  15  14     2.655960829071   119.65326542     0.00000000
 C     17  16  15     2.648673970683   119.88803641     0.11566805
 O     18  17  16     2.563985569129   120.03125893   179.55256987
 C     18  17  16     2.642649210824   120.32411780   359.89927626
 H      1   2   3     2.074317095406   111.30058819   291.72084070
 H      1   2   3     2.072556031389   110.17653518   172.67317122
 H      1   2   3     2.072958325319   111.10473075    53.07257973
 H      2   1   3     2.075906634914   109.03034340   121.03542342
 H      2   1   3     2.074092683128   109.63235779   238.88062301
 H      8   7   6     2.072804614154   110.76839448    67.06807225
 H      8   7   6     2.073905411916   110.84668517   307.29081092
 H      8   7   6     2.072784769974   112.78851847   187.49466736
 H      9   7   6     1.903917952089   119.94914505   186.06789970
 H     12  10   9     1.912932922675   114.82854439   181.20196421
 H     13  12  10     2.078556261783   100.42183085   121.37023309
 H     15  14  13     2.055470223323   119.77721729   359.62350948
 H     16  15  14     2.057164302829   119.89905853   179.61658712
 H     17  16  15     2.050219706176   119.87161951   179.84224129
 H     19  18  17     1.831257419311   107.40736699     3.02714554
 H     20  18  17     2.050179167866   119.28992118   179.98982347

---------------------
BASIS SET INFORMATION
---------------------
There are 5 groups of distinct atoms

 Group   1 Type C   : 18s5p2d1f contracted to 4s3p2d1f pattern {8811/311/11/1}
 Group   2 Type O   : 18s5p2d1f contracted to 4s3p2d1f pattern {8811/311/11/1}
 Group   3 Type N   : 18s5p2d1f contracted to 4s3p2d1f pattern {8811/311/11/1}
 Group   4 Type S   : 41s16p2d1f contracted to 5s4p2d1f pattern {13131311/7711/11/1}
 Group   5 Type H   : 5s2p1d contracted to 3s2p1d pattern {311/11/1}

Atom   0C    basis set group =>   1
Atom   1C    basis set group =>   1
Atom   2O    basis set group =>   2
Atom   3C    basis set group =>   1
Atom   4O    basis set group =>   2
Atom   5C    basis set group =>   1
Atom   6C    basis set group =>   1
Atom   7C    basis set group =>   1
Atom   8N    basis set group =>   3
Atom   9C    basis set group =>   1
Atom  10S    basis set group =>   4
Atom  11N    basis set group =>   3
Atom  12C    basis set group =>   1
Atom  13C    basis set group =>   1
Atom  14C    basis set group =>   1
Atom  15C    basis set group =>   1
Atom  16C    basis set group =>   1
Atom  17C    basis set group =>   1
Atom  18O    basis set group =>   2
Atom  19C    basis set group =>   1
Atom  20H    basis set group =>   5
Atom  21H    basis set group =>   5
Atom  22H    basis set group =>   5
Atom  23H    basis set group =>   5
Atom  24H    basis set group =>   5
Atom  25H    basis set group =>   5
Atom  26H    basis set group =>   5
Atom  27H    basis set group =>   5
Atom  28H    basis set group =>   5
Atom  29H    basis set group =>   5
Atom  30H    basis set group =>   5
Atom  31H    basis set group =>   5
Atom  32H    basis set group =>   5
Atom  33H    basis set group =>   5
Atom  34H    basis set group =>   5
Atom  35H    basis set group =>   5
---------------------------------
AUXILIARY/C BASIS SET INFORMATION
---------------------------------
There are 5 groups of distinct atoms

 Group   1 Type C   : 8s6p5d3f1g contracted to 8s6p5d3f1g pattern {11111111/111111/11111/111/1}
 Group   2 Type O   : 8s6p5d3f1g contracted to 8s6p5d3f1g pattern {11111111/111111/11111/111/1}
 Group   3 Type N   : 8s6p5d3f1g contracted to 8s6p5d3f1g pattern {11111111/111111/11111/111/1}
 Group   4 Type S   : 10s8p7d5f2g contracted to 10s8p7d5f2g pattern {1111111111/11111111/1111111/11111/11}
 Group   5 Type H   : 4s3p2d1f contracted to 4s3p2d1f pattern {1111/111/11/1}

Atom   0C    basis set group =>   1
Atom   1C    basis set group =>   1
Atom   2O    basis set group =>   2
Atom   3C    basis set group =>   1
Atom   4O    basis set group =>   2
Atom   5C    basis set group =>   1
Atom   6C    basis set group =>   1
Atom   7C    basis set group =>   1
Atom   8N    basis set group =>   3
Atom   9C    basis set group =>   1
Atom  10S    basis set group =>   4
Atom  11N    basis set group =>   3
Atom  12C    basis set group =>   1
Atom  13C    basis set group =>   1
Atom  14C    basis set group =>   1
Atom  15C    basis set group =>   1
Atom  16C    basis set group =>   1
Atom  17C    basis set group =>   1
Atom  18O    basis set group =>   2
Atom  19C    basis set group =>   1
Atom  20H    basis set group =>   5
Atom  21H    basis set group =>   5
Atom  22H    basis set group =>   5
Atom  23H    basis set group =>   5
Atom  24H    basis set group =>   5
Atom  25H    basis set group =>   5
Atom  26H    basis set group =>   5
Atom  27H    basis set group =>   5
Atom  28H    basis set group =>   5
Atom  29H    basis set group =>   5
Atom  30H    basis set group =>   5
Atom  31H    basis set group =>   5
Atom  32H    basis set group =>   5
Atom  33H    basis set group =>   5
Atom  34H    basis set group =>   5
Atom  35H    basis set group =>   5
------------------------------------------------------------------------------
                           ORCA GTO INTEGRAL CALCULATION
------------------------------------------------------------------------------

                         BASIS SET STATISTICS AND STARTUP INFO

 # of primitive gaussian shells          ...  682
 # of primitive gaussian functions       ... 1312
 # of contracted shells                  ...  298
 # of contracted basis functions         ...  828
 Highest angular momentum                ...    3
 Maximum contraction depth               ...   13
 Integral package used                   ... LIBINT
 Integral threshhold            Thresh   ...  2.500e-11
 Primitive cut-off              TCut     ...  2.500e-12


------------------------------ INTEGRAL EVALUATION ----------------------------


 * One electron integrals 
 Pre-screening matrix                    ... done
 Shell pair data                         ... done (   0.017 sec)

-------------------------------------------------------------------------------
                                 ORCA SCF
-------------------------------------------------------------------------------

------------
SCF SETTINGS
------------
Hamiltonian:
 Ab initio Hamiltonian  Method          .... Hartree-Fock(GTOs)


General Settings:
 Integral files         IntName         .... CONFS/Conf597.orca
 Hartree-Fock type      HFTyp           .... RHF
 Total Charge           Charge          ....    0
 Multiplicity           Mult            ....    1
 Number of Electrons    NEL             ....  154
 Basis Dimension        Dim             ....  828
 Nuclear Repulsion      ENuc            ....   1714.9835495470 Eh

Convergence Acceleration:
 DIIS                   CNVDIIS         .... on
   Start iteration      DIISMaxIt       ....    12
   Startup error        DIISStart       ....  0.200000
   # of expansion vecs  DIISMaxEq       ....     5
   Bias factor          DIISBfac        ....   1.050
   Max. coefficient     DIISMaxC        ....  10.000
 Newton-Raphson         CNVNR           .... off
 SOSCF                  CNVSOSCF        .... on
   Start iteration      SOSCFMaxIt      ....   150
   Startup grad/error   SOSCFStart      ....  0.003300
 Level Shifting         CNVShift        .... on
   Level shift para.    LevelShift      ....    0.2500
   Turn off err/grad.   ShiftErr        ....    0.0010
 Zerner damping         CNVZerner       .... off
 Static damping         CNVDamp         .... on
   Fraction old density DampFac         ....    0.7000
   Max. Damping (<1)    DampMax         ....    0.9800
   Min. Damping (>=0)   DampMin         ....    0.0000
   Turn off err/grad.   DampErr         ....    0.1000
 Fernandez-Rico         CNVRico         .... off

SCF Procedure:
 Maximum # iterations   MaxIter         ....   125
 SCF integral mode      SCFMode         .... Direct
   Integral package                     .... LIBINT
 Reset frequency        DirectResetFreq ....    20
 Integral Threshold     Thresh          ....  2.500e-11 Eh
 Primitive CutOff       TCut            ....  2.500e-12 Eh

Convergence Tolerance:
 Convergence Check Mode ConvCheckMode   .... Total+1el-Energy
 Convergence forced     ConvForced      .... 1
 Energy Change          TolE            ....  1.000e-08 Eh
 1-El. energy change                    ....  1.000e-05 Eh
 Orbital Gradient       TolG            ....  1.000e-05
 Orbital Rotation angle TolX            ....  1.000e-05
 DIIS Error             TolErr          ....  5.000e-07


Diagonalization of the overlap matrix:
Smallest eigenvalue                        ... 3.414e-05
Time for diagonalization                   ...    0.281 sec
Threshold for overlap eigenvalues          ... 1.000e-08
Number of eigenvalues below threshold      ... 0
Time for construction of square roots      ...    0.247 sec
Total time needed                          ...    0.529 sec

-------------------
DFT GRID GENERATION
-------------------

General Integration Accuracy     IntAcc      ...  4.340
Radial Grid Type                 RadialGrid  ... Gauss-Chebyshev
Angular Grid (max. acc.)         AngularGrid ... Lebedev-110
Angular grid pruning method      GridPruning ... 3 (G Style)
Weight generation scheme         WeightScheme... Becke
Basis function cutoff            BFCut       ...    1.0000e-11
Integration weight cutoff        WCut        ...    1.0000e-14
Grids for H and He will be reduced by one unit

# of grid points (after initial pruning)     ...  46246 (   0.0 sec)
# of grid points (after weights+screening)   ...  41237 (   0.3 sec)
nearest neighbour list constructed           ...    0.0 sec
Grid point re-assignment to atoms done       ...    0.0 sec
Grid point division into batches done        ...    0.0 sec
Reduced shell lists constructed in    0.8 sec

Total number of grid points                  ...    41237
Total number of batches                      ...      664
Average number of points per batch           ...       62
Average number of grid points per atom       ...     1145
Average number of shells per batch           ...   151.89 (50.97%)
Average number of basis functions per batch  ...   386.62 (46.69%)
Average number of large shells per batch     ...    97.79 (64.38%)
Average number of large basis fcns per batch ...   250.26 (64.73%)
Maximum spatial batch extension              ...  21.48, 23.17, 20.22 au
Average spatial batch extension              ...   3.48,  3.36,  3.33 au

Time for grid setup =    1.089 sec

------------------------------
INITIAL GUESS: MODEL POTENTIAL
------------------------------
Loading Hartree-Fock densities                     ... done
Calculating cut-offs                               ... done
Setting up the integral package                    ... done
Initializing the effective Hamiltonian             ... done
Starting the Coulomb interaction                   ... done (   2.9 sec)
Reading the grid                                   ... done
Mapping shells                                     ... done
Starting the XC term evaluation                    ... done (   1.1 sec)
Transforming the Hamiltonian                       ... done (   0.2 sec)
Diagonalizing the Hamiltonian                      ... done (   0.3 sec)
Back transforming the eigenvectors                 ... done (   0.1 sec)
Now organizing SCF variables                       ... done
                      ------------------
                      INITIAL GUESS DONE (   5.9 sec)
                      ------------------
--------------
SCF ITERATIONS
--------------
ITER       Energy         Delta-E        Max-DP      RMS-DP      [F,P]     Damp
               ***  Starting incremental Fock matrix formation  ***
  0  -1270.0012325316   0.000000000000 0.04932665  0.00043205  0.2984886 0.7000
  1  -1270.2675325684  -0.266300036728 0.03608813  0.00034755  0.1718076 0.7000
                               ***Turning on DIIS***
  2  -1270.4337372451  -0.166204676766 0.02584225  0.00023336  0.1097167 0.7000
  3  -1272.5834775717  -2.149740326582 0.06314834  0.00051069  0.0828536 0.0000
  4  -1270.7401320750   1.843345496750 0.01245867  0.00010088  0.0070611 0.0000
  5  -1270.8005488363  -0.060416761373 0.00537174  0.00005338  0.0038824 0.0000
                      *** Initiating the SOSCF procedure ***
                           *** Shutting down DIIS ***
                      *** Re-Reading the Fockian *** 
                      *** Removing any level shift *** 
ITER      Energy       Delta-E        Grad      Rot      Max-DP    RMS-DP
  6  -1270.77999056   0.0205582726  0.001795  0.001795  0.002500  0.000027
               *** Restarting incremental Fock matrix formation ***
  7  -1270.79493942  -0.0149488613  0.000968  0.002476  0.001528  0.000017
  8  -1270.79498889  -0.0000494620  0.000457  0.003002  0.001895  0.000019
  9  -1270.79500818  -0.0000192947  0.000160  0.000312  0.000359  0.000005
 10  -1270.79501065  -0.0000024649  0.000052  0.000141  0.000123  0.000001
 11  -1270.79501089  -0.0000002429  0.000023  0.000137  0.000070  0.000001
 12  -1270.79501096  -0.0000000658  0.000008  0.000033  0.000027  0.000000
 13  -1270.79501096  -0.0000000056  0.000003  0.000007  0.000005  0.000000
                  ***Gradient check signals convergence***
              ***Rediagonalizing the Fockian in SOSCF/NRSCF***

               *****************************************************
               *                     SUCCESS                       *
               *           SCF CONVERGED AFTER  14 CYCLES          *
               *****************************************************


----------------
TOTAL SCF ENERGY
----------------

Total Energy       :        -1270.79501096 Eh          -34580.09027 eV

Components:
Nuclear Repulsion  :         1714.98354955 Eh           46667.07489 eV
Electronic Energy  :        -2985.77856051 Eh          -81247.16516 eV
One Electron Energy:        -5151.11816219 Eh         -140169.05125 eV
Two Electron Energy:         2165.33960168 Eh           58921.88609 eV

Virial components:
Potential Energy   :        -2539.80503809 Eh          -69111.60865 eV
Kinetic Energy     :         1269.01002713 Eh           34531.51839 eV
Virial Ratio       :            2.00140660


---------------
SCF CONVERGENCE
---------------

  Last Energy change         ...    1.4497e-09  Tolerance :   1.0000e-08
  Last MAX-Density change    ...    1.9349e-06  Tolerance :   1.0000e-07
  Last RMS-Density change    ...    3.3383e-08  Tolerance :   5.0000e-09
  Last Orbital Gradient      ...    1.0288e-06  Tolerance :   1.0000e-05
  Last Orbital Rotation      ...    2.6150e-06  Tolerance :   1.0000e-05

             **** THE GBW FILE WAS UPDATED (CONFS/Conf597.orca.gbw) ****
             **** DENSITY FILE WAS UPDATED (CONFS/Conf597.orca.scfp) ****
             **** ENERGY FILE WAS UPDATED (CONFS/Conf597.orca.en.tmp) ****
             **** THE GBW FILE WAS UPDATED (CONFS/Conf597.orca.gbw) ****
             **** DENSITY FILE WAS UPDATED (CONFS/Conf597.orca.scfp) ****
----------------
ORBITAL ENERGIES
----------------

  NO   OCC          E(Eh)            E(eV) 
   0   2.0000     -91.889677     -2500.4452 
   1   2.0000     -20.595348      -560.4279 
   2   2.0000     -20.585592      -560.1624 
   3   2.0000     -20.551308      -559.2295 
   4   2.0000     -15.630294      -425.3219 
   5   2.0000     -15.607391      -424.6987 
   6   2.0000     -11.393754      -310.0398 
   7   2.0000     -11.384437      -309.7863 
   8   2.0000     -11.338870      -308.5463 
   9   2.0000     -11.311615      -307.8047 
  10   2.0000     -11.305877      -307.6485 
  11   2.0000     -11.305042      -307.6258 
  12   2.0000     -11.260985      -306.4270 
  13   2.0000     -11.259856      -306.3963 
  14   2.0000     -11.258374      -306.3559 
  15   2.0000     -11.251703      -306.1744 
  16   2.0000     -11.241891      -305.9074 
  17   2.0000     -11.237626      -305.7913 
  18   2.0000     -11.234431      -305.7044 
  19   2.0000     -11.230741      -305.6040 
  20   2.0000      -8.894750      -242.0385 
  21   2.0000      -6.576324      -178.9509 
  22   2.0000      -6.574324      -178.8964 
  23   2.0000      -6.573732      -178.8804 
  24   2.0000      -1.449562       -39.4446 
  25   2.0000      -1.415143       -38.5080 
  26   2.0000      -1.356346       -36.9080 
  27   2.0000      -1.341403       -36.5014 
  28   2.0000      -1.238594       -33.7039 
  29   2.0000      -1.156065       -31.4581 
  30   2.0000      -1.122448       -30.5434 
  31   2.0000      -1.044359       -28.4184 
  32   2.0000      -1.032779       -28.1033 
  33   2.0000      -1.013571       -27.5807 
  34   2.0000      -1.002057       -27.2674 
  35   2.0000      -0.987235       -26.8640 
  36   2.0000      -0.923547       -25.1310 
  37   2.0000      -0.896410       -24.3926 
  38   2.0000      -0.849461       -23.1150 
  39   2.0000      -0.838172       -22.8078 
  40   2.0000      -0.831776       -22.6338 
  41   2.0000      -0.818650       -22.2766 
  42   2.0000      -0.749534       -20.3958 
  43   2.0000      -0.734843       -19.9961 
  44   2.0000      -0.728402       -19.8208 
  45   2.0000      -0.693267       -18.8647 
  46   2.0000      -0.686760       -18.6877 
  47   2.0000      -0.677831       -18.4447 
  48   2.0000      -0.671261       -18.2659 
  49   2.0000      -0.663010       -18.0414 
  50   2.0000      -0.652974       -17.7683 
  51   2.0000      -0.646930       -17.6039 
  52   2.0000      -0.635816       -17.3014 
  53   2.0000      -0.615334       -16.7441 
  54   2.0000      -0.604763       -16.4564 
  55   2.0000      -0.601540       -16.3687 
  56   2.0000      -0.599032       -16.3005 
  57   2.0000      -0.581213       -15.8156 
  58   2.0000      -0.575529       -15.6609 
  59   2.0000      -0.563332       -15.3291 
  60   2.0000      -0.556767       -15.1504 
  61   2.0000      -0.548996       -14.9389 
  62   2.0000      -0.543579       -14.7915 
  63   2.0000      -0.531073       -14.4512 
  64   2.0000      -0.519719       -14.1423 
  65   2.0000      -0.511622       -13.9219 
  66   2.0000      -0.498450       -13.5635 
  67   2.0000      -0.493295       -13.4232 
  68   2.0000      -0.481891       -13.1129 
  69   2.0000      -0.464566       -12.6415 
  70   2.0000      -0.457215       -12.4415 
  71   2.0000      -0.450808       -12.2671 
  72   2.0000      -0.354502        -9.6465 
  73   2.0000      -0.347676        -9.4607 
  74   2.0000      -0.328739        -8.9455 
  75   2.0000      -0.319209        -8.6861 
  76   2.0000      -0.318473        -8.6661 
  77   0.0000       0.072779         1.9804 
  78   0.0000       0.106956         2.9104 
  79   0.0000       0.118315         3.2195 
  80   0.0000       0.132820         3.6142 
  81   0.0000       0.138183         3.7601 
  82   0.0000       0.142922         3.8891 
  83   0.0000       0.152621         4.1530 
  84   0.0000       0.156688         4.2637 
  85   0.0000       0.161692         4.3999 
  86   0.0000       0.170600         4.6423 
  87   0.0000       0.171815         4.6753 
  88   0.0000       0.189396         5.1537 
  89   0.0000       0.197701         5.3797 
  90   0.0000       0.203706         5.5431 
  91   0.0000       0.205275         5.5858 
  92   0.0000       0.206889         5.6297 
  93   0.0000       0.216914         5.9025 
  94   0.0000       0.223789         6.0896 
  95   0.0000       0.235051         6.3961 
  96   0.0000       0.240353         6.5403 
  97   0.0000       0.246083         6.6963 
  98   0.0000       0.270353         7.3567 
  99   0.0000       0.282649         7.6913 
 100   0.0000       0.294619         8.0170 
 101   0.0000       0.309594         8.4245 
 102   0.0000       0.313500         8.5308 
 103   0.0000       0.320318         8.7163 
 104   0.0000       0.322456         8.7745 
 105   0.0000       0.328488         8.9386 
 106   0.0000       0.344916         9.3856 
 107   0.0000       0.348633         9.4868 
 108   0.0000       0.355487         9.6733 
 109   0.0000       0.363821         9.9001 
 110   0.0000       0.368752        10.0343 
 111   0.0000       0.377521        10.2729 
 112   0.0000       0.382759        10.4154 
 113   0.0000       0.387477        10.5438 
 114   0.0000       0.399143        10.8612 
 115   0.0000       0.409853        11.1527 
 116   0.0000       0.420719        11.4483 
 117   0.0000       0.426377        11.6023 
 118   0.0000       0.429530        11.6881 
 119   0.0000       0.436351        11.8737 
 120   0.0000       0.447475        12.1764 
 121   0.0000       0.451706        12.2915 
 122   0.0000       0.457565        12.4510 
 123   0.0000       0.459068        12.4919 
 124   0.0000       0.461861        12.5679 
 125   0.0000       0.475666        12.9435 
 126   0.0000       0.479399        13.0451 
 127   0.0000       0.484844        13.1933 
 128   0.0000       0.489885        13.3304 
 129   0.0000       0.493535        13.4298 
 130   0.0000       0.505566        13.7572 
 131   0.0000       0.510253        13.8847 
 132   0.0000       0.514910        14.0114 
 133   0.0000       0.520939        14.1755 
 134   0.0000       0.522665        14.2225 
 135   0.0000       0.530229        14.4283 
 136   0.0000       0.534525        14.5452 
 137   0.0000       0.538426        14.6513 
 138   0.0000       0.543812        14.7979 
 139   0.0000       0.549736        14.9591 
 140   0.0000       0.561000        15.2656 
 141   0.0000       0.566849        15.4247 
 142   0.0000       0.569223        15.4894 
 143   0.0000       0.572611        15.5815 
 144   0.0000       0.577072        15.7029 
 145   0.0000       0.584586        15.9074 
 146   0.0000       0.586352        15.9554 
 147   0.0000       0.589215        16.0333 
 148   0.0000       0.591634        16.0992 
 149   0.0000       0.596094        16.2205 
 150   0.0000       0.598228        16.2786 
 151   0.0000       0.603672        16.4268 
 152   0.0000       0.611756        16.6467 
 153   0.0000       0.618647        16.8342 
 154   0.0000       0.621573        16.9139 
 155   0.0000       0.623733        16.9726 
 156   0.0000       0.633055        17.2263 
 157   0.0000       0.635813        17.3014 
 158   0.0000       0.639912        17.4129 
 159   0.0000       0.643673        17.5152 
 160   0.0000       0.649068        17.6620 
 161   0.0000       0.652826        17.7643 
 162   0.0000       0.660702        17.9786 
 163   0.0000       0.664267        18.0756 
 164   0.0000       0.665656        18.1134 
 165   0.0000       0.674189        18.3456 
 166   0.0000       0.682203        18.5637 
 167   0.0000       0.684100        18.6153 
 168   0.0000       0.690843        18.7988 
 169   0.0000       0.695513        18.9259 
 170   0.0000       0.708471        19.2785 
 171   0.0000       0.713326        19.4106 
 172   0.0000       0.721289        19.6273 
 173   0.0000       0.725519        19.7424 
 174   0.0000       0.734485        19.9864 
 175   0.0000       0.735091        20.0028 
 176   0.0000       0.740459        20.1489 
 177   0.0000       0.747930        20.3522 
 178   0.0000       0.752586        20.4789 
 179   0.0000       0.758398        20.6371 
 180   0.0000       0.762437        20.7470 
 181   0.0000       0.771208        20.9856 
 182   0.0000       0.776282        21.1237 
 183   0.0000       0.787463        21.4280 
 184   0.0000       0.797797        21.7092 
 185   0.0000       0.812578        22.1114 
 186   0.0000       0.816753        22.2250 
 187   0.0000       0.826118        22.4798 
 188   0.0000       0.833336        22.6762 
 189   0.0000       0.835908        22.7462 
 190   0.0000       0.845457        23.0061 
 191   0.0000       0.848319        23.0839 
 192   0.0000       0.856532        23.3074 
 193   0.0000       0.867799        23.6140 
 194   0.0000       0.873310        23.7640 
 195   0.0000       0.879446        23.9309 
 196   0.0000       0.883384        24.0381 
 197   0.0000       0.889333        24.2000 
 198   0.0000       0.908159        24.7123 
 199   0.0000       0.912856        24.8401 
 200   0.0000       0.914926        24.8964 
 201   0.0000       0.925076        25.1726 
 202   0.0000       0.925638        25.1879 
 203   0.0000       0.933192        25.3935 
 204   0.0000       0.941663        25.6240 
 205   0.0000       0.949305        25.8319 
 206   0.0000       0.952521        25.9194 
 207   0.0000       0.964579        26.2475 
 208   0.0000       0.976086        26.5607 
 209   0.0000       0.982250        26.7284 
 210   0.0000       0.985368        26.8132 
 211   0.0000       0.995555        27.0904 
 212   0.0000       1.003798        27.3147 
 213   0.0000       1.012950        27.5638 
 214   0.0000       1.015480        27.6326 
 215   0.0000       1.023516        27.8513 
 216   0.0000       1.027346        27.9555 
 217   0.0000       1.035288        28.1716 
 218   0.0000       1.039305        28.2809 
 219   0.0000       1.042543        28.3690 
 220   0.0000       1.053100        28.6563 
 221   0.0000       1.065531        28.9946 
 222   0.0000       1.077519        29.3208 
 223   0.0000       1.084432        29.5089 
 224   0.0000       1.087858        29.6021 
 225   0.0000       1.092942        29.7405 
 226   0.0000       1.104809        30.0634 
 227   0.0000       1.107349        30.1325 
 228   0.0000       1.122249        30.5379 
 229   0.0000       1.125085        30.6151 
 230   0.0000       1.131783        30.7974 
 231   0.0000       1.137067        30.9412 
 232   0.0000       1.145346        31.1664 
 233   0.0000       1.151388        31.3309 
 234   0.0000       1.157518        31.4977 
 235   0.0000       1.170038        31.8384 
 236   0.0000       1.175297        31.9815 
 237   0.0000       1.177934        32.0532 
 238   0.0000       1.183609        32.2076 
 239   0.0000       1.184981        32.2450 
 240   0.0000       1.189778        32.3755 
 241   0.0000       1.201304        32.6891 
 242   0.0000       1.207102        32.8469 
 243   0.0000       1.210225        32.9319 
 244   0.0000       1.218331        33.1525 
 245   0.0000       1.222533        33.2668 
 246   0.0000       1.231477        33.5102 
 247   0.0000       1.241434        33.7811 
 248   0.0000       1.243931        33.8491 
 249   0.0000       1.264465        34.4078 
 250   0.0000       1.270521        34.5726 
 251   0.0000       1.276915        34.7466 
 252   0.0000       1.286021        34.9944 
 253   0.0000       1.290583        35.1185 
 254   0.0000       1.301382        35.4124 
 255   0.0000       1.309548        35.6346 
 256   0.0000       1.314895        35.7801 
 257   0.0000       1.329434        36.1757 
 258   0.0000       1.332131        36.2491 
 259   0.0000       1.340799        36.4850 
 260   0.0000       1.348754        36.7015 
 261   0.0000       1.353703        36.8361 
 262   0.0000       1.364423        37.1278 
 263   0.0000       1.365115        37.1467 
 264   0.0000       1.375748        37.4360 
 265   0.0000       1.379008        37.5247 
 266   0.0000       1.391319        37.8597 
 267   0.0000       1.394592        37.9488 
 268   0.0000       1.402518        38.1645 
 269   0.0000       1.418626        38.6028 
 270   0.0000       1.423835        38.7445 
 271   0.0000       1.432333        38.9758 
 272   0.0000       1.444559        39.3084 
 273   0.0000       1.456146        39.6237 
 274   0.0000       1.461574        39.7715 
 275   0.0000       1.470544        40.0155 
 276   0.0000       1.476597        40.1802 
 277   0.0000       1.479986        40.2725 
 278   0.0000       1.487133        40.4670 
 279   0.0000       1.494230        40.6601 
 280   0.0000       1.499869        40.8135 
 281   0.0000       1.501681        40.8628 
 282   0.0000       1.506859        41.0037 
 283   0.0000       1.514498        41.2116 
 284   0.0000       1.523614        41.4596 
 285   0.0000       1.528505        41.5927 
 286   0.0000       1.535843        41.7924 
 287   0.0000       1.538018        41.8516 
 288   0.0000       1.542507        41.9738 
 289   0.0000       1.549917        42.1754 
 290   0.0000       1.558452        42.4076 
 291   0.0000       1.566697        42.6320 
 292   0.0000       1.573168        42.8081 
 293   0.0000       1.585442        43.1421 
 294   0.0000       1.587775        43.2056 
 295   0.0000       1.595959        43.4282 
 296   0.0000       1.602964        43.6189 
 297   0.0000       1.614812        43.9413 
 298   0.0000       1.623687        44.1828 
 299   0.0000       1.631992        44.4088 
 300   0.0000       1.644910        44.7603 
 301   0.0000       1.648696        44.8633 
 302   0.0000       1.656915        45.0870 
 303   0.0000       1.661859        45.2215 
 304   0.0000       1.667603        45.3778 
 305   0.0000       1.675834        45.6018 
 306   0.0000       1.691653        46.0322 
 307   0.0000       1.693905        46.0935 
 308   0.0000       1.701491        46.2999 
 309   0.0000       1.710667        46.5496 
 310   0.0000       1.714489        46.6536 
 311   0.0000       1.726956        46.9928 
 312   0.0000       1.728556        47.0364 
 313   0.0000       1.753384        47.7120 
 314   0.0000       1.759173        47.8695 
 315   0.0000       1.762629        47.9636 
 316   0.0000       1.767895        48.1069 
 317   0.0000       1.779140        48.4128 
 318   0.0000       1.799392        48.9639 
 319   0.0000       1.809081        49.2276 
 320   0.0000       1.818390        49.4809 
 321   0.0000       1.827285        49.7230 
 322   0.0000       1.840178        50.0738 
 323   0.0000       1.848240        50.2932 
 324   0.0000       1.854285        50.4577 
 325   0.0000       1.861784        50.6617 
 326   0.0000       1.878830        51.1256 
 327   0.0000       1.907013        51.8925 
 328   0.0000       1.911235        52.0073 
 329   0.0000       1.923614        52.3442 
 330   0.0000       1.932282        52.5801 
 331   0.0000       1.934967        52.6531 
 332   0.0000       1.949008        53.0352 
 333   0.0000       1.966843        53.5205 
 334   0.0000       1.977484        53.8101 
 335   0.0000       1.985856        54.0379 
 336   0.0000       2.004713        54.5510 
 337   0.0000       2.016998        54.8853 
 338   0.0000       2.019692        54.9586 
 339   0.0000       2.021641        55.0116 
 340   0.0000       2.038975        55.4833 
 341   0.0000       2.044578        55.6358 
 342   0.0000       2.052589        55.8538 
 343   0.0000       2.077657        56.5359 
 344   0.0000       2.093224        56.9595 
 345   0.0000       2.108841        57.3845 
 346   0.0000       2.129384        57.9435 
 347   0.0000       2.136268        58.1308 
 348   0.0000       2.144968        58.3676 
 349   0.0000       2.158212        58.7279 
 350   0.0000       2.177862        59.2626 
 351   0.0000       2.204593        59.9900 
 352   0.0000       2.210901        60.1617 
 353   0.0000       2.214868        60.2696 
 354   0.0000       2.242226        61.0141 
 355   0.0000       2.269892        61.7669 
 356   0.0000       2.277684        61.9789 
 357   0.0000       2.286382        62.2156 
 358   0.0000       2.308837        62.8266 
 359   0.0000       2.313557        62.9551 
 360   0.0000       2.322336        63.1940 
 361   0.0000       2.339090        63.6499 
 362   0.0000       2.351409        63.9851 
 363   0.0000       2.357514        64.1512 
 364   0.0000       2.362628        64.2904 
 365   0.0000       2.371004        64.5183 
 366   0.0000       2.389357        65.0177 
 367   0.0000       2.393909        65.1416 
 368   0.0000       2.415875        65.7393 
 369   0.0000       2.437126        66.3176 
 370   0.0000       2.453437        66.7614 
 371   0.0000       2.461627        66.9843 
 372   0.0000       2.467508        67.1443 
 373   0.0000       2.485427        67.6319 
 374   0.0000       2.490387        67.7669 
 375   0.0000       2.499165        68.0057 
 376   0.0000       2.505687        68.1832 
 377   0.0000       2.523929        68.6796 
 378   0.0000       2.533066        68.9282 
 379   0.0000       2.546585        69.2961 
 380   0.0000       2.565482        69.8103 
 381   0.0000       2.582576        70.2755 
 382   0.0000       2.597167        70.6725 
 383   0.0000       2.605210        70.8914 
 384   0.0000       2.620507        71.3076 
 385   0.0000       2.625487        71.4431 
 386   0.0000       2.637890        71.7806 
 387   0.0000       2.647511        72.0424 
 388   0.0000       2.662755        72.4573 
 389   0.0000       2.672417        72.7202 
 390   0.0000       2.681405        72.9647 
 391   0.0000       2.698047        73.4176 
 392   0.0000       2.714638        73.8691 
 393   0.0000       2.721747        74.0625 
 394   0.0000       2.737942        74.5032 
 395   0.0000       2.738912        74.5296 
 396   0.0000       2.750316        74.8399 
 397   0.0000       2.758444        75.0611 
 398   0.0000       2.764315        75.2208 
 399   0.0000       2.777369        75.5761 
 400   0.0000       2.781156        75.6791 
 401   0.0000       2.798983        76.1642 
 402   0.0000       2.806264        76.3623 
 403   0.0000       2.820240        76.7426 
 404   0.0000       2.821919        76.7883 
 405   0.0000       2.836532        77.1859 
 406   0.0000       2.840022        77.2809 
 407   0.0000       2.855410        77.6997 
 408   0.0000       2.860874        77.8483 
 409   0.0000       2.862342        77.8883 
 410   0.0000       2.874435        78.2174 
 411   0.0000       2.892450        78.7076 
 412   0.0000       2.894328        78.7587 
 413   0.0000       2.901914        78.9651 
 414   0.0000       2.907429        79.1152 
 415   0.0000       2.921588        79.5004 
 416   0.0000       2.938703        79.9662 
 417   0.0000       2.948519        80.2333 
 418   0.0000       2.954260        80.3895 
 419   0.0000       2.956057        80.4384 
 420   0.0000       2.967359        80.7459 
 421   0.0000       2.977435        81.0201 
 422   0.0000       2.983155        81.1758 
 423   0.0000       2.991905        81.4139 
 424   0.0000       3.005267        81.7775 
 425   0.0000       3.018678        82.1424 
 426   0.0000       3.024487        82.3005 
 427   0.0000       3.030454        82.4629 
 428   0.0000       3.032204        82.5105 
 429   0.0000       3.041324        82.7586 
 430   0.0000       3.043029        82.8050 
 431   0.0000       3.046485        82.8991 
 432   0.0000       3.065644        83.4204 
 433   0.0000       3.071988        83.5931 
 434   0.0000       3.082607        83.8820 
 435   0.0000       3.088318        84.0374 
 436   0.0000       3.089488        84.0692 
 437   0.0000       3.099838        84.3509 
 438   0.0000       3.103318        84.4456 
 439   0.0000       3.107068        84.5476 
 440   0.0000       3.118600        84.8614 
 441   0.0000       3.123802        85.0030 
 442   0.0000       3.130242        85.1782 
 443   0.0000       3.135857        85.3310 
 444   0.0000       3.145613        85.5965 
 445   0.0000       3.158038        85.9346 
 446   0.0000       3.161204        86.0207 
 447   0.0000       3.175388        86.4067 
 448   0.0000       3.184422        86.6525 
 449   0.0000       3.194449        86.9254 
 450   0.0000       3.203904        87.1827 
 451   0.0000       3.205390        87.2231 
 452   0.0000       3.210289        87.3564 
 453   0.0000       3.221214        87.6537 
 454   0.0000       3.227252        87.8180 
 455   0.0000       3.231910        87.9447 
 456   0.0000       3.236266        88.0633 
 457   0.0000       3.246431        88.3399 
 458   0.0000       3.257156        88.6317 
 459   0.0000       3.266310        88.8808 
 460   0.0000       3.272671        89.0539 
 461   0.0000       3.278672        89.2172 
 462   0.0000       3.286467        89.4293 
 463   0.0000       3.287527        89.4582 
 464   0.0000       3.301005        89.8249 
 465   0.0000       3.312785        90.1455 
 466   0.0000       3.314619        90.1954 
 467   0.0000       3.320195        90.3471 
 468   0.0000       3.325850        90.5010 
 469   0.0000       3.333586        90.7115 
 470   0.0000       3.338825        90.8541 
 471   0.0000       3.346447        91.0614 
 472   0.0000       3.354958        91.2930 
 473   0.0000       3.359932        91.4284 
 474   0.0000       3.368286        91.6557 
 475   0.0000       3.368995        91.6750 
 476   0.0000       3.378259        91.9271 
 477   0.0000       3.379654        91.9651 
 478   0.0000       3.384319        92.0920 
 479   0.0000       3.390185        92.2516 
 480   0.0000       3.392624        92.3180 
 481   0.0000       3.395502        92.3963 
 482   0.0000       3.406147        92.6860 
 483   0.0000       3.407475        92.7221 
 484   0.0000       3.416988        92.9810 
 485   0.0000       3.420498        93.0765 
 486   0.0000       3.427790        93.2749 
 487   0.0000       3.431784        93.3836 
 488   0.0000       3.437971        93.5520 
 489   0.0000       3.447923        93.8227 
 490   0.0000       3.450233        93.8856 
 491   0.0000       3.451609        93.9231 
 492   0.0000       3.457734        94.0897 
 493   0.0000       3.466479        94.3277 
 494   0.0000       3.476283        94.5945 
 495   0.0000       3.477393        94.6247 
 496   0.0000       3.484879        94.8284 
 497   0.0000       3.493480        95.0624 
 498   0.0000       3.499115        95.2158 
 499   0.0000       3.508758        95.4781 
 500   0.0000       3.513510        95.6075 
 501   0.0000       3.520186        95.7891 
 502   0.0000       3.530292        96.0641 
 503   0.0000       3.536995        96.2465 
 504   0.0000       3.543826        96.4324 
 505   0.0000       3.545421        96.4758 
 506   0.0000       3.567280        97.0706 
 507   0.0000       3.569262        97.1246 
 508   0.0000       3.574535        97.2680 
 509   0.0000       3.587952        97.6331 
 510   0.0000       3.588908        97.6592 
 511   0.0000       3.604083        98.0721 
 512   0.0000       3.609981        98.2326 
 513   0.0000       3.619961        98.5041 
 514   0.0000       3.623574        98.6025 
 515   0.0000       3.629125        98.7535 
 516   0.0000       3.637168        98.9724 
 517   0.0000       3.639061        99.0239 
 518   0.0000       3.644254        99.1652 
 519   0.0000       3.652174        99.3807 
 520   0.0000       3.658108        99.5422 
 521   0.0000       3.659740        99.5866 
 522   0.0000       3.667582        99.8000 
 523   0.0000       3.672974        99.9467 
 524   0.0000       3.677970       100.0826 
 525   0.0000       3.685871       100.2977 
 526   0.0000       3.691221       100.4432 
 527   0.0000       3.692053       100.4659 
 528   0.0000       3.693279       100.4992 
 529   0.0000       3.703041       100.7649 
 530   0.0000       3.716239       101.1240 
 531   0.0000       3.725882       101.3864 
 532   0.0000       3.732112       101.5559 
 533   0.0000       3.739579       101.7591 
 534   0.0000       3.743478       101.8652 
 535   0.0000       3.756983       102.2327 
 536   0.0000       3.762836       102.3920 
 537   0.0000       3.764868       102.4473 
 538   0.0000       3.775028       102.7237 
 539   0.0000       3.781125       102.8896 
 540   0.0000       3.783819       102.9630 
 541   0.0000       3.793418       103.2242 
 542   0.0000       3.795435       103.2790 
 543   0.0000       3.806382       103.5769 
 544   0.0000       3.810087       103.6777 
 545   0.0000       3.818881       103.9170 
 546   0.0000       3.827892       104.1622 
 547   0.0000       3.832497       104.2875 
 548   0.0000       3.845898       104.6522 
 549   0.0000       3.857624       104.9713 
 550   0.0000       3.865658       105.1899 
 551   0.0000       3.870090       105.3105 
 552   0.0000       3.877541       105.5133 
 553   0.0000       3.889210       105.8308 
 554   0.0000       3.891546       105.8944 
 555   0.0000       3.905123       106.2638 
 556   0.0000       3.915419       106.5440 
 557   0.0000       3.927777       106.8802 
 558   0.0000       3.936727       107.1238 
 559   0.0000       3.937697       107.1502 
 560   0.0000       3.940938       107.2384 
 561   0.0000       3.950457       107.4974 
 562   0.0000       3.958535       107.7172 
 563   0.0000       3.963718       107.8583 
 564   0.0000       3.969245       108.0086 
 565   0.0000       3.980033       108.3022 
 566   0.0000       3.987031       108.4926 
 567   0.0000       4.000229       108.8518 
 568   0.0000       4.005143       108.9855 
 569   0.0000       4.022053       109.4456 
 570   0.0000       4.023916       109.4963 
 571   0.0000       4.031455       109.7015 
 572   0.0000       4.046484       110.1104 
 573   0.0000       4.054991       110.3419 
 574   0.0000       4.064906       110.6117 
 575   0.0000       4.066693       110.6603 
 576   0.0000       4.081707       111.0689 
 577   0.0000       4.084726       111.1510 
 578   0.0000       4.087408       111.2240 
 579   0.0000       4.098416       111.5236 
 580   0.0000       4.109083       111.8138 
 581   0.0000       4.118827       112.0790 
 582   0.0000       4.127884       112.3254 
 583   0.0000       4.139933       112.6533 
 584   0.0000       4.145615       112.8079 
 585   0.0000       4.151558       112.9696 
 586   0.0000       4.156864       113.1140 
 587   0.0000       4.164227       113.3144 
 588   0.0000       4.171134       113.5023 
 589   0.0000       4.175972       113.6340 
 590   0.0000       4.179431       113.7281 
 591   0.0000       4.180939       113.7691 
 592   0.0000       4.193982       114.1240 
 593   0.0000       4.203044       114.3706 
 594   0.0000       4.208670       114.5237 
 595   0.0000       4.214581       114.6846 
 596   0.0000       4.218801       114.7994 
 597   0.0000       4.233446       115.1979 
 598   0.0000       4.234532       115.2275 
 599   0.0000       4.241489       115.4168 
 600   0.0000       4.254184       115.7622 
 601   0.0000       4.264806       116.0513 
 602   0.0000       4.266973       116.1102 
 603   0.0000       4.279241       116.4441 
 604   0.0000       4.285617       116.6176 
 605   0.0000       4.294785       116.8670 
 606   0.0000       4.316200       117.4498 
 607   0.0000       4.320158       117.5575 
 608   0.0000       4.326210       117.7222 
 609   0.0000       4.331844       117.8755 
 610   0.0000       4.342491       118.1652 
 611   0.0000       4.349635       118.3596 
 612   0.0000       4.360782       118.6629 
 613   0.0000       4.361469       118.6816 
 614   0.0000       4.367189       118.8373 
 615   0.0000       4.376980       119.1037 
 616   0.0000       4.383021       119.2681 
 617   0.0000       4.391514       119.4992 
 618   0.0000       4.398405       119.6867 
 619   0.0000       4.401062       119.7590 
 620   0.0000       4.417375       120.2029 
 621   0.0000       4.427711       120.4841 
 622   0.0000       4.437244       120.7436 
 623   0.0000       4.441918       120.8707 
 624   0.0000       4.451389       121.1285 
 625   0.0000       4.455652       121.2444 
 626   0.0000       4.465080       121.5010 
 627   0.0000       4.479910       121.9046 
 628   0.0000       4.488669       122.1429 
 629   0.0000       4.496168       122.3470 
 630   0.0000       4.502205       122.5112 
 631   0.0000       4.512108       122.7807 
 632   0.0000       4.516433       122.8984 
 633   0.0000       4.536646       123.4484 
 634   0.0000       4.538496       123.4987 
 635   0.0000       4.548040       123.7584 
 636   0.0000       4.554751       123.9411 
 637   0.0000       4.559705       124.0759 
 638   0.0000       4.571556       124.3984 
 639   0.0000       4.586090       124.7939 
 640   0.0000       4.596175       125.0683 
 641   0.0000       4.597751       125.1112 
 642   0.0000       4.611983       125.4984 
 643   0.0000       4.615888       125.6047 
 644   0.0000       4.622637       125.7883 
 645   0.0000       4.631590       126.0320 
 646   0.0000       4.636928       126.1772 
 647   0.0000       4.641019       126.2885 
 648   0.0000       4.646569       126.4396 
 649   0.0000       4.656209       126.7019 
 650   0.0000       4.665294       126.9491 
 651   0.0000       4.669974       127.0765 
 652   0.0000       4.680030       127.3501 
 653   0.0000       4.685973       127.5118 
 654   0.0000       4.693262       127.7101 
 655   0.0000       4.709314       128.1469 
 656   0.0000       4.714028       128.2752 
 657   0.0000       4.722229       128.4984 
 658   0.0000       4.728687       128.6741 
 659   0.0000       4.741335       129.0183 
 660   0.0000       4.751192       129.2865 
 661   0.0000       4.761125       129.5568 
 662   0.0000       4.776658       129.9795 
 663   0.0000       4.792429       130.4086 
 664   0.0000       4.812146       130.9452 
 665   0.0000       4.824207       131.2734 
 666   0.0000       4.852496       132.0431 
 667   0.0000       4.862210       132.3074 
 668   0.0000       4.887949       133.0078 
 669   0.0000       4.896742       133.2471 
 670   0.0000       4.901566       133.3784 
 671   0.0000       4.910672       133.6262 
 672   0.0000       4.934664       134.2790 
 673   0.0000       4.947798       134.6364 
 674   0.0000       4.952288       134.7586 
 675   0.0000       4.979852       135.5087 
 676   0.0000       5.014076       136.4400 
 677   0.0000       5.019179       136.5788 
 678   0.0000       5.026704       136.7836 
 679   0.0000       5.040859       137.1688 
 680   0.0000       5.051730       137.4646 
 681   0.0000       5.067320       137.8888 
 682   0.0000       5.080164       138.2383 
 683   0.0000       5.089228       138.4849 
 684   0.0000       5.097394       138.7071 
 685   0.0000       5.104460       138.8994 
 686   0.0000       5.124283       139.4388 
 687   0.0000       5.143373       139.9583 
 688   0.0000       5.147409       140.0681 
 689   0.0000       5.163501       140.5060 
 690   0.0000       5.174978       140.8183 
 691   0.0000       5.183886       141.0607 
 692   0.0000       5.189403       141.2108 
 693   0.0000       5.199950       141.4978 
 694   0.0000       5.207223       141.6957 
 695   0.0000       5.213602       141.8693 
 696   0.0000       5.226566       142.2221 
 697   0.0000       5.234834       142.4471 
 698   0.0000       5.244518       142.7106 
 699   0.0000       5.251524       142.9012 
 700   0.0000       5.262285       143.1940 
 701   0.0000       5.274189       143.5180 
 702   0.0000       5.298581       144.1817 
 703   0.0000       5.306605       144.4001 
 704   0.0000       5.318396       144.7209 
 705   0.0000       5.330529       145.0511 
 706   0.0000       5.342700       145.3823 
 707   0.0000       5.355268       145.7243 
 708   0.0000       5.365921       146.0141 
 709   0.0000       5.382728       146.4715 
 710   0.0000       5.392351       146.7333 
 711   0.0000       5.416949       147.4027 
 712   0.0000       5.423881       147.5913 
 713   0.0000       5.462051       148.6300 
 714   0.0000       5.468817       148.8141 
 715   0.0000       5.478430       149.0757 
 716   0.0000       5.493518       149.4862 
 717   0.0000       5.507031       149.8539 
 718   0.0000       5.519305       150.1879 
 719   0.0000       5.519752       150.2001 
 720   0.0000       5.538654       150.7144 
 721   0.0000       5.546892       150.9386 
 722   0.0000       5.556902       151.2110 
 723   0.0000       5.569310       151.5486 
 724   0.0000       5.587291       152.0379 
 725   0.0000       5.609000       152.6287 
 726   0.0000       5.613370       152.7476 
 727   0.0000       5.632710       153.2738 
 728   0.0000       5.640237       153.4786 
 729   0.0000       5.646657       153.6533 
 730   0.0000       5.648601       153.7063 
 731   0.0000       5.659926       154.0144 
 732   0.0000       5.683223       154.6484 
 733   0.0000       5.691137       154.8637 
 734   0.0000       5.699117       155.0809 
 735   0.0000       5.712905       155.4560 
 736   0.0000       5.718779       155.6159 
 737   0.0000       5.730182       155.9262 
 738   0.0000       5.739131       156.1697 
 739   0.0000       5.762110       156.7950 
 740   0.0000       5.769686       157.0011 
 741   0.0000       5.776096       157.1756 
 742   0.0000       5.801499       157.8668 
 743   0.0000       5.815879       158.2581 
 744   0.0000       5.833165       158.7285 
 745   0.0000       5.839103       158.8901 
 746   0.0000       5.852032       159.2419 
 747   0.0000       5.855716       159.3421 
 748   0.0000       5.921668       161.1368 
 749   0.0000       5.931576       161.4064 
 750   0.0000       5.959284       162.1604 
 751   0.0000       5.977351       162.6520 
 752   0.0000       5.985169       162.8647 
 753   0.0000       5.995459       163.1447 
 754   0.0000       6.009523       163.5274 
 755   0.0000       6.038095       164.3049 
 756   0.0000       6.053580       164.7263 
 757   0.0000       6.062277       164.9629 
 758   0.0000       6.079289       165.4259 
 759   0.0000       6.086083       165.6107 
 760   0.0000       6.091862       165.7680 
 761   0.0000       6.168222       167.8459 
 762   0.0000       6.223798       169.3582 
 763   0.0000       6.226981       169.4448 
 764   0.0000       6.265319       170.4880 
 765   0.0000       6.288405       171.1162 
 766   0.0000       6.307785       171.6436 
 767   0.0000       6.315165       171.8444 
 768   0.0000       6.331062       172.2770 
 769   0.0000       6.350864       172.8158 
 770   0.0000       6.375470       173.4854 
 771   0.0000       6.381460       173.6483 
 772   0.0000       6.408165       174.3750 
 773   0.0000       6.444526       175.3645 
 774   0.0000       6.459679       175.7768 
 775   0.0000       6.474535       176.1811 
 776   0.0000       6.510663       177.1642 
 777   0.0000       6.558567       178.4677 
 778   0.0000       6.588889       179.2928 
 779   0.0000       6.639598       180.6727 
 780   0.0000       6.678125       181.7210 
 781   0.0000       6.681848       181.8223 
 782   0.0000       6.722934       182.9403 
 783   0.0000       6.771916       184.2732 
 784   0.0000       6.830887       185.8779 
 785   0.0000       6.883750       187.3164 
 786   0.0000       6.914691       188.1583 
 787   0.0000       6.924353       188.4212 
 788   0.0000       6.969172       189.6408 
 789   0.0000       7.006147       190.6470 
 790   0.0000       7.050789       191.8617 
 791   0.0000       7.062165       192.1713 
 792   0.0000       7.083780       192.7594 
 793   0.0000       7.124770       193.8748 
 794   0.0000       7.254462       197.4039 
 795   0.0000       7.260444       197.5667 
 796   0.0000       7.265637       197.7080 
 797   0.0000       7.283135       198.1842 
 798   0.0000       7.344237       199.8468 
 799   0.0000       7.376721       200.7308 
 800   0.0000       7.397990       201.3095 
 801   0.0000       7.578916       206.2328 
 802   0.0000       7.585123       206.4017 
 803   0.0000       7.634840       207.7546 
 804   0.0000       7.643099       207.9793 
 805   0.0000       7.819887       212.7899 
 806   0.0000       7.827981       213.0102 
 807   0.0000       7.860376       213.8917 
 808   0.0000       7.935039       215.9234 
 809   0.0000       9.426621       256.5114 
 810   0.0000       9.551499       259.9095 
 811   0.0000      10.744111       292.3621 
 812   0.0000      11.232146       305.6422 
 813   0.0000      11.910529       324.1020 
 814   0.0000      12.573475       342.1416 
 815   0.0000      12.937335       352.0428 
 816   0.0000      12.943643       352.2144 
 817   0.0000      13.078629       355.8876 
 818   0.0000      13.192284       358.9803 
 819   0.0000      13.392739       364.4350 
 820   0.0000      13.498667       367.3174 
 821   0.0000      13.874590       377.5468 
 822   0.0000      13.926585       378.9616 
 823   0.0000      13.989003       380.6601 
 824   0.0000      14.066562       382.7706 
 825   0.0000      14.563997       396.3065 
 826   0.0000      14.629759       398.0960 
 827   0.0000      15.977587       434.7723 

                    ********************************
                    * MULLIKEN POPULATION ANALYSIS *
                    ********************************

-----------------------
MULLIKEN ATOMIC CHARGES
-----------------------
   0 C :   -0.332445
   1 C :    0.040391
   2 O :   -0.379258
   3 C :    0.453475
   4 O :   -0.395643
   5 C :   -0.221113
   6 C :    0.161122
   7 C :   -0.282586
   8 N :   -0.127363
   9 C :    0.206495
  10 S :   -0.440031
  11 N :   -0.211396
  12 C :    0.058768
  13 C :    0.010808
  14 C :   -0.167156
  15 C :   -0.135942
  16 C :   -0.277580
  17 C :    0.316456
  18 O :   -0.359173
  19 C :   -0.252575
  20 H :    0.125821
  21 H :    0.115300
  22 H :    0.099880
  23 H :    0.110107
  24 H :    0.109110
  25 H :    0.120247
  26 H :    0.131649
  27 H :    0.104389
  28 H :    0.198080
  29 H :    0.199206
  30 H :    0.156650
  31 H :    0.164385
  32 H :    0.161770
  33 H :    0.130643
  34 H :    0.240594
  35 H :    0.166911
Sum of atomic charges:   -0.0000000

--------------------------------
MULLIKEN REDUCED ORBITAL CHARGES
--------------------------------
  0 C s       :     3.273552  s :     3.273552
      pz      :     0.936143  p :     2.980720
      px      :     1.021716
      py      :     1.022861
      dz2     :     0.020049  d :     0.073774
      dxz     :     0.016445
      dyz     :     0.011625
      dx2y2   :     0.011549
      dxy     :     0.014105
      f0      :     0.000802  f :     0.004399
      f+1     :     0.001524
      f-1     :     0.000347
      f+2     :     0.000258
      f-2     :     0.000421
      f+3     :     0.000109
      f-3     :     0.000939
  1 C s       :     3.167135  s :     3.167135
      pz      :     0.959786  p :     2.623537
      px      :     0.772521
      py      :     0.891230
      dz2     :     0.027663  d :     0.157296
      dxz     :     0.038556
      dyz     :     0.019176
      dx2y2   :     0.041013
      dxy     :     0.030887
      f0      :     0.001644  f :     0.011640
      f+1     :     0.001789
      f-1     :     0.001018
      f+2     :     0.000544
      f-2     :     0.001653
      f+3     :     0.002832
      f-3     :     0.002161
  2 O s       :     3.724872  s :     3.724872
      pz      :     1.579933  p :     4.619920
      px      :     1.350445
      py      :     1.689541
      dz2     :     0.005944  d :     0.032182
      dxz     :     0.011252
      dyz     :     0.003944
      dx2y2   :     0.004759
      dxy     :     0.006282
      f0      :     0.000146  f :     0.002285
      f+1     :     0.000550
      f-1     :     0.000112
      f+2     :     0.000419
      f-2     :     0.000263
      f+3     :     0.000311
      f-3     :     0.000483
  3 C s       :     3.043932  s :     3.043932
      pz      :     0.703810  p :     2.188576
      px      :     0.701148
      py      :     0.783618
      dz2     :     0.045567  d :     0.287519
      dxz     :     0.059832
      dyz     :     0.053055
      dx2y2   :     0.076622
      dxy     :     0.052443
      f0      :     0.003624  f :     0.026498
      f+1     :     0.003263
      f-1     :     0.002546
      f+2     :     0.002738
      f-2     :     0.005844
      f+3     :     0.003090
      f-3     :     0.005393
  4 O s       :     3.772461  s :     3.772461
      pz      :     1.666052  p :     4.585175
      px      :     1.475726
      py      :     1.443396
      dz2     :     0.004075  d :     0.035573
      dxz     :     0.003076
      dyz     :     0.006465
      dx2y2   :     0.010386
      dxy     :     0.011570
      f0      :     0.000274  f :     0.002435
      f+1     :     0.000195
      f-1     :     0.000285
      f+2     :     0.000066
      f-2     :     0.000359
      f+3     :     0.000627
      f-3     :     0.000630
  5 C s       :     3.181977  s :     3.181977
      pz      :     0.918773  p :     2.944212
      px      :     1.126494
      py      :     0.898945
      dz2     :     0.015061  d :     0.084607
      dxz     :     0.014484
      dyz     :     0.028655
      dx2y2   :     0.010373
      dxy     :     0.016034
      f0      :     0.000966  f :     0.010317
      f+1     :     0.001160
      f-1     :     0.001966
      f+2     :     0.002073
      f-2     :     0.000969
      f+3     :     0.001545
      f-3     :     0.001637
  6 C s       :     3.179461  s :     3.179461
      pz      :     0.866126  p :     2.466802
      px      :     0.819015
      py      :     0.781661
      dz2     :     0.033415  d :     0.178258
      dxz     :     0.020612
      dyz     :     0.051244
      dx2y2   :     0.023543
      dxy     :     0.049444
      f0      :     0.001803  f :     0.014357
      f+1     :     0.001035
      f-1     :     0.003018
      f+2     :     0.002632
      f-2     :     0.002226
      f+3     :     0.002050
      f-3     :     0.001593
  7 C s       :     3.279373  s :     3.279373
      pz      :     0.903132  p :     2.929247
      px      :     1.015095
      py      :     1.011021
      dz2     :     0.019240  d :     0.069304
      dxz     :     0.016249
      dyz     :     0.007858
      dx2y2   :     0.018802
      dxy     :     0.007156
      f0      :     0.000660  f :     0.004661
      f+1     :     0.001365
      f-1     :     0.000810
      f+2     :     0.000329
      f-2     :     0.000416
      f+3     :     0.000067
      f-3     :     0.001014
  8 N s       :     3.345720  s :     3.345720
      pz      :     1.176650  p :     3.717364
      px      :     1.453537
      py      :     1.087178
      dz2     :     0.014795  d :     0.059323
      dxz     :     0.009486
      dyz     :     0.015876
      dx2y2   :     0.009351
      dxy     :     0.009815
      f0      :     0.000666  f :     0.004955
      f+1     :     0.001005
      f-1     :     0.000743
      f+2     :     0.000935
      f-2     :     0.000807
      f+3     :     0.000401
      f-3     :     0.000398
  9 C s       :     3.160710  s :     3.160710
      pz      :     0.773851  p :     2.353407
      px      :     0.699507
      py      :     0.880049
      dz2     :     0.065204  d :     0.261821
      dxz     :     0.034740
      dyz     :     0.052675
      dx2y2   :     0.049302
      dxy     :     0.059901
      f0      :     0.003021  f :     0.017567
      f+1     :     0.002154
      f-1     :     0.002747
      f+2     :     0.002878
      f-2     :     0.001948
      f+3     :     0.002293
      f-3     :     0.002526
 10 S s       :     5.854699  s :     5.854699
      pz      :     3.530685  p :    10.490367
      px      :     3.679247
      py      :     3.280435
      dz2     :     0.008383  d :     0.084837
      dxz     :     0.005130
      dyz     :     0.038764
      dx2y2   :     0.017215
      dxy     :     0.015346
      f0      :     0.001206  f :     0.010128
      f+1     :     0.000090
      f-1     :     0.001934
      f+2     :     0.003090
      f-2     :     0.001430
      f+3     :     0.001340
      f-3     :     0.001038
 11 N s       :     3.380812  s :     3.380812
      pz      :     1.278508  p :     3.768070
      px      :     1.460680
      py      :     1.028883
      dz2     :     0.010169  d :     0.058090
      dxz     :     0.006870
      dyz     :     0.014724
      dx2y2   :     0.011968
      dxy     :     0.014359
      f0      :     0.000344  f :     0.004423
      f+1     :     0.000579
      f-1     :     0.000559
      f+2     :     0.000681
      f-2     :     0.000657
      f+3     :     0.000827
      f-3     :     0.000775
 12 C s       :     3.119194  s :     3.119194
      pz      :     0.838894  p :     2.625449
      px      :     1.005783
      py      :     0.780772
      dz2     :     0.036418  d :     0.185199
      dxz     :     0.029892
      dyz     :     0.039934
      dx2y2   :     0.040616
      dxy     :     0.038338
      f0      :     0.001236  f :     0.011391
      f+1     :     0.001214
      f-1     :     0.001980
      f+2     :     0.002397
      f-2     :     0.001797
      f+3     :     0.001555
      f-3     :     0.001212
 13 C s       :     3.106638  s :     3.106638
      pz      :     0.908115  p :     2.762180
      px      :     0.922253
      py      :     0.931812
      dz2     :     0.017933  d :     0.109120
      dxz     :     0.012445
      dyz     :     0.029010
      dx2y2   :     0.023699
      dxy     :     0.026032
      f0      :     0.001084  f :     0.011254
      f+1     :     0.001583
      f-1     :     0.001114
[...]
      f-1     :     0.005283
      f+2     :     0.006532
      f-2     :     0.005686
      f+3     :     0.006218
      f-3     :     0.009580
 15 C s       :     2.705681  s :     2.705681
      pz      :     0.896546  p :     2.796602
      px      :     0.936647
      py      :     0.963409
      dz2     :     0.091022  d :     0.415112
      dxz     :     0.069791
      dyz     :     0.057023
      dx2y2   :     0.099011
      dxy     :     0.098265
      f0      :     0.003049  f :     0.040969
      f+1     :     0.005366
      f-1     :     0.005851
      f+2     :     0.007039
      f-2     :     0.006381
      f+3     :     0.006754
      f-3     :     0.006527
 16 C s       :     2.701978  s :     2.701978
      pz      :     0.935660  p :     2.867728
      px      :     0.965510
      py      :     0.966558
      dz2     :     0.043442  d :     0.391086
      dxz     :     0.059472
      dyz     :     0.084706
      dx2y2   :     0.094710
      dxy     :     0.108756
      f0      :     0.004337  f :     0.040311
      f+1     :     0.005112
      f-1     :     0.003197
      f+2     :     0.005553
      f-2     :     0.005854
      f+3     :     0.007660
      f-3     :     0.008598
 17 C s       :     2.701458  s :     2.701458
      pz      :     0.845867  p :     2.685224
      px      :     0.819760
      py      :     1.019597
      dz2     :     0.124516  d :     0.708015
      dxz     :     0.116870
      dyz     :     0.130359
      dx2y2   :     0.170548
      dxy     :     0.165722
      f0      :     0.009215  f :     0.099234
      f+1     :     0.016984
      f-1     :     0.008142
      f+2     :     0.015069
      f-2     :     0.015535
      f+3     :     0.014753
      f-3     :     0.019537
 18 O s       :     3.177289  s :     3.177289
      pz      :     1.441964  p :     4.348271
      px      :     1.419537
      py      :     1.486769
      dz2     :     0.008100  d :     0.075602
      dxz     :     0.017734
      dyz     :     0.017196
      dx2y2   :     0.018503
      dxy     :     0.014069
      f0      :     0.000593  f :     0.005076
      f+1     :     0.000783
      f-1     :     0.000318
      f+2     :     0.000824
      f-2     :     0.000883
      f+3     :     0.000721
      f-3     :     0.000955
 19 C s       :     2.695407  s :     2.695407
      pz      :     0.929597  p :     2.844417
      px      :     0.952925
      py      :     0.961895
      dz2     :     0.074535  d :     0.389005
      dxz     :     0.066630
      dyz     :     0.060433
      dx2y2   :     0.087942
      dxy     :     0.099464
      f0      :     0.003157  f :     0.040873
      f+1     :     0.005404
      f-1     :     0.005481
      f+2     :     0.007132
      f-2     :     0.006880
      f+3     :     0.006721
      f-3     :     0.006099
 20 H s       :     0.840574  s :     0.840574
      pz      :     0.057989  p :     0.154005
      px      :     0.052295
      py      :     0.043721
      dz2     :     0.007758  d :     0.027595
      dxz     :     0.006195
      dyz     :     0.004889
      dx2y2   :     0.004630
      dxy     :     0.004123
 21 H s       :     0.844098  s :     0.844098
      pz      :     0.039278  p :     0.151783
      px      :     0.063921
      py      :     0.048583
      dz2     :     0.002373  d :     0.027492
      dxz     :     0.007028
      dyz     :     0.002020
      dx2y2   :     0.009060
      dxy     :     0.007012
 22 H s       :     0.850664  s :     0.850664
      pz      :     0.040711  p :     0.152274
      px      :     0.041047
      py      :     0.070516
      dz2     :     0.003027  d :     0.027735
      dxz     :     0.000976
      dyz     :     0.008223
      dx2y2   :     0.006508
      dxy     :     0.009001
 23 H s       :     0.853401  s :     0.853401
      pz      :     0.040674  p :     0.145793
      px      :     0.030795
      py      :     0.074324
      dz2     :     0.003039  d :     0.027015
      dxz     :     0.001269
      dyz     :     0.008489
      dx2y2   :     0.007199
      dxy     :     0.007019
 24 H s       :     0.854027  s :     0.854027
      pz      :     0.059743  p :     0.143269
      px      :     0.049171
      py      :     0.034355
      dz2     :     0.007915  d :     0.026744
      dxz     :     0.007467
      dyz     :     0.003269
      dx2y2   :     0.003494
      dxy     :     0.004599
 25 H s       :     0.832130  s :     0.832130
      pz      :     0.038568  p :     0.151838
      px      :     0.068365
      py      :     0.044905
      dz2     :     0.002586  d :     0.027809
      dxz     :     0.007953
      dyz     :     0.001064
      dx2y2   :     0.008727
      dxy     :     0.007479
 26 H s       :     0.828145  s :     0.828145
      pz      :     0.058525  p :     0.150702
      px      :     0.049405
      py      :     0.042773
      dz2     :     0.008162  d :     0.027720
      dxz     :     0.006602
      dyz     :     0.005432
      dx2y2   :     0.004437
      dxy     :     0.003088
 27 H s       :     0.842723  s :     0.842723
      pz      :     0.035820  p :     0.149945
      px      :     0.041095
      py      :     0.073030
      dz2     :     0.002406  d :     0.027715
      dxz     :     0.000173
      dyz     :     0.008890
      dx2y2   :     0.006703
      dxy     :     0.009542
 28 H s       :     0.742572  s :     0.742572
      pz      :     0.057528  p :     0.254017
      px      :     0.085803
      py      :     0.110686
      dz2     :     0.006989  d :     0.061849
      dxz     :     0.002771
      dyz     :     0.016323
      dx2y2   :     0.016446
      dxy     :     0.019320
 29 H s       :     0.748048  s :     0.748048
      pz      :     0.115934  p :     0.253990
      px      :     0.095682
      py      :     0.042374
      dz2     :     0.022176  d :     0.061341
      dxz     :     0.016899
      dyz     :     0.011357
      dx2y2   :     0.006556
      dxy     :     0.004353
 30 H s       :     0.824633  s :     0.824633
      pz      :     0.041085  p :     0.153179
      px      :     0.073132
      py      :     0.038962
      dz2     :     0.003118  d :     0.029140
      dxz     :     0.008548
      dyz     :     0.002091
      dx2y2   :     0.008186
      dxy     :     0.007197
 31 H s       :     0.839533  s :     0.839533
      pz      :     0.054311  p :     0.155851
      px      :     0.066872
      py      :     0.034668
      dz2     :     0.005277  d :     0.027439
      dxz     :     0.007273
      dyz     :     0.003118
      dx2y2   :     0.005725
      dxy     :     0.006046
 32 H s       :     0.842460  s :     0.842460
      pz      :     0.036904  p :     0.151134
      px      :     0.042288
      py      :     0.071942
      dz2     :     0.002620  d :     0.026458
      dxz     :     0.001302
      dyz     :     0.006664
      dx2y2   :     0.007940
      dxy     :     0.007932
 33 H s       :     0.848792  s :     0.848792
      pz      :     0.057386  p :     0.158951
      px      :     0.045441
      py      :     0.056124
      dz2     :     0.005945  d :     0.027747
      dxz     :     0.004279
      dyz     :     0.006415
      dx2y2   :     0.005750
      dxy     :     0.005358
 34 H s       :     0.706730  s :     0.706730
      pz      :     0.112602  p :     0.347899
      px      :     0.082075
      py      :     0.153221
      dz2     :     0.022654  d :     0.099576
      dxz     :     0.010525
      dyz     :     0.024985
      dx2y2   :     0.020846
      dxy     :     0.020565
 35 H s       :     0.839056  s :     0.839056
      pz      :     0.040238  p :     0.156984
      px      :     0.043860
      py      :     0.072886
      dz2     :     0.002611  d :     0.027944
      dxz     :     0.001526
      dyz     :     0.007290
      dx2y2   :     0.008290
      dxy     :     0.008227


                      *****************************
                      * MAYER POPULATION ANALYSIS *
                      *****************************

  NA   - Mulliken gross atomic population
  ZA   - Total nuclear charge
  QA   - Mulliken gross atomic charge
  VA   - Mayer's total valence
  BVA  - Mayer's bonded valence
  FA   - Mayer's free valence

  ATOM       NA         ZA         QA         VA         BVA        FA
  0 C      6.3324     6.0000    -0.3324     3.8681     3.8681    -0.0000
  1 C      5.9596     6.0000     0.0404     3.8765     3.8765    -0.0000
  2 O      8.3793     8.0000    -0.3793     1.9812     1.9812    -0.0000
  3 C      5.5465     6.0000     0.4535     4.2074     4.2074     0.0000
  4 O      8.3956     8.0000    -0.3956     2.1116     2.1116    -0.0000
  5 C      6.2211     6.0000    -0.2211     3.6247     3.6247    -0.0000
  6 C      5.8389     6.0000     0.1611     3.8631     3.8631    -0.0000
  7 C      6.2826     6.0000    -0.2826     3.8998     3.8998    -0.0000
  8 N      7.1274     7.0000    -0.1274     3.2941     3.2941    -0.0000
  9 C      5.7935     6.0000     0.2065     4.1550     4.1550     0.0000
 10 S     16.4400    16.0000    -0.4400     1.7573     1.7573     0.0000
 11 N      7.2114     7.0000    -0.2114     3.2524     3.2524    -0.0000
 12 C      5.9412     6.0000     0.0588     3.9255     3.9255    -0.0000
 13 C      5.9892     6.0000     0.0108     3.7668     3.7668    -0.0000
 14 C      6.1672     6.0000    -0.1672     3.8639     3.8639    -0.0000
 15 C      6.1359     6.0000    -0.1359     3.8064     3.8064    -0.0000
 16 C      6.2776     6.0000    -0.2776     3.7937     3.7937    -0.0000
 17 C      5.6835     6.0000     0.3165     3.8570     3.8570    -0.0000
 18 O      8.3592     8.0000    -0.3592     2.1149     2.1149    -0.0000
 19 C      6.2526     6.0000    -0.2526     3.8309     3.8309     0.0000
 20 H      0.8742     1.0000     0.1258     0.9685     0.9685    -0.0000
 21 H      0.8847     1.0000     0.1153     0.9829     0.9829     0.0000
 22 H      0.9001     1.0000     0.0999     0.9795     0.9795    -0.0000
 23 H      0.8899     1.0000     0.1101     0.9814     0.9814     0.0000
 24 H      0.8909     1.0000     0.1091     0.9745     0.9745    -0.0000
 25 H      0.8798     1.0000     0.1202     0.9771     0.9771    -0.0000
 26 H      0.8684     1.0000     0.1316     0.9796     0.9796    -0.0000
 27 H      0.8956     1.0000     0.1044     0.9862     0.9862    -0.0000
 28 H      0.8019     1.0000     0.1981     1.0220     1.0220    -0.0000
 29 H      0.8008     1.0000     0.1992     1.0148     1.0148    -0.0000
 30 H      0.8433     1.0000     0.1567     0.9923     0.9923    -0.0000
 31 H      0.8356     1.0000     0.1644     0.9883     0.9883    -0.0000
 32 H      0.8382     1.0000     0.1618     0.9767     0.9767     0.0000
 33 H      0.8694     1.0000     0.1306     0.9913     0.9913    -0.0000
 34 H      0.7594     1.0000     0.2406     1.0107     1.0107    -0.0000
 35 H      0.8331     1.0000     0.1669     0.9883     0.9883    -0.0000

  Mayer bond orders larger than 0.100000
B(  0-C ,  1-C ) :   0.9577 B(  0-C , 20-H ) :   0.9666 B(  0-C , 21-H ) :   0.9767 
B(  0-C , 22-H ) :   0.9720 B(  1-C ,  2-O ) :   0.9021 B(  1-C , 23-H ) :   0.9852 
B(  1-C , 24-H ) :   0.9824 B(  2-O ,  3-C ) :   1.0756 B(  3-C ,  4-O ) :   2.0404 
B(  3-C ,  5-C ) :   1.0124 B(  5-C ,  6-C ) :   1.6731 B(  5-C , 12-C ) :   0.9478 
B(  6-C ,  7-C ) :   0.9539 B(  6-C ,  8-N ) :   1.1391 B(  7-C , 25-H ) :   0.9653 
B(  7-C , 26-H ) :   0.9648 B(  7-C , 27-H ) :   0.9900 B(  8-N ,  9-C ) :   1.1843 
B(  8-N , 28-H ) :   0.9470 B(  9-C , 10-S ) :   1.6123 B(  9-C , 11-N ) :   1.3024 
B( 11-N , 12-C ) :   0.9807 B( 11-N , 29-H ) :   0.9489 B( 12-C , 13-C ) :   0.9636 
B( 12-C , 30-H ) :   0.9960 B( 13-C , 14-C ) :   1.3834 B( 13-C , 19-C ) :   1.3622 
B( 14-C , 15-C ) :   1.3971 B( 14-C , 31-H ) :   0.9611 B( 15-C , 16-C ) :   1.3599 
B( 15-C , 32-H ) :   0.9709 B( 16-C , 17-C ) :   1.3318 B( 16-C , 33-H ) :   0.9850 
B( 17-C , 18-O ) :   1.1058 B( 17-C , 19-C ) :   1.3647 B( 18-O , 34-H ) :   0.9801 
B( 19-C , 35-H ) :   0.9601 

-------
TIMINGS
-------

Total SCF time: 0 days 1 hours 34 min 19 sec 

Total time                  ....    5659.965 sec
Sum of individual times     ....    5651.975 sec  ( 99.9%)

Fock matrix formation       ....    5629.632 sec  ( 99.5%)
Diagonalization             ....       4.421 sec  (  0.1%)
Density matrix formation    ....       0.192 sec  (  0.0%)
Population analysis         ....       1.244 sec  (  0.0%)
Initial guess               ....       4.832 sec  (  0.1%)
Orbital Transformation      ....       0.000 sec  (  0.0%)
Orbital Orthonormalization  ....       0.000 sec  (  0.0%)
DIIS solution               ....       4.713 sec  (  0.1%)
SOSCF solution              ....       5.852 sec  (  0.1%)

------------------------------------------------------------------------------
                                ORCA  MP2 
------------------------------------------------------------------------------

Freezing NCore=48 chemical core electrons

-------------
RI-MP2 ENERGY
-------------
Dimension of the basis                    ...  828
Memory devoted to MP2                     ...  256 MB   
Data format for buffers                   ... DOUBLE
Compression type for matrix containers    ... UNCOMPRESSED
Overall scaling of the MP2 energy         ...   1.000e+00
Calculating two index integrals           ... done (    0.034 sec)
Cholesky decomposition of V**-1           ... done (    2.290 sec)

-----------------
RI-TRANSFORMATION (AUX index driven)
-----------------

Dimension of the orbital-basis         ... 828
Dimension of the aux-basis             ... 2141
Transformation of internal/external MOs...   24-  76 to   77- 827
Number Format for Storage              ... Double (8 Byte)
Integral mode                          ... Direct

First Phase: integral generation and transformation of MO indices
  Aux angular momentum 0               ... done (   10.047 sec)
  Aux angular momentum 1               ... done (   18.940 sec)
  Aux angular momentum 2               ... done (   23.062 sec)
  Aux angular momentum 3               ... done (   19.177 sec)
  Aux angular momentum 4               ... done (    6.696 sec)
Closing buffer VIA ( 0.63 GB; CompressionRatio= 1.00)
  Phase 1 completed in    78.247 sec
Second Phase: sorting and transformation of aux index

IA-Transformation
Memory available                       ... 167 MB 
Max. # MO pairs treated in a batch     ... 12    
# of internal orbitals                 ... 53
# batches for internal orbitals        ... 5
Closing buffer IAV ( 0.63 GB; CompressionRatio= 1.00)
(ia|v) transformation done in    77.272 sec

  Phase 2 completed in    77.286 sec
RI-Integral transformation completed in   155.543 sec
Opening buffers                              ... done

Starting loop over batches of integrals:

Operator 0  - window                       ... ( 24- 76)x( 77-827)
Operator 0  - Memory available             ...   256 MB
Operator 0  - Memory needed per MO         ...  12.3 MB
Operator 0  - Number of orbitals per batch ... 13
Operator 0  - Number of batches            ... 5

OPERATOR  0   PASS   0:  MOs    24 ...   36
  Reading integrals       ... ok
  Internal MO  26
  Internal MO  29
  Internal MO  32
  Internal MO  35
OPERATOR  0   PASS   1:  MOs    37 ...   49
  Reading integrals       ... ok
  Internal MO  38
  Internal MO  41
  Internal MO  44
  Internal MO  47
OPERATOR  0   PASS   2:  MOs    50 ...   62
  Reading integrals       ... ok
  Internal MO  50
  Internal MO  53
  Internal MO  56
  Internal MO  59
  Internal MO  62
OPERATOR  0   PASS   3:  MOs    63 ...   75
  Reading integrals       ... ok
  Internal MO  65
  Internal MO  68
  Internal MO  71
  Internal MO  74
OPERATOR  0   PASS   4:  MOs    76 ...   76
  Reading integrals       ... ok
Time spent in pair loops =   444.448 sec
Deleting buffer (Ka|jb)[aa] ...done

-----------------------------------------------
 RI-MP2 CORRELATION ENERGY:     -3.532891170 Eh
-----------------------------------------------


-------
TIMINGS
-------

Total time                :  602.984 sec
Integral trafo            :  155.567 sec ( 25.8%)
I/O of integrals          :    5.947 sec (  1.0%)
K(i,j) Operators          :  377.165 sec ( 62.5%)
T(i,j) pair energies      :    3.671 sec (  0.6%)
V-calculation             :    0.034 sec (  0.0%)
V**(-1/2)                 :    2.290 sec (  0.4%)
Gamma(ia|P)               :    0.000 sec (  0.0%)
Gamma-Trafo               :    0.000 sec (  0.0%)
D(virtual)                :    0.000 sec (  0.0%)
D(internal)               :    0.000 sec (  0.0%)
W(virtual)                :    0.000 sec (  0.0%)
W(internal)               :    0.000 sec (  0.0%)
L(virtual)                :    0.000 sec (  0.0%)
L(internal)               :    0.000 sec (  0.0%)
G(D)                      :    0.000 sec (  0.0%)
G(Z)                      :    0.000 sec (  0.0%)
Z-Vector Solution         :    0.000 sec (  0.0%)
3-Index Derivative        :    0.000 sec (  0.0%)
2-Index Derivative        :    0.000 sec (  0.0%)
Separable Gradient        :    0.000 sec (  0.0%)


---------------------------------------
MP2 TOTAL ENERGY:    -1274.327902130 Eh
---------------------------------------

-------------------------   --------------------
FINAL SINGLE POINT ENERGY     -1274.327902129747
-------------------------   --------------------


                            ***************************************
                            *     ORCA property calculations      *
                            ***************************************


  WARNING: The energy has been calculated at the MP2 level but the densities
           used in the property calculations are still SCF densities
           MP2 response densities have not been calculated 
           use %mp2 Density relaxed end
           or  %mp2 Density unrelaxed end

                                    ---------------------
                                    Active property flags
                                    ---------------------
   (+) Dipole Moment


------------------------------------------------------------------------------
                       ORCA ELECTRIC PROPERTIES CALCULATION
------------------------------------------------------------------------------

Dipole Moment Calculation                       ... on
Quadrupole Moment Calculation                   ... off
Polarizability Calculation                      ... off
GBWName                                         ... CONFS/Conf597.orca.gbw
Electron density file                           ... CONFS/Conf597.orca.scfp
The origin for moment calculation is the CENTER OF MASS  = (31.807197, 32.970503 33.375198)

-------------
DIPOLE MOMENT
-------------
                                X             Y             Z
Electronic contribution:      9.24130       8.10487       7.15920
Nuclear contribution   :    -10.64915      -9.35077      -7.91050
                        -----------------------------------------
Total Dipole Moment    :     -1.40785      -1.24591      -0.75129
                        -----------------------------------------
Magnitude (a.u.)       :      2.02454
Magnitude (Debye)      :      5.14598



--------------------
Rotational spectrum 
--------------------
 
Rotational constants in cm-1:     0.011236     0.009346     0.006351 
Rotational constants in MHz :   336.833480   280.176743   190.393779 

 Dipole components along the rotational axes: 
x,y,z [a.u.] :    -1.346629    -1.204815     0.913120 
x,y,z [Debye]:    -3.422858    -3.062396     2.320966 

 

Timings for individual modules:

Sum of individual times         ...     6265.748 sec (= 104.429 min)
GTO integral calculation        ...        1.456 sec (=   0.024 min)   0.0 %
SCF iterations                  ...     5660.145 sec (=  94.336 min)  90.3 %
MP2 module                      ...      604.147 sec (=  10.069 min)   9.6 %
                             ****ORCA TERMINATED NORMALLY****
TOTAL RUN TIME: 0 days 1 hours 44 minutes 26 seconds 722 msec
