
                                 *****************
                                 * O   R   C   A *
                                 *****************

           --- An Ab Initio, DFT and Semiempirical electronic structure package ---

                  #######################################################
                  #                        -***-                        #
                  #          Department of theory and spectroscopy      #
                  #               Directorship: Frank Neese             #
                  #        Max Planck Institute fuer Kohlenforschung    #
                  #                Kaiser Wilhelm Platz 1               #
                  #                 D-45470 Muelheim/Ruhr               #
                  #                      Germany                        #
                  #                                                     #
                  #                  All rights reserved                #
                  #                        -***-                        #
                  #######################################################


                         Program Version 4.2.0 -  RELEASE  -


 With contributions from (in alphabetic order):
   Daniel Aravena         : Magnetic Suceptibility
   Michael Atanasov       : Ab Initio Ligand Field Theory (pilot matlab implementation)
   Alexander A. Auer      : GIAO ZORA, VPT2
   Ute Becker             : Parallelization
   Giovanni Bistoni       : ED, misc. LED, open-shell LED, HFLED
   Martin Brehm           : Molecular dynamics
   Dmytro Bykov           : SCF Hessian
   Vijay G. Chilkuri      : MRCI spin determinant printing, contributions to CSF-ICE
   Dipayan Datta          : RHF DLPNO-CCSD density
   Achintya Kumar Dutta   : EOM-CC, STEOM-CC
   Dmitry Ganyushin       : Spin-Orbit,Spin-Spin,Magnetic field MRCI
   Miquel Garcia          : C-PCM Hessian, Gaussian charge scheme
   Yang Guo               : DLPNO-NEVPT2, CIM, IAO-localization
   Andreas Hansen         : Spin unrestricted coupled pair/coupled cluster methods
   Benjamin Helmich-Paris : CASSCF linear response (MC-RPA)
   Lee Huntington         : MR-EOM, pCC
   Robert Izsak           : Overlap fitted RIJCOSX, COSX-SCS-MP3, EOM
   Christian Kollmar      : KDIIS, OOCD, Brueckner-CCSD(T), CCSD density
   Simone Kossmann        : Meta GGA functionals, TD-DFT gradient, OOMP2, MP2 Hessian
   Martin Krupicka        : AUTO-CI
   Lucas Lang             : DCDCAS
   Dagmar Lenk            : GEPOL surface, SMD
   Dimitrios Liakos       : Extrapolation schemes; Compound Job, initial MDCI parallelization
   Dimitrios Manganas     : Further ROCIS development; embedding schemes
   Dimitrios Pantazis     : SARC Basis sets
   Taras Petrenko         : DFT Hessian,TD-DFT gradient, ASA, ECA, R-Raman, ABS, FL, XAS/XES, NRVS
   Peter Pinski           : DLPNO-MP2, DLPNO-MP2 Gradient
   Christoph Reimann      : Effective Core Potentials
   Marius Retegan         : Local ZFS, SOC
   Christoph Riplinger    : Optimizer, TS searches, QM/MM, DLPNO-CCSD(T), (RO)-DLPNO pert. Triples
   Tobias Risthaus        : Range-separated hybrids, TD-DFT gradient, RPA, STAB
   Michael Roemelt        : Original ROCIS implementation
   Masaaki Saitow         : Open-shell DLPNO-CCSD energy and density
   Barbara Sandhoefer     : DKH picture change effects
   Avijit Sen             : IP-ROCIS
   Kantharuban Sivalingam : CASSCF convergence, NEVPT2, FIC-MRCI
   Bernardo de Souza      : ESD, SOC TD-DFT
   Georgi Stoychev        : AutoAux, RI-MP2 NMR
   Willem Van den Heuvel  : Paramagnetic NMR
   Boris Wezisla          : Elementary symmetry handling
   Frank Wennmohs         : Technical directorship


 We gratefully acknowledge several colleagues who have allowed us to
 interface, adapt or use parts of their codes:
   Stefan Grimme, W. Hujo, H. Kruse,             : VdW corrections, initial TS optimization,
                  C. Bannwarth                     DFT functionals, gCP, sTDA/sTD-DF
   Ed Valeev, F. Pavosevic, A. Kumar             : LibInt (2-el integral package), F12 methods
   Garnet Chan, S. Sharma, J. Yang, R. Olivares  : DMRG
   Ulf Ekstrom                                   : XCFun DFT Library
   Mihaly Kallay                                 : mrcc  (arbitrary order and MRCC methods)
   Andreas Klamt, Michael Diedenhofen            : otool_cosmo (COSMO solvation model)
   Jiri Pittner, Ondrej Demel                    : Mk-CCSD
   Frank Weinhold                                : gennbo (NPA and NBO analysis)
   Christopher J. Cramer and Donald G. Truhlar   : smd solvation model
   Lars Goerigk                                  : TD-DFT with DH, B97 family of functionals
   V. Asgeirsson, H. Jonsson                     : NEB implementation
   FAccTs GmbH                                   : IRC, NEB, NEB-TS, Multilevel, MM, QM/MM, CI optimization
   S Lehtola, MJT Oliveira, MAL Marques          : LibXC Library


 Your calculation uses the libint2 library for the computation of 2-el integrals
 For citations please refer to: http://libint.valeyev.net

 Your ORCA version has been built with support for libXC version: 4.2.3
 For citations please refer to: https://tddft.org/programs/libxc/

 This ORCA versions uses:
   CBLAS   interface :  Fast vector & matrix operations
   LAPACKE interface :  Fast linear algebra routines
   SCALAPACK package :  Parallel linear algebra routines


----- Orbital basis set information -----
Your calculation utilizes the basis: cc-pVTZ 
       H, B-Ne : Obtained from the ccRepo (grant-hill.group.shef.ac.uk/ccrepo) Feb. 2017
                 T. H. Dunning, Jr., J. Chem. Phys. 90, 1007 (1989)
            He : Obtained from the ccRepo (grant-hill.group.shef.ac.uk/ccrepo) Feb. 2017
                 D. E. Woon, T. H. Dunning, Jr., J. Chem. Phys. 100, 2975 (1994)
  Li-Be, Na-Mg : Obtained from the ccRepo (grant-hill.group.shef.ac.uk/ccrepo) Feb. 2017
                 B. P. Prascher, D. E. Woon, K. A. Peterson, T. H. Dunning, Jr., A. K. Wilson, Theor. Chem. Acc. 128, 69 (2011)
         Al-Ar : Obtained from the ccRepo (grant-hill.group.shef.ac.uk/ccrepo) Feb. 2017
                 D. E. Woon, T. H. Dunning, Jr., J. Chem. Phys. 98, 1358 (1993)
            Ca : Obtained from the Peterson Research Group Website (tyr0.chem.wsu.edu/~kipeters) Feb. 2017
                 J. Koput, K. A. Peterson, J. Phys. Chem. 106, 9595 (2002)
         Sc-Zn : Obtained from the ccRepo (grant-hill.group.shef.ac.uk/ccrepo) Feb. 2017
                 N. B. Balabanov, K. A. Peterson, J. Chem. Phys. 123, 064107 (2005)
                 N. B. Balabanov, K. A. Peterson, J. Chem. Phys. 125, 074110 (2006)
         Ga-Kr : Obtained from the ccRepo (grant-hill.group.shef.ac.uk/ccrepo) Feb. 2017
                 A. K. Wilson, D. E. Woon, K. A. Peterson, T. H. Dunning, Jr., J. Chem. Phys. 110, 7667 (1999)
             Y : Obtained from the ccRepo (grant-hill.group.shef.ac.uk/ccrepo) Feb. 2017
                 K. A. Peterson, D. Figgen, M. Dolg, H. Stoll, J. Chem. Phys. 126, 124101 (2007)
        Ag, Au : Obtained from the Peterson Research Group Website (tyr0.chem.wsu.edu/~kipeters) Feb. 2017
                 K. A. Peterson, C. Puzzarini, Theor. Chem. Acc. 114, 283 (2005)

----- AuxC basis set information -----
Your calculation utilizes the auxiliary basis: cc-pVTZ/C 
  Obtained from the EMSL Basis Set Exchange (bse.pnl.gov) Feb. 2017
  H-He, B-F, Al-Ar, Ga-Kr : F. Weigend, A. Kohn, C. Hattig, J. Chem. Phys. 116, 3175 (2002)
             Li-Be, Na-Mg : C. Haettig, Phys. Chem. Chem. Phys. 7, 59 (2005)
                       Ne : C. Haettig, Phys. Chem. Chem. Phys. 7, 59 (2005)
                            F. Weigend, A. Kohn, C. Hattig, J. Chem. Phys. 116, 3175 (2002)
                    Sc-Zn : J. G. Hill, J. A. Platts, J. Chem. Phys. 128, 044104 (2008)

================================================================================
                                        WARNINGS
                       Please study these warnings very carefully!
================================================================================


WARNING: No MP2 level density has been requested!
         To caclulate MP2 level properties use
         %mp2 Density relaxed end
         or
         %mp2 Density unrelaxed end

WARNING: Post HF methods need fully converged wavefunctions
  ===> : Setting SCFConvForced true
         You can overwrite this default with %scf ConvForced false 


INFO   : the flag for use of LIBINT has been found!

================================================================================
                                       INPUT FILE
================================================================================
NAME = CONFS/Conf554.orca
|  1> ! ri-mp2 cc-pvtz cc-pvtz/c TightSCF NoKeepInts
|  2> 
|  3> %scf
|  4>   MaxCore 4096
|  5> end
|  6> *xyz  0  1
|  7>     C       14.4863260   15.0217136   14.7413347
|  8>     C       15.7147012   14.8076232   15.6508864
|  9>     O       16.6432106   15.9204470   15.7081202
| 10>     C       16.3255390   17.2404437   15.5159385
| 11>     O       15.6182765   17.6338896   14.6054361
| 12>     C       16.9189717   18.1257753   16.5808778
| 13>     C       16.9468799   19.4757024   16.4322473
| 14>     C       16.2148083   20.3001047   15.3932706
| 15>     N       17.7156177   20.2778299   17.2788742
| 16>     C       18.6264560   19.8011458   18.1820830
| 17>     S       19.5704802   20.8104965   19.0908339
| 18>     N       18.7316082   18.4371210   18.2810036
| 19>     C       17.8660608   17.4598358   17.5946900
| 20>     C       17.1733941   16.5112138   18.5647465
| 21>     C       17.6098794   15.1799825   18.6965578
| 22>     C       16.9658695   14.3026848   19.5852379
| 23>     C       15.8796952   14.7619611   20.3499528
| 24>     C       15.4473985   16.0896310   20.2247107
| 25>     O       14.4000763   16.5359421   20.9627299
| 26>     C       16.0897269   16.9599844   19.3385377
| 27>     H       13.8409824   15.8213270   15.1260045
| 28>     H       13.8860396   14.1054030   14.6924943
| 29>     H       14.7951904   15.2768503   13.7196578
| 30>     H       15.3497331   14.6085317   16.6672743
| 31>     H       16.2565585   13.9118277   15.3217606
| 32>     H       15.1425551   20.0657737   15.4000719
| 33>     H       16.5922068   20.0774053   14.3870271
| 34>     H       16.3133388   21.3803157   15.5524667
| 35>     H       17.6642124   21.2809178   17.2004907
| 36>     H       19.3893331   18.1155292   18.9797900
| 37>     H       18.6127544   16.9211237   16.9940366
| 38>     H       18.4472014   14.8234598   18.1023501
| 39>     H       17.3095474   13.2740497   19.6808405
| 40>     H       15.3799138   14.0888385   21.0388888
| 41>     H       14.1171700   15.8094454   21.5381854
| 42>     H       15.7452868   17.9856736   19.2585910
| 43> *
| 44> 
| 45>                          ****END OF INPUT****
================================================================================

                       ****************************
                       * Single Point Calculation *
                       ****************************

---------------------------------
CARTESIAN COORDINATES (ANGSTROEM)
---------------------------------
  C     14.486326   15.021714   14.741335
  C     15.714701   14.807623   15.650886
  O     16.643211   15.920447   15.708120
  C     16.325539   17.240444   15.515939
  O     15.618277   17.633890   14.605436
  C     16.918972   18.125775   16.580878
  C     16.946880   19.475702   16.432247
  C     16.214808   20.300105   15.393271
  N     17.715618   20.277830   17.278874
  C     18.626456   19.801146   18.182083
  S     19.570480   20.810496   19.090834
  N     18.731608   18.437121   18.281004
  C     17.866061   17.459836   17.594690
  C     17.173394   16.511214   18.564746
  C     17.609879   15.179982   18.696558
  C     16.965870   14.302685   19.585238
  C     15.879695   14.761961   20.349953
  C     15.447399   16.089631   20.224711
  O     14.400076   16.535942   20.962730
  C     16.089727   16.959984   19.338538
  H     13.840982   15.821327   15.126004
  H     13.886040   14.105403   14.692494
  H     14.795190   15.276850   13.719658
  H     15.349733   14.608532   16.667274
  H     16.256559   13.911828   15.321761
  H     15.142555   20.065774   15.400072
  H     16.592207   20.077405   14.387027
  H     16.313339   21.380316   15.552467
  H     17.664212   21.280918   17.200491
  H     19.389333   18.115529   18.979790
  H     18.612754   16.921124   16.994037
  H     18.447201   14.823460   18.102350
  H     17.309547   13.274050   19.680840
  H     15.379914   14.088838   21.038889
  H     14.117170   15.809445   21.538185
  H     15.745287   17.985674   19.258591

----------------------------
CARTESIAN COORDINATES (A.U.)
----------------------------
  NO LB      ZA    FRAG     MASS         X           Y           Z
   0 C     6.0000    0    12.011   27.375189   28.386925   27.857085
   1 C     6.0000    0    12.011   29.696482   27.982353   29.575889
   2 O     8.0000    0    15.999   31.451110   30.085285   29.684045
   3 C     6.0000    0    12.011   30.850798   32.579717   29.320874
   4 O     8.0000    0    15.999   29.514265   33.323222   27.600274
   5 C     6.0000    0    12.011   31.972223   34.252751   31.333318
   6 C     6.0000    0    12.011   32.024962   36.803744   31.052447
   7 C     6.0000    0    12.011   30.641547   38.361638   29.089066
   8 N     7.0000    0    14.007   33.477666   38.319545   32.652340
   9 C     6.0000    0    12.011   35.198901   37.418743   34.359157
  10 S    16.0000    0    32.060   36.982848   39.326139   36.076448
  11 N     7.0000    0    14.007   35.397610   34.841109   34.546090
  12 C     6.0000    0    12.011   33.761962   32.994308   33.249146
  13 C     6.0000    0    12.011   32.453012   31.201672   35.082287
  14 C     6.0000    0    12.011   33.277849   28.686010   35.331374
  15 C     6.0000    0    12.011   32.060847   27.028157   37.010736
  16 C     6.0000    0    12.011   30.008275   27.896064   38.455838
  17 C     6.0000    0    12.011   29.191353   30.404996   38.219164
  18 O     8.0000    0    15.999   27.212201   31.248402   39.613819
  19 C     6.0000    0    12.011   30.405177   32.049726   36.544540
  20 H     1.0000    0     1.008   26.155666   29.897975   28.584006
  21 H     1.0000    0     1.008   26.240812   26.655349   27.764790
  22 H     1.0000    0     1.008   27.958858   28.869063   25.926396
  23 H     1.0000    0     1.008   29.006792   27.606124   31.496584
  24 H     1.0000    0     1.008   30.720443   26.289544   28.953931
  25 H     1.0000    0     1.008   28.615282   37.918817   29.101918
  26 H     1.0000    0     1.008   31.354727   37.940797   27.187541
  27 H     1.0000    0     1.008   30.827743   40.402941   29.389903
  28 H     1.0000    0     1.008   33.380524   40.215107   32.504217
  29 H     1.0000    0     1.008   36.640529   34.233389   35.866605
  30 H     1.0000    0     1.008   35.173008   31.976290   32.114075
  31 H     1.0000    0     1.008   34.860159   28.012279   34.208484
  32 H     1.0000    0     1.008   32.710304   25.084319   37.191399
  33 H     1.0000    0     1.008   29.063825   26.624046   39.757738
  34 H     1.0000    0     1.008   26.677585   29.875522   40.701272
  35 H     1.0000    0     1.008   29.754280   33.987997   36.393463

--------------------------------
INTERNAL COORDINATES (ANGSTROEM)
--------------------------------
 C      0   0   0     0.000000000000     0.00000000     0.00000000
 C      1   0   0     1.543380907722     0.00000000     0.00000000
 O      2   1   0     1.450442078677   115.23471728     0.00000000
 C      3   2   1     1.371218559994   125.78425970    27.68394745
 O      4   3   2     1.218209563474   123.37806302   314.52927318
 C      4   3   2     1.506675188643   112.04565544   132.85198253
 C      6   4   3     1.358371476612   120.97788190   166.91412834
 C      7   6   4     1.514939128452   127.29448895    11.99011487
 N      7   6   4     1.396833361289   121.04194302   192.49616982
 C      9   7   6     1.368444473239   124.49403683     9.36075447
 S     10   9   7     1.654025007074   122.00186819   176.22478554
 N     10   9   7     1.371643512464   116.42533413   357.19578457
 C     12  10   9     1.474884748491   125.47791421   353.97157561
 C     13  12  10     1.523377979808   112.52847000   237.15701681
 C     14  13  12     1.407149746837   120.51213030   254.94412415
 C     15  14  13     1.405045310963   120.51562868   180.39139285
 C     16  15  14     1.405524175532   119.62412953   359.82943213
 C     17  16  15     1.401882086272   119.94470743   359.86692257
 O     18  17  16     1.356742321948   120.06542619   180.06956350
 C     18  17  16     1.398357393611   120.29356816     0.18816460
 H      1   2   3     1.097187680642   111.26059258   294.60878178
 H      1   2   3     1.096519157320   110.24554060   175.29291963
 H      1   2   3     1.097413158873   110.90986055    55.88160387
 H      2   1   3     1.098127270701   107.82350623   121.17889484
 H      2   1   3     1.097443713185   109.23591988   237.21440769
 H      8   7   6     1.097581067691   110.58842297    53.21111552
 H      8   7   6     1.097520219338   110.62165365   294.40723343
 H      8   7   6     1.096315402704   113.15185989   173.60782423
 H      9   7   6     1.007458094943   119.76990462   184.98774439
 H     12  10   9     1.012089799737   114.55701109   182.05238542
 H     13  12  10     1.099339149625   100.38993242   119.57245777
 H     15  14  13     1.086875962582   119.87337709   359.97135808
 H     16  15  14     1.088735286939   120.05131392   179.96758239
 H     17  16  15     1.085130542614   119.91117830   180.09725437
 H     19  18  17     0.969011074328   107.56445639     2.60235144
 H     20  18  17     1.084928012508   119.29413394   180.33921293

---------------------------
INTERNAL COORDINATES (A.U.)
---------------------------
 C      0   0   0     0.000000000000     0.00000000     0.00000000
 C      1   0   0     2.916567235917     0.00000000     0.00000000
 O      2   1   0     2.740938301815   115.23471728     0.00000000
 C      3   2   1     2.591227548139   125.78425970    27.68394745
 O      4   3   2     2.302082448689   123.37806302   314.52927318
 C      4   3   2     2.847203479309   112.04565544   132.85198253
 C      6   4   3     2.566950078926   120.97788190   166.91412834
 C      7   6   4     2.862820062336   127.29448895    11.99011487
 N      7   6   4     2.639632507560   121.04194302   192.49616982
 C      9   7   6     2.585985283899   124.49403683     9.36075447
 S     10   9   7     3.125654282027   122.00186819   176.22478554
 N     10   9   7     2.592030591927   116.42533413   357.19578457
 C     12  10   9     2.787128253745   125.47791421   353.97157561
 C     13  12  10     2.878767180284   112.52847000   237.15701681
 C     14  13  12     2.659127650939   120.51213030   254.94412415
 C     15  14  13     2.655150843470   120.51562868   180.39139285
 C     16  15  14     2.656055766360   119.62412953   359.82943213
 C     17  16  15     2.649173215104   119.94470743   359.86692257
 O     18  17  16     2.563871422782   120.06542619   180.06956350
 C     18  17  16     2.642512511269   120.29356816     0.18816460
 H      1   2   3     2.073384233926   111.26059258   294.60878178
 H      1   2   3     2.072120907933   110.24554060   175.29291963
 H      1   2   3     2.073810326032   110.90986055    55.88160387
 H      2   1   3     2.075159801814   107.82350623   121.17889484
 H      2   1   3     2.073868065313   109.23591988   237.21440769
 H      8   7   6     2.074127627712   110.58842297    53.21111552
 H      8   7   6     2.074012640989   110.62165365   294.40723343
 H      8   7   6     2.071735867511   113.15185989   173.60782423
 H      9   7   6     1.903819890845   119.76990462   184.98774439
 H     12  10   9     1.912572544439   114.55701109   182.05238542
 H     13  12  10     2.077449921090   100.38993242   119.57245777
 H     15  14  13     2.053897910822   119.87337709   359.97135808
 H     16  15  14     2.057411524652   120.05131392   179.96758239
 H     17  16  15     2.050599545093   119.91117830   180.09725437
 H     19  18  17     1.831165551217   107.56445639     2.60235144
 H     20  18  17     2.050216818660   119.29413394   180.33921293

---------------------
BASIS SET INFORMATION
---------------------
There are 5 groups of distinct atoms

 Group   1 Type C   : 18s5p2d1f contracted to 4s3p2d1f pattern {8811/311/11/1}
 Group   2 Type O   : 18s5p2d1f contracted to 4s3p2d1f pattern {8811/311/11/1}
 Group   3 Type N   : 18s5p2d1f contracted to 4s3p2d1f pattern {8811/311/11/1}
 Group   4 Type S   : 41s16p2d1f contracted to 5s4p2d1f pattern {13131311/7711/11/1}
 Group   5 Type H   : 5s2p1d contracted to 3s2p1d pattern {311/11/1}

Atom   0C    basis set group =>   1
Atom   1C    basis set group =>   1
Atom   2O    basis set group =>   2
Atom   3C    basis set group =>   1
Atom   4O    basis set group =>   2
Atom   5C    basis set group =>   1
Atom   6C    basis set group =>   1
Atom   7C    basis set group =>   1
Atom   8N    basis set group =>   3
Atom   9C    basis set group =>   1
Atom  10S    basis set group =>   4
Atom  11N    basis set group =>   3
Atom  12C    basis set group =>   1
Atom  13C    basis set group =>   1
Atom  14C    basis set group =>   1
Atom  15C    basis set group =>   1
Atom  16C    basis set group =>   1
Atom  17C    basis set group =>   1
Atom  18O    basis set group =>   2
Atom  19C    basis set group =>   1
Atom  20H    basis set group =>   5
Atom  21H    basis set group =>   5
Atom  22H    basis set group =>   5
Atom  23H    basis set group =>   5
Atom  24H    basis set group =>   5
Atom  25H    basis set group =>   5
Atom  26H    basis set group =>   5
Atom  27H    basis set group =>   5
Atom  28H    basis set group =>   5
Atom  29H    basis set group =>   5
Atom  30H    basis set group =>   5
Atom  31H    basis set group =>   5
Atom  32H    basis set group =>   5
Atom  33H    basis set group =>   5
Atom  34H    basis set group =>   5
Atom  35H    basis set group =>   5
---------------------------------
AUXILIARY/C BASIS SET INFORMATION
---------------------------------
There are 5 groups of distinct atoms

 Group   1 Type C   : 8s6p5d3f1g contracted to 8s6p5d3f1g pattern {11111111/111111/11111/111/1}
 Group   2 Type O   : 8s6p5d3f1g contracted to 8s6p5d3f1g pattern {11111111/111111/11111/111/1}
 Group   3 Type N   : 8s6p5d3f1g contracted to 8s6p5d3f1g pattern {11111111/111111/11111/111/1}
 Group   4 Type S   : 10s8p7d5f2g contracted to 10s8p7d5f2g pattern {1111111111/11111111/1111111/11111/11}
 Group   5 Type H   : 4s3p2d1f contracted to 4s3p2d1f pattern {1111/111/11/1}

Atom   0C    basis set group =>   1
Atom   1C    basis set group =>   1
Atom   2O    basis set group =>   2
Atom   3C    basis set group =>   1
Atom   4O    basis set group =>   2
Atom   5C    basis set group =>   1
Atom   6C    basis set group =>   1
Atom   7C    basis set group =>   1
Atom   8N    basis set group =>   3
Atom   9C    basis set group =>   1
Atom  10S    basis set group =>   4
Atom  11N    basis set group =>   3
Atom  12C    basis set group =>   1
Atom  13C    basis set group =>   1
Atom  14C    basis set group =>   1
Atom  15C    basis set group =>   1
Atom  16C    basis set group =>   1
Atom  17C    basis set group =>   1
Atom  18O    basis set group =>   2
Atom  19C    basis set group =>   1
Atom  20H    basis set group =>   5
Atom  21H    basis set group =>   5
Atom  22H    basis set group =>   5
Atom  23H    basis set group =>   5
Atom  24H    basis set group =>   5
Atom  25H    basis set group =>   5
Atom  26H    basis set group =>   5
Atom  27H    basis set group =>   5
Atom  28H    basis set group =>   5
Atom  29H    basis set group =>   5
Atom  30H    basis set group =>   5
Atom  31H    basis set group =>   5
Atom  32H    basis set group =>   5
Atom  33H    basis set group =>   5
Atom  34H    basis set group =>   5
Atom  35H    basis set group =>   5
------------------------------------------------------------------------------
                           ORCA GTO INTEGRAL CALCULATION
------------------------------------------------------------------------------

                         BASIS SET STATISTICS AND STARTUP INFO

 # of primitive gaussian shells          ...  682
 # of primitive gaussian functions       ... 1312
 # of contracted shells                  ...  298
 # of contracted basis functions         ...  828
 Highest angular momentum                ...    3
 Maximum contraction depth               ...   13
 Integral package used                   ... LIBINT
 Integral threshhold            Thresh   ...  2.500e-11
 Primitive cut-off              TCut     ...  2.500e-12


------------------------------ INTEGRAL EVALUATION ----------------------------


 * One electron integrals 
 Pre-screening matrix                    ... done
 Shell pair data                         ... done (   0.012 sec)

-------------------------------------------------------------------------------
                                 ORCA SCF
-------------------------------------------------------------------------------

------------
SCF SETTINGS
------------
Hamiltonian:
 Ab initio Hamiltonian  Method          .... Hartree-Fock(GTOs)


General Settings:
 Integral files         IntName         .... CONFS/Conf554.orca
 Hartree-Fock type      HFTyp           .... RHF
 Total Charge           Charge          ....    0
 Multiplicity           Mult            ....    1
 Number of Electrons    NEL             ....  154
 Basis Dimension        Dim             ....  828
 Nuclear Repulsion      ENuc            ....   1696.5795408250 Eh

Convergence Acceleration:
 DIIS                   CNVDIIS         .... on
   Start iteration      DIISMaxIt       ....    12
   Startup error        DIISStart       ....  0.200000
   # of expansion vecs  DIISMaxEq       ....     5
   Bias factor          DIISBfac        ....   1.050
   Max. coefficient     DIISMaxC        ....  10.000
 Newton-Raphson         CNVNR           .... off
 SOSCF                  CNVSOSCF        .... on
   Start iteration      SOSCFMaxIt      ....   150
   Startup grad/error   SOSCFStart      ....  0.003300
 Level Shifting         CNVShift        .... on
   Level shift para.    LevelShift      ....    0.2500
   Turn off err/grad.   ShiftErr        ....    0.0010
 Zerner damping         CNVZerner       .... off
 Static damping         CNVDamp         .... on
   Fraction old density DampFac         ....    0.7000
   Max. Damping (<1)    DampMax         ....    0.9800
   Min. Damping (>=0)   DampMin         ....    0.0000
   Turn off err/grad.   DampErr         ....    0.1000
 Fernandez-Rico         CNVRico         .... off

SCF Procedure:
 Maximum # iterations   MaxIter         ....   125
 SCF integral mode      SCFMode         .... Direct
   Integral package                     .... LIBINT
 Reset frequency        DirectResetFreq ....    20
 Integral Threshold     Thresh          ....  2.500e-11 Eh
 Primitive CutOff       TCut            ....  2.500e-12 Eh

Convergence Tolerance:
 Convergence Check Mode ConvCheckMode   .... Total+1el-Energy
 Convergence forced     ConvForced      .... 1
 Energy Change          TolE            ....  1.000e-08 Eh
 1-El. energy change                    ....  1.000e-05 Eh
 Orbital Gradient       TolG            ....  1.000e-05
 Orbital Rotation angle TolX            ....  1.000e-05
 DIIS Error             TolErr          ....  5.000e-07


Diagonalization of the overlap matrix:
Smallest eigenvalue                        ... 3.453e-05
Time for diagonalization                   ...    0.345 sec
Threshold for overlap eigenvalues          ... 1.000e-08
Number of eigenvalues below threshold      ... 0
Time for construction of square roots      ...    0.319 sec
Total time needed                          ...    0.665 sec

-------------------
DFT GRID GENERATION
-------------------

General Integration Accuracy     IntAcc      ...  4.340
Radial Grid Type                 RadialGrid  ... Gauss-Chebyshev
Angular Grid (max. acc.)         AngularGrid ... Lebedev-110
Angular grid pruning method      GridPruning ... 3 (G Style)
Weight generation scheme         WeightScheme... Becke
Basis function cutoff            BFCut       ...    1.0000e-11
Integration weight cutoff        WCut        ...    1.0000e-14
Grids for H and He will be reduced by one unit

# of grid points (after initial pruning)     ...  46246 (   0.0 sec)
# of grid points (after weights+screening)   ...  41346 (   0.3 sec)
nearest neighbour list constructed           ...    0.0 sec
Grid point re-assignment to atoms done       ...    0.0 sec
Grid point division into batches done        ...    0.0 sec
Reduced shell lists constructed in    0.8 sec

Total number of grid points                  ...    41346
Total number of batches                      ...      666
Average number of points per batch           ...       62
Average number of grid points per atom       ...     1148
Average number of shells per batch           ...   147.03 (49.34%)
Average number of basis functions per batch  ...   373.93 (45.16%)
Average number of large shells per batch     ...    94.26 (64.11%)
Average number of large basis fcns per batch ...   242.64 (64.89%)
Maximum spatial batch extension              ...  28.36, 25.60, 20.52 au
Average spatial batch extension              ...   3.54,  3.36,  3.42 au

Time for grid setup =    1.118 sec

------------------------------
INITIAL GUESS: MODEL POTENTIAL
------------------------------
Loading Hartree-Fock densities                     ... done
Calculating cut-offs                               ... done
Setting up the integral package                    ... done
Initializing the effective Hamiltonian             ... done
Starting the Coulomb interaction                   ... done (   3.5 sec)
Reading the grid                                   ... done
Mapping shells                                     ... done
Starting the XC term evaluation                    ... done (   1.0 sec)
Transforming the Hamiltonian                       ... done (   0.2 sec)
Diagonalizing the Hamiltonian                      ... done (   0.3 sec)
Back transforming the eigenvectors                 ... done (   0.1 sec)
Now organizing SCF variables                       ... done
                      ------------------
                      INITIAL GUESS DONE (   6.4 sec)
                      ------------------
--------------
SCF ITERATIONS
--------------
ITER       Energy         Delta-E        Max-DP      RMS-DP      [F,P]     Damp
               ***  Starting incremental Fock matrix formation  ***
  0  -1270.0036083591   0.000000000000 0.04931680  0.00042061  0.3064617 0.7000
  1  -1270.2705050742  -0.266896715129 0.03607783  0.00033676  0.1808498 0.7000
                               ***Turning on DIIS***
  2  -1270.4371496247  -0.166644550411 0.02583277  0.00022810  0.1096076 0.7000
  3  -1272.5776097671  -2.140460142482 0.06311643  0.00050380  0.0828416 0.0000
  4  -1270.7437833971   1.833826370052 0.00684036  0.00009190  0.0070232 0.0000
  5  -1270.8033879392  -0.059604542112 0.00312160  0.00004797  0.0050379 0.0000
                      *** Initiating the SOSCF procedure ***
                           *** Shutting down DIIS ***
                      *** Re-Reading the Fockian *** 
                      *** Removing any level shift *** 
ITER      Energy       Delta-E        Grad      Rot      Max-DP    RMS-DP
  6  -1270.78420432   0.0191836181  0.001710  0.001710  0.001704  0.000025
               *** Restarting incremental Fock matrix formation ***
  7  -1270.79931198  -0.0151076592  0.001010  0.002574  0.001247  0.000015
  8  -1270.79935725  -0.0000452672  0.000437  0.002904  0.001390  0.000016
  9  -1270.79937428  -0.0000170366  0.000160  0.000319  0.000351  0.000004
 10  -1270.79937644  -0.0000021519  0.000045  0.000127  0.000118  0.000001
 11  -1270.79937665  -0.0000002178  0.000026  0.000131  0.000069  0.000001
 12  -1270.79937672  -0.0000000674  0.000010  0.000043  0.000034  0.000000
 13  -1270.79937672  -0.0000000006  0.000003  0.000012  0.000006  0.000000
                  ***Gradient check signals convergence***
              ***Rediagonalizing the Fockian in SOSCF/NRSCF***

               *****************************************************
               *                     SUCCESS                       *
               *           SCF CONVERGED AFTER  14 CYCLES          *
               *****************************************************


----------------
TOTAL SCF ENERGY
----------------

Total Energy       :        -1270.79937671 Eh          -34580.20906 eV

Components:
Nuclear Repulsion  :         1696.57954082 Eh           46166.27635 eV
Electronic Energy  :        -2967.37891753 Eh          -80746.48542 eV
One Electron Energy:        -5114.45005257 Eh         -139171.26126 eV
Two Electron Energy:         2147.07113503 Eh           58424.77584 eV

Virial components:
Potential Energy   :        -2539.72689933 Eh          -69109.48239 eV
Kinetic Energy     :         1268.92752262 Eh           34529.27332 eV
Virial Ratio       :            2.00147515


---------------
SCF CONVERGENCE
---------------

  Last Energy change         ...    1.3229e-08  Tolerance :   1.0000e-08
  Last MAX-Density change    ...    1.7332e-06  Tolerance :   1.0000e-07
  Last RMS-Density change    ...    2.9317e-08  Tolerance :   5.0000e-09
  Last Orbital Gradient      ...    1.2222e-06  Tolerance :   1.0000e-05
  Last Orbital Rotation      ...    2.8460e-06  Tolerance :   1.0000e-05

             **** THE GBW FILE WAS UPDATED (CONFS/Conf554.orca.gbw) ****
             **** DENSITY FILE WAS UPDATED (CONFS/Conf554.orca.scfp) ****
             **** ENERGY FILE WAS UPDATED (CONFS/Conf554.orca.en.tmp) ****
             **** THE GBW FILE WAS UPDATED (CONFS/Conf554.orca.gbw) ****
             **** DENSITY FILE WAS UPDATED (CONFS/Conf554.orca.scfp) ****
----------------
ORBITAL ENERGIES
----------------

  NO   OCC          E(Eh)            E(eV) 
   0   2.0000     -91.888739     -2500.4197 
   1   2.0000     -20.598939      -560.5256 
   2   2.0000     -20.590103      -560.2852 
   3   2.0000     -20.541783      -558.9703 
   4   2.0000     -15.629018      -425.2872 
   5   2.0000     -15.606796      -424.6825 
   6   2.0000     -11.395850      -310.0968 
   7   2.0000     -11.383335      -309.7563 
   8   2.0000     -11.336830      -308.4908 
   9   2.0000     -11.316412      -307.9352 
  10   2.0000     -11.307204      -307.6847 
  11   2.0000     -11.300660      -307.5066 
  12   2.0000     -11.262819      -306.4769 
  13   2.0000     -11.257702      -306.3377 
  14   2.0000     -11.257618      -306.3354 
  15   2.0000     -11.251468      -306.1680 
  16   2.0000     -11.245997      -306.0191 
  17   2.0000     -11.241075      -305.8852 
  18   2.0000     -11.240688      -305.8747 
  19   2.0000     -11.221277      -305.3465 
  20   2.0000      -8.893813      -242.0130 
  21   2.0000      -6.575387      -178.9254 
  22   2.0000      -6.573388      -178.8710 
  23   2.0000      -6.572798      -178.8549 
  24   2.0000      -1.441432       -39.2234 
  25   2.0000      -1.418600       -38.6021 
  26   2.0000      -1.352460       -36.8023 
  27   2.0000      -1.340161       -36.4676 
  28   2.0000      -1.238142       -33.6916 
  29   2.0000      -1.159486       -31.5512 
  30   2.0000      -1.120476       -30.4897 
  31   2.0000      -1.043890       -28.4057 
  32   2.0000      -1.033926       -28.1346 
  33   2.0000      -1.017370       -27.6841 
  34   2.0000      -0.996128       -27.1060 
  35   2.0000      -0.984190       -26.7812 
  36   2.0000      -0.922233       -25.0952 
  37   2.0000      -0.894297       -24.3351 
  38   2.0000      -0.847161       -23.0524 
  39   2.0000      -0.839749       -22.8507 
  40   2.0000      -0.836253       -22.7556 
  41   2.0000      -0.819786       -22.3075 
  42   2.0000      -0.745514       -20.2865 
  43   2.0000      -0.733282       -19.9536 
  44   2.0000      -0.716827       -19.5059 
  45   2.0000      -0.697135       -18.9700 
  46   2.0000      -0.687656       -18.7121 
  47   2.0000      -0.676059       -18.3965 
  48   2.0000      -0.667841       -18.1729 
  49   2.0000      -0.663203       -18.0467 
  50   2.0000      -0.648520       -17.6471 
  51   2.0000      -0.644287       -17.5319 
  52   2.0000      -0.635446       -17.2914 
  53   2.0000      -0.609196       -16.5771 
  54   2.0000      -0.606165       -16.4946 
  55   2.0000      -0.601807       -16.3760 
  56   2.0000      -0.600187       -16.3319 
  57   2.0000      -0.578874       -15.7520 
  58   2.0000      -0.571251       -15.5445 
  59   2.0000      -0.568142       -15.4599 
  60   2.0000      -0.560121       -15.2417 
  61   2.0000      -0.540547       -14.7090 
  62   2.0000      -0.534768       -14.5518 
  63   2.0000      -0.525514       -14.3000 
  64   2.0000      -0.523557       -14.2467 
  65   2.0000      -0.513059       -13.9610 
  66   2.0000      -0.500473       -13.6186 
  67   2.0000      -0.495158       -13.4739 
  68   2.0000      -0.485185       -13.2026 
  69   2.0000      -0.462873       -12.5954 
  70   2.0000      -0.451069       -12.2742 
  71   2.0000      -0.440391       -11.9836 
  72   2.0000      -0.353176        -9.6104 
  73   2.0000      -0.351217        -9.5571 
  74   2.0000      -0.328251        -8.9322 
  75   2.0000      -0.323628        -8.8064 
  76   2.0000      -0.318069        -8.6551 
  77   0.0000       0.075190         2.0460 
  78   0.0000       0.103055         2.8043 
  79   0.0000       0.124609         3.3908 
  80   0.0000       0.131810         3.5867 
  81   0.0000       0.135573         3.6891 
  82   0.0000       0.140706         3.8288 
  83   0.0000       0.147930         4.0254 
  84   0.0000       0.158846         4.3224 
  85   0.0000       0.160922         4.3789 
  86   0.0000       0.171409         4.6643 
  87   0.0000       0.178490         4.8570 
  88   0.0000       0.190423         5.1817 
  89   0.0000       0.193194         5.2571 
  90   0.0000       0.202461         5.5093 
  91   0.0000       0.207502         5.6464 
  92   0.0000       0.213527         5.8104 
  93   0.0000       0.216062         5.8793 
  94   0.0000       0.220943         6.0122 
  95   0.0000       0.231159         6.2901 
  96   0.0000       0.246757         6.7146 
  97   0.0000       0.249766         6.7965 
  98   0.0000       0.267291         7.2734 
  99   0.0000       0.271232         7.3806 
 100   0.0000       0.294862         8.0236 
 101   0.0000       0.305959         8.3256 
 102   0.0000       0.313531         8.5316 
 103   0.0000       0.318926         8.6784 
 104   0.0000       0.325219         8.8497 
 105   0.0000       0.334478         9.1016 
 106   0.0000       0.344840         9.3836 
 107   0.0000       0.346784         9.4365 
 108   0.0000       0.362776         9.8716 
 109   0.0000       0.364471         9.9178 
 110   0.0000       0.370900        10.0927 
 111   0.0000       0.374398        10.1879 
 112   0.0000       0.376667        10.2496 
 113   0.0000       0.388923        10.5831 
 114   0.0000       0.395274        10.7559 
 115   0.0000       0.403903        10.9908 
 116   0.0000       0.413342        11.2476 
 117   0.0000       0.427072        11.6212 
 118   0.0000       0.433150        11.7866 
 119   0.0000       0.435059        11.8386 
 120   0.0000       0.444230        12.0881 
 121   0.0000       0.450024        12.2458 
 122   0.0000       0.454443        12.3660 
 123   0.0000       0.464285        12.6338 
 124   0.0000       0.471216        12.8224 
 125   0.0000       0.472463        12.8564 
 126   0.0000       0.477748        13.0002 
 127   0.0000       0.480669        13.0797 
 128   0.0000       0.485908        13.2222 
 129   0.0000       0.498572        13.5668 
 130   0.0000       0.500611        13.6223 
 131   0.0000       0.504687        13.7332 
 132   0.0000       0.511011        13.9053 
 133   0.0000       0.515208        14.0195 
 134   0.0000       0.522237        14.2108 
 135   0.0000       0.526911        14.3380 
 136   0.0000       0.530779        14.4432 
 137   0.0000       0.539076        14.6690 
 138   0.0000       0.543726        14.7955 
 139   0.0000       0.549905        14.9637 
 140   0.0000       0.556823        15.1519 
 141   0.0000       0.563986        15.3469 
 142   0.0000       0.567587        15.4448 
 143   0.0000       0.571423        15.5492 
 144   0.0000       0.572332        15.5740 
 145   0.0000       0.576675        15.6921 
 146   0.0000       0.580952        15.8085 
 147   0.0000       0.591369        16.0920 
 148   0.0000       0.595688        16.2095 
 149   0.0000       0.601270        16.3614 
 150   0.0000       0.603935        16.4339 
 151   0.0000       0.604639        16.4531 
 152   0.0000       0.611785        16.6475 
 153   0.0000       0.614576        16.7235 
 154   0.0000       0.618738        16.8367 
 155   0.0000       0.621910        16.9230 
 156   0.0000       0.627931        17.0869 
 157   0.0000       0.632909        17.2223 
 158   0.0000       0.639438        17.4000 
 159   0.0000       0.643694        17.5158 
 160   0.0000       0.647280        17.6134 
 161   0.0000       0.653617        17.7858 
 162   0.0000       0.655663        17.8415 
 163   0.0000       0.663911        18.0659 
 164   0.0000       0.666576        18.1385 
 165   0.0000       0.669389        18.2150 
 166   0.0000       0.674736        18.3605 
 167   0.0000       0.683191        18.5906 
 168   0.0000       0.687887        18.7184 
 169   0.0000       0.694882        18.9087 
 170   0.0000       0.702230        19.1086 
 171   0.0000       0.710015        19.3205 
 172   0.0000       0.710697        19.3391 
 173   0.0000       0.720643        19.6097 
 174   0.0000       0.724312        19.7095 
 175   0.0000       0.729521        19.8513 
 176   0.0000       0.735352        20.0099 
 177   0.0000       0.741031        20.1645 
 178   0.0000       0.746208        20.3053 
 179   0.0000       0.759629        20.6705 
 180   0.0000       0.763493        20.7757 
 181   0.0000       0.769003        20.9256 
 182   0.0000       0.777132        21.1468 
 183   0.0000       0.784025        21.3344 
 184   0.0000       0.805007        21.9054 
 185   0.0000       0.811635        22.0857 
 186   0.0000       0.818704        22.2781 
 187   0.0000       0.821887        22.3647 
 188   0.0000       0.827630        22.5210 
 189   0.0000       0.831526        22.6270 
 190   0.0000       0.843762        22.9599 
 191   0.0000       0.850075        23.1317 
 192   0.0000       0.857668        23.3383 
 193   0.0000       0.860588        23.4178 
 194   0.0000       0.863219        23.4894 
 195   0.0000       0.876020        23.8377 
 196   0.0000       0.880753        23.9665 
 197   0.0000       0.884419        24.0663 
 198   0.0000       0.893873        24.3235 
 199   0.0000       0.900254        24.4972 
 200   0.0000       0.914192        24.8764 
 201   0.0000       0.916463        24.9382 
 202   0.0000       0.919055        25.0088 
 203   0.0000       0.927264        25.2321 
 204   0.0000       0.944586        25.7035 
 205   0.0000       0.945353        25.7244 
 206   0.0000       0.948851        25.8195 
 207   0.0000       0.959062        26.0974 
 208   0.0000       0.967364        26.3233 
 209   0.0000       0.973473        26.4895 
 210   0.0000       0.978920        26.6378 
 211   0.0000       0.987520        26.8718 
 212   0.0000       0.991255        26.9734 
 213   0.0000       0.999908        27.2089 
 214   0.0000       1.006103        27.3774 
 215   0.0000       1.017670        27.6922 
 216   0.0000       1.023360        27.8470 
 217   0.0000       1.031032        28.0558 
 218   0.0000       1.034459        28.1491 
 219   0.0000       1.047670        28.5085 
 220   0.0000       1.051742        28.6194 
 221   0.0000       1.054462        28.6934 
 222   0.0000       1.066338        29.0165 
 223   0.0000       1.070888        29.1403 
 224   0.0000       1.076021        29.2800 
 225   0.0000       1.081707        29.4348 
 226   0.0000       1.096558        29.8389 
 227   0.0000       1.110948        30.2304 
 228   0.0000       1.119634        30.4668 
 229   0.0000       1.123914        30.5832 
 230   0.0000       1.127534        30.6817 
 231   0.0000       1.131898        30.8005 
 232   0.0000       1.139416        31.0051 
 233   0.0000       1.149716        31.2854 
 234   0.0000       1.155068        31.4310 
 235   0.0000       1.164562        31.6893 
 236   0.0000       1.171383        31.8750 
 237   0.0000       1.175642        31.9909 
 238   0.0000       1.178899        32.0795 
 239   0.0000       1.183304        32.1993 
 240   0.0000       1.192718        32.4555 
 241   0.0000       1.197912        32.5969 
 242   0.0000       1.200224        32.6598 
 243   0.0000       1.216568        33.1045 
 244   0.0000       1.220206        33.2035 
 245   0.0000       1.225803        33.3558 
 246   0.0000       1.230906        33.4946 
 247   0.0000       1.242893        33.8208 
 248   0.0000       1.247846        33.9556 
 249   0.0000       1.252540        34.0833 
 250   0.0000       1.265960        34.4485 
 251   0.0000       1.271020        34.5862 
 252   0.0000       1.280925        34.8557 
 253   0.0000       1.283092        34.9147 
 254   0.0000       1.289326        35.0843 
 255   0.0000       1.298041        35.3215 
 256   0.0000       1.302062        35.4309 
 257   0.0000       1.317991        35.8644 
 258   0.0000       1.325500        36.0687 
 259   0.0000       1.330414        36.2024 
 260   0.0000       1.342501        36.5313 
 261   0.0000       1.346981        36.6532 
 262   0.0000       1.354047        36.8455 
 263   0.0000       1.356057        36.9002 
 264   0.0000       1.379504        37.5382 
 265   0.0000       1.385387        37.6983 
 266   0.0000       1.392882        37.9022 
 267   0.0000       1.399760        38.0894 
 268   0.0000       1.414415        38.4882 
 269   0.0000       1.417362        38.5684 
 270   0.0000       1.422247        38.7013 
 271   0.0000       1.427606        38.8471 
 272   0.0000       1.440164        39.1889 
 273   0.0000       1.454182        39.5703 
 274   0.0000       1.456410        39.6309 
 275   0.0000       1.469334        39.9826 
 276   0.0000       1.474208        40.1153 
 277   0.0000       1.483365        40.3644 
 278   0.0000       1.486487        40.4494 
 279   0.0000       1.493191        40.6318 
 280   0.0000       1.495655        40.6988 
 281   0.0000       1.502572        40.8871 
 282   0.0000       1.510177        41.0940 
 283   0.0000       1.511707        41.1356 
 284   0.0000       1.518937        41.3324 
 285   0.0000       1.520652        41.3790 
 286   0.0000       1.529810        41.6282 
 287   0.0000       1.533618        41.7319 
 288   0.0000       1.542530        41.9744 
 289   0.0000       1.550253        42.1845 
 290   0.0000       1.554622        42.3034 
 291   0.0000       1.560831        42.4724 
 292   0.0000       1.565708        42.6051 
 293   0.0000       1.575642        42.8754 
 294   0.0000       1.590072        43.2681 
 295   0.0000       1.595408        43.4133 
 296   0.0000       1.604086        43.6494 
 297   0.0000       1.607519        43.7428 
 298   0.0000       1.615848        43.9695 
 299   0.0000       1.629125        44.3307 
 300   0.0000       1.634865        44.4869 
 301   0.0000       1.643443        44.7203 
 302   0.0000       1.650606        44.9153 
 303   0.0000       1.652197        44.9586 
 304   0.0000       1.660801        45.1927 
 305   0.0000       1.671834        45.4929 
 306   0.0000       1.685948        45.8770 
 307   0.0000       1.694228        46.1023 
 308   0.0000       1.698865        46.2285 
 309   0.0000       1.709575        46.5199 
 310   0.0000       1.721858        46.8541 
 311   0.0000       1.723210        46.8909 
 312   0.0000       1.731234        47.1093 
 313   0.0000       1.745446        47.4960 
 314   0.0000       1.759684        47.8834 
 315   0.0000       1.768874        48.1335 
 316   0.0000       1.777671        48.3729 
 317   0.0000       1.785545        48.5872 
 318   0.0000       1.791640        48.7530 
 319   0.0000       1.793761        48.8107 
 320   0.0000       1.808871        49.2219 
 321   0.0000       1.820518        49.5388 
 322   0.0000       1.827860        49.7386 
 323   0.0000       1.836045        49.9613 
 324   0.0000       1.850804        50.3629 
 325   0.0000       1.854324        50.4587 
 326   0.0000       1.863924        50.7200 
 327   0.0000       1.883372        51.2491 
 328   0.0000       1.904331        51.8195 
 329   0.0000       1.910483        51.9869 
 330   0.0000       1.914791        52.1041 
 331   0.0000       1.922825        52.3227 
 332   0.0000       1.937107        52.7114 
 333   0.0000       1.948056        53.0093 
 334   0.0000       1.962647        53.4063 
 335   0.0000       1.970220        53.6124 
 336   0.0000       1.981523        53.9200 
 337   0.0000       2.000899        54.4472 
 338   0.0000       2.011033        54.7230 
 339   0.0000       2.021486        55.0074 
 340   0.0000       2.025702        55.1221 
 341   0.0000       2.034558        55.3631 
 342   0.0000       2.042150        55.5697 
 343   0.0000       2.072917        56.4069 
 344   0.0000       2.083978        56.7079 
 345   0.0000       2.114844        57.5478 
 346   0.0000       2.128304        57.9141 
 347   0.0000       2.131123        57.9908 
 348   0.0000       2.151275        58.5392 
 349   0.0000       2.157876        58.7188 
 350   0.0000       2.176845        59.2350 
 351   0.0000       2.187803        59.5331 
 352   0.0000       2.207732        60.0754 
 353   0.0000       2.218764        60.3756 
 354   0.0000       2.228956        60.6530 
 355   0.0000       2.249109        61.2014 
 356   0.0000       2.259501        61.4841 
 357   0.0000       2.279708        62.0340 
 358   0.0000       2.292323        62.3773 
 359   0.0000       2.308091        62.8064 
 360   0.0000       2.321775        63.1787 
 361   0.0000       2.326595        63.3099 
 362   0.0000       2.341978        63.7285 
 363   0.0000       2.350234        63.9531 
 364   0.0000       2.363416        64.3118 
 365   0.0000       2.368571        64.4521 
 366   0.0000       2.374846        64.6228 
 367   0.0000       2.396614        65.2152 
 368   0.0000       2.408334        65.5341 
 369   0.0000       2.440266        66.4030 
 370   0.0000       2.461050        66.9686 
 371   0.0000       2.467317        67.1391 
 372   0.0000       2.471587        67.2553 
 373   0.0000       2.483782        67.5872 
 374   0.0000       2.488411        67.7131 
 375   0.0000       2.499813        68.0234 
 376   0.0000       2.507536        68.2335 
 377   0.0000       2.525831        68.7314 
 378   0.0000       2.541497        69.1576 
 379   0.0000       2.550909        69.4138 
 380   0.0000       2.557418        69.5909 
 381   0.0000       2.572650        70.0054 
 382   0.0000       2.583832        70.3096 
 383   0.0000       2.604846        70.8815 
 384   0.0000       2.608943        70.9929 
 385   0.0000       2.618287        71.2472 
 386   0.0000       2.630224        71.5720 
 387   0.0000       2.643539        71.9343 
 388   0.0000       2.663328        72.4728 
 389   0.0000       2.665491        72.5317 
 390   0.0000       2.674222        72.7693 
 391   0.0000       2.690525        73.2129 
 392   0.0000       2.696243        73.3685 
 393   0.0000       2.718231        73.9668 
 394   0.0000       2.732614        74.3582 
 395   0.0000       2.737268        74.4848 
 396   0.0000       2.750997        74.8584 
 397   0.0000       2.754631        74.9573 
 398   0.0000       2.769097        75.3510 
 399   0.0000       2.772892        75.4542 
 400   0.0000       2.780932        75.6730 
 401   0.0000       2.789845        75.9155 
 402   0.0000       2.796482        76.0961 
 403   0.0000       2.808546        76.4244 
 404   0.0000       2.825505        76.8859 
 405   0.0000       2.828553        76.9688 
 406   0.0000       2.838941        77.2515 
 407   0.0000       2.848400        77.5089 
 408   0.0000       2.855783        77.7098 
 409   0.0000       2.864950        77.9592 
 410   0.0000       2.879678        78.3600 
 411   0.0000       2.889370        78.6237 
 412   0.0000       2.895634        78.7942 
 413   0.0000       2.901569        78.9557 
 414   0.0000       2.905006        79.0492 
 415   0.0000       2.911950        79.2382 
 416   0.0000       2.933327        79.8199 
 417   0.0000       2.936840        79.9155 
 418   0.0000       2.943901        80.1076 
 419   0.0000       2.947321        80.2007 
 420   0.0000       2.963147        80.6313 
 421   0.0000       2.977099        81.0110 
 422   0.0000       2.981479        81.1302 
 423   0.0000       2.989931        81.3602 
 424   0.0000       2.995148        81.5021 
 425   0.0000       3.005672        81.7885 
 426   0.0000       3.016152        82.0737 
 427   0.0000       3.026329        82.3506 
 428   0.0000       3.032280        82.5125 
 429   0.0000       3.036738        82.6338 
 430   0.0000       3.045308        82.8670 
 431   0.0000       3.045986        82.8855 
 432   0.0000       3.055222        83.1368 
 433   0.0000       3.072566        83.6088 
 434   0.0000       3.082603        83.8819 
 435   0.0000       3.083818        83.9149 
 436   0.0000       3.092695        84.1565 
 437   0.0000       3.096916        84.2714 
 438   0.0000       3.099545        84.3429 
 439   0.0000       3.111716        84.6741 
 440   0.0000       3.116891        84.8149 
 441   0.0000       3.120331        84.9085 
 442   0.0000       3.129133        85.1480 
 443   0.0000       3.137882        85.3861 
 444   0.0000       3.141821        85.4933 
 445   0.0000       3.148892        85.6857 
 446   0.0000       3.153108        85.8004 
 447   0.0000       3.167839        86.2013 
 448   0.0000       3.175564        86.4115 
 449   0.0000       3.186661        86.7134 
 450   0.0000       3.194969        86.9395 
 451   0.0000       3.206210        87.2454 
 452   0.0000       3.207490        87.2802 
 453   0.0000       3.216371        87.5219 
 454   0.0000       3.229675        87.8839 
 455   0.0000       3.237042        88.0844 
 456   0.0000       3.242181        88.2242 
 457   0.0000       3.247415        88.3667 
 458   0.0000       3.254923        88.5710 
 459   0.0000       3.262134        88.7672 
 460   0.0000       3.268054        88.9283 
 461   0.0000       3.273387        89.0734 
 462   0.0000       3.286816        89.4388 
 463   0.0000       3.294221        89.6403 
 464   0.0000       3.297712        89.7353 
 465   0.0000       3.304265        89.9136 
 466   0.0000       3.307360        89.9978 
 467   0.0000       3.314456        90.1909 
 468   0.0000       3.318921        90.3124 
 469   0.0000       3.325073        90.4798 
 470   0.0000       3.336892        90.8014 
 471   0.0000       3.338666        90.8497 
 472   0.0000       3.349677        91.1493 
 473   0.0000       3.354334        91.2761 
 474   0.0000       3.359212        91.4088 
 475   0.0000       3.362482        91.4978 
 476   0.0000       3.370136        91.7061 
 477   0.0000       3.377677        91.9113 
 478   0.0000       3.384161        92.0877 
 479   0.0000       3.388795        92.2138 
 480   0.0000       3.392415        92.3123 
 481   0.0000       3.397566        92.4525 
 482   0.0000       3.400472        92.5316 
 483   0.0000       3.409169        92.7682 
 484   0.0000       3.418957        93.0346 
 485   0.0000       3.421642        93.1076 
 486   0.0000       3.427780        93.2746 
 487   0.0000       3.434603        93.4603 
 488   0.0000       3.436643        93.5158 
 489   0.0000       3.442455        93.6740 
 490   0.0000       3.445464        93.7558 
 491   0.0000       3.450259        93.8863 
 492   0.0000       3.456064        94.0443 
 493   0.0000       3.459756        94.1447 
 494   0.0000       3.465397        94.2982 
 495   0.0000       3.474973        94.5588 
 496   0.0000       3.478016        94.6416 
 497   0.0000       3.484533        94.8190 
 498   0.0000       3.492448        95.0343 
 499   0.0000       3.503002        95.3215 
 500   0.0000       3.517104        95.7053 
 501   0.0000       3.518373        95.7398 
 502   0.0000       3.522112        95.8415 
 503   0.0000       3.528497        96.0153 
 504   0.0000       3.534252        96.1719 
 505   0.0000       3.545066        96.4661 
 506   0.0000       3.550569        96.6159 
 507   0.0000       3.563989        96.9811 
 508   0.0000       3.566581        97.0516 
 509   0.0000       3.573577        97.2420 
 510   0.0000       3.587195        97.6125 
 511   0.0000       3.588948        97.6602 
 512   0.0000       3.597924        97.9045 
 513   0.0000       3.613168        98.3193 
 514   0.0000       3.616101        98.3991 
 515   0.0000       3.620242        98.5118 
 516   0.0000       3.631658        98.8224 
 517   0.0000       3.635239        98.9199 
 518   0.0000       3.635553        98.9284 
 519   0.0000       3.647969        99.2663 
 520   0.0000       3.648587        99.2831 
 521   0.0000       3.651381        99.3591 
 522   0.0000       3.654084        99.4327 
 523   0.0000       3.663631        99.6925 
 524   0.0000       3.665686        99.7484 
 525   0.0000       3.674651        99.9923 
 526   0.0000       3.682755       100.2128 
 527   0.0000       3.692856       100.4877 
 528   0.0000       3.696517       100.5873 
 529   0.0000       3.706460       100.8579 
 530   0.0000       3.713276       101.0434 
 531   0.0000       3.723449       101.3202 
 532   0.0000       3.732207       101.5585 
 533   0.0000       3.735707       101.6538 
 534   0.0000       3.738658       101.7341 
 535   0.0000       3.746159       101.9382 
 536   0.0000       3.748643       102.0058 
 537   0.0000       3.755172       102.1834 
 538   0.0000       3.759145       102.2915 
 539   0.0000       3.761509       102.3559 
 540   0.0000       3.771956       102.6401 
 541   0.0000       3.781179       102.8911 
 542   0.0000       3.792917       103.2105 
 543   0.0000       3.800483       103.4164 
 544   0.0000       3.808313       103.6295 
 545   0.0000       3.813502       103.7707 
 546   0.0000       3.820251       103.9543 
 547   0.0000       3.826498       104.1243 
 548   0.0000       3.835007       104.3558 
 549   0.0000       3.844864       104.6241 
 550   0.0000       3.847050       104.6836 
 551   0.0000       3.856630       104.9442 
 552   0.0000       3.871284       105.3430 
 553   0.0000       3.875162       105.4485 
 554   0.0000       3.894298       105.9692 
 555   0.0000       3.895801       106.0101 
 556   0.0000       3.900646       106.1420 
 557   0.0000       3.913502       106.4918 
 558   0.0000       3.920365       106.6785 
 559   0.0000       3.932371       107.0052 
 560   0.0000       3.935909       107.1015 
 561   0.0000       3.943817       107.3167 
 562   0.0000       3.962992       107.8385 
 563   0.0000       3.970331       108.0382 
 564   0.0000       3.978320       108.2556 
 565   0.0000       3.988451       108.5313 
 566   0.0000       3.998193       108.7963 
 567   0.0000       4.003329       108.9361 
 568   0.0000       4.013558       109.2145 
 569   0.0000       4.019536       109.3771 
 570   0.0000       4.034903       109.7953 
 571   0.0000       4.041029       109.9620 
 572   0.0000       4.045153       110.0742 
 573   0.0000       4.051345       110.2427 
 574   0.0000       4.062098       110.5353 
 575   0.0000       4.066716       110.6610 
 576   0.0000       4.073331       110.8410 
 577   0.0000       4.078429       110.9797 
 578   0.0000       4.097473       111.4979 
 579   0.0000       4.110091       111.8413 
 580   0.0000       4.114125       111.9510 
 581   0.0000       4.124639       112.2371 
 582   0.0000       4.129970       112.3822 
 583   0.0000       4.131612       112.4269 
 584   0.0000       4.145753       112.8117 
 585   0.0000       4.150988       112.9541 
 586   0.0000       4.155549       113.0782 
 587   0.0000       4.163595       113.2972 
 588   0.0000       4.170381       113.4818 
 589   0.0000       4.176018       113.6352 
 590   0.0000       4.177464       113.6746 
 591   0.0000       4.182610       113.8146 
 592   0.0000       4.187360       113.9439 
 593   0.0000       4.194848       114.1476 
 594   0.0000       4.205599       114.4402 
 595   0.0000       4.211157       114.5914 
 596   0.0000       4.220528       114.8464 
 597   0.0000       4.224227       114.9471 
 598   0.0000       4.232182       115.1635 
 599   0.0000       4.241607       115.4200 
 600   0.0000       4.252451       115.7151 
 601   0.0000       4.259369       115.9033 
 602   0.0000       4.264279       116.0369 
 603   0.0000       4.271696       116.2387 
 604   0.0000       4.288405       116.6934 
 605   0.0000       4.302398       117.0742 
 606   0.0000       4.313451       117.3750 
 607   0.0000       4.318026       117.4995 
 608   0.0000       4.328235       117.7773 
 609   0.0000       4.337262       118.0229 
 610   0.0000       4.345892       118.2577 
 611   0.0000       4.348471       118.3279 
 612   0.0000       4.349330       118.3513 
 613   0.0000       4.355484       118.5188 
 614   0.0000       4.360679       118.6601 
 615   0.0000       4.367252       118.8390 
 616   0.0000       4.378894       119.1558 
 617   0.0000       4.392613       119.5291 
 618   0.0000       4.399420       119.7143 
 619   0.0000       4.410392       120.0129 
 620   0.0000       4.413252       120.0907 
 621   0.0000       4.420293       120.2823 
 622   0.0000       4.429115       120.5223 
 623   0.0000       4.430316       120.5550 
 624   0.0000       4.440197       120.8239 
 625   0.0000       4.449636       121.0807 
 626   0.0000       4.456920       121.2789 
 627   0.0000       4.462612       121.4338 
 628   0.0000       4.474732       121.7636 
 629   0.0000       4.489252       122.1587 
 630   0.0000       4.499219       122.4300 
 631   0.0000       4.503983       122.5596 
 632   0.0000       4.511644       122.7681 
 633   0.0000       4.517175       122.9186 
 634   0.0000       4.530261       123.2747 
 635   0.0000       4.543641       123.6387 
 636   0.0000       4.547694       123.7491 
 637   0.0000       4.560840       124.1068 
 638   0.0000       4.577973       124.5730 
 639   0.0000       4.582923       124.7077 
 640   0.0000       4.598834       125.1406 
 641   0.0000       4.599931       125.1705 
 642   0.0000       4.603133       125.2576 
 643   0.0000       4.605728       125.3282 
 644   0.0000       4.619090       125.6918 
 645   0.0000       4.625691       125.8715 
 646   0.0000       4.630344       125.9981 
 647   0.0000       4.640260       126.2679 
 648   0.0000       4.646057       126.4256 
 649   0.0000       4.653778       126.6357 
 650   0.0000       4.659853       126.8011 
 651   0.0000       4.669797       127.0716 
 652   0.0000       4.670149       127.0812 
 653   0.0000       4.678260       127.3019 
 654   0.0000       4.692476       127.6888 
 655   0.0000       4.705004       128.0297 
 656   0.0000       4.710256       128.1726 
 657   0.0000       4.727963       128.6544 
 658   0.0000       4.734163       128.8231 
 659   0.0000       4.747527       129.1868 
 660   0.0000       4.753847       129.3587 
 661   0.0000       4.756533       129.4319 
 662   0.0000       4.770779       129.8195 
 663   0.0000       4.793340       130.4334 
 664   0.0000       4.812931       130.9665 
 665   0.0000       4.828197       131.3819 
 666   0.0000       4.829668       131.4219 
 667   0.0000       4.850154       131.9794 
 668   0.0000       4.858359       132.2027 
 669   0.0000       4.876566       132.6981 
 670   0.0000       4.905384       133.4823 
 671   0.0000       4.933094       134.2363 
 672   0.0000       4.945566       134.5757 
 673   0.0000       4.950589       134.7124 
 674   0.0000       4.960046       134.9697 
 675   0.0000       4.985461       135.6613 
 676   0.0000       5.006563       136.2355 
 677   0.0000       5.018141       136.5506 
 678   0.0000       5.025965       136.7635 
 679   0.0000       5.042898       137.2242 
 680   0.0000       5.051560       137.4599 
 681   0.0000       5.053411       137.5103 
 682   0.0000       5.088716       138.4710 
 683   0.0000       5.098552       138.7386 
 684   0.0000       5.107078       138.9707 
 685   0.0000       5.114028       139.1598 
 686   0.0000       5.128147       139.5440 
 687   0.0000       5.133941       139.7016 
 688   0.0000       5.142655       139.9388 
 689   0.0000       5.149964       140.1377 
 690   0.0000       5.167680       140.6197 
 691   0.0000       5.174828       140.8142 
 692   0.0000       5.182854       141.0326 
 693   0.0000       5.191992       141.2813 
 694   0.0000       5.203950       141.6067 
 695   0.0000       5.209430       141.7558 
 696   0.0000       5.212773       141.8468 
 697   0.0000       5.219206       142.0218 
 698   0.0000       5.228743       142.2813 
 699   0.0000       5.236733       142.4988 
 700   0.0000       5.268859       143.3730 
 701   0.0000       5.283459       143.7702 
 702   0.0000       5.291981       144.0021 
 703   0.0000       5.301929       144.2728 
 704   0.0000       5.325264       144.9078 
 705   0.0000       5.330113       145.0398 
 706   0.0000       5.347255       145.5062 
 707   0.0000       5.359049       145.8271 
 708   0.0000       5.373659       146.2247 
 709   0.0000       5.382945       146.4774 
 710   0.0000       5.388533       146.6294 
 711   0.0000       5.405132       147.0811 
 712   0.0000       5.425889       147.6459 
 713   0.0000       5.449210       148.2805 
 714   0.0000       5.473403       148.9389 
 715   0.0000       5.488280       149.3437 
 716   0.0000       5.491637       149.4350 
 717   0.0000       5.507284       149.8608 
 718   0.0000       5.517223       150.1313 
 719   0.0000       5.525802       150.3647 
 720   0.0000       5.531827       150.5287 
 721   0.0000       5.546187       150.9194 
 722   0.0000       5.561865       151.3460 
 723   0.0000       5.565108       151.4343 
 724   0.0000       5.588106       152.0601 
 725   0.0000       5.606992       152.5740 
 726   0.0000       5.612652       152.7280 
 727   0.0000       5.617333       152.8554 
 728   0.0000       5.630579       153.2158 
 729   0.0000       5.643344       153.5632 
 730   0.0000       5.662187       154.0759 
 731   0.0000       5.663318       154.1067 
 732   0.0000       5.670615       154.3053 
 733   0.0000       5.681739       154.6080 
 734   0.0000       5.705868       155.2646 
 735   0.0000       5.717211       155.5732 
 736   0.0000       5.726789       155.8338 
 737   0.0000       5.742963       156.2740 
 738   0.0000       5.746516       156.3707 
 739   0.0000       5.762648       156.8096 
 740   0.0000       5.771747       157.0572 
 741   0.0000       5.781891       157.3332 
 742   0.0000       5.801067       157.8551 
 743   0.0000       5.816656       158.2793 
 744   0.0000       5.819922       158.3681 
 745   0.0000       5.845642       159.0680 
 746   0.0000       5.847591       159.1210 
 747   0.0000       5.888484       160.2338 
 748   0.0000       5.899081       160.5222 
 749   0.0000       5.918586       161.0529 
 750   0.0000       5.929699       161.3553 
 751   0.0000       5.971291       162.4871 
 752   0.0000       5.980924       162.7492 
 753   0.0000       5.997429       163.1984 
 754   0.0000       6.011395       163.5784 
 755   0.0000       6.025479       163.9616 
 756   0.0000       6.052655       164.7011 
 757   0.0000       6.057217       164.8252 
 758   0.0000       6.072188       165.2326 
 759   0.0000       6.091139       165.7483 
 760   0.0000       6.103835       166.0938 
 761   0.0000       6.160826       167.6446 
 762   0.0000       6.213275       169.0718 
 763   0.0000       6.226803       169.4399 
 764   0.0000       6.238128       169.7481 
 765   0.0000       6.279422       170.8717 
 766   0.0000       6.294087       171.2708 
 767   0.0000       6.300023       171.4323 
 768   0.0000       6.323622       172.0745 
 769   0.0000       6.347599       172.7270 
 770   0.0000       6.364137       173.1770 
 771   0.0000       6.386650       173.7896 
 772   0.0000       6.408223       174.3766 
 773   0.0000       6.456279       175.6843 
 774   0.0000       6.466201       175.9543 
 775   0.0000       6.479416       176.3139 
 776   0.0000       6.508433       177.1035 
 777   0.0000       6.548090       178.1826 
 778   0.0000       6.555261       178.3777 
 779   0.0000       6.605224       179.7373 
 780   0.0000       6.640324       180.6924 
 781   0.0000       6.683036       181.8547 
 782   0.0000       6.727777       183.0721 
 783   0.0000       6.781093       184.5229 
 784   0.0000       6.821990       185.6358 
 785   0.0000       6.909440       188.0154 
 786   0.0000       6.919696       188.2945 
 787   0.0000       6.927455       188.5056 
 788   0.0000       6.975284       189.8071 
 789   0.0000       7.038898       191.5381 
 790   0.0000       7.054323       191.9579 
 791   0.0000       7.063787       192.2154 
 792   0.0000       7.079171       192.6340 
 793   0.0000       7.124882       193.8779 
 794   0.0000       7.202717       195.9959 
 795   0.0000       7.246052       197.1751 
 796   0.0000       7.258716       197.5197 
 797   0.0000       7.279703       198.0908 
 798   0.0000       7.339586       199.7203 
 799   0.0000       7.378354       200.7752 
 800   0.0000       7.436708       202.3631 
 801   0.0000       7.578473       206.2207 
 802   0.0000       7.590956       206.5604 
 803   0.0000       7.612074       207.1351 
 804   0.0000       7.711268       209.8343 
 805   0.0000       7.798246       212.2011 
 806   0.0000       7.813149       212.6066 
 807   0.0000       7.931678       215.8319 
 808   0.0000       7.952476       216.3979 
 809   0.0000       9.332733       253.9566 
 810   0.0000       9.433648       256.7026 
 811   0.0000      10.697623       291.0971 
 812   0.0000      11.346276       308.7479 
 813   0.0000      11.721520       318.9588 
 814   0.0000      12.530413       340.9699 
 815   0.0000      12.888524       350.7146 
 816   0.0000      13.047630       355.0441 
 817   0.0000      13.059481       355.3665 
 818   0.0000      13.120829       357.0359 
 819   0.0000      13.353314       363.3622 
 820   0.0000      13.560902       369.0109 
 821   0.0000      13.680991       372.2787 
 822   0.0000      13.857833       377.0908 
 823   0.0000      14.004756       381.0888 
 824   0.0000      14.096818       383.5939 
 825   0.0000      14.576083       396.6354 
 826   0.0000      14.666272       399.0896 
 827   0.0000      15.978736       434.8035 

                    ********************************
                    * MULLIKEN POPULATION ANALYSIS *
                    ********************************

-----------------------
MULLIKEN ATOMIC CHARGES
-----------------------
   0 C :   -0.282875
   1 C :    0.039897
   2 O :   -0.376543
   3 C :    0.450003
   4 O :   -0.421804
   5 C :   -0.247460
   6 C :    0.182303
   7 C :   -0.265888
   8 N :   -0.127125
   9 C :    0.211933
  10 S :   -0.442684
  11 N :   -0.217642
  12 C :    0.078144
  13 C :    0.030676
  14 C :   -0.187554
  15 C :   -0.130178
  16 C :   -0.278194
  17 C :    0.314970
  18 O :   -0.355999
  19 C :   -0.246762
  20 H :    0.102582
  21 H :    0.095985
  22 H :    0.112486
  23 H :    0.100541
  24 H :    0.098341
  25 H :    0.132012
  26 H :    0.130141
  27 H :    0.094476
  28 H :    0.199496
  29 H :    0.200592
  30 H :    0.151304
  31 H :    0.155293
  32 H :    0.162308
  33 H :    0.131806
  34 H :    0.240997
  35 H :    0.164427
Sum of atomic charges:   -0.0000000

--------------------------------
MULLIKEN REDUCED ORBITAL CHARGES
--------------------------------
  0 C s       :     3.251542  s :     3.251542
      pz      :     0.991289  p :     2.953059
      px      :     0.950486
      py      :     1.011284
      dz2     :     0.023761  d :     0.073881
      dxz     :     0.015057
      dyz     :     0.006562
      dx2y2   :     0.008463
      dxy     :     0.020036
      f0      :     0.000731  f :     0.004394
      f+1     :     0.000975
      f-1     :     0.000281
      f+2     :     0.000693
      f-2     :     0.000483
      f+3     :     0.000961
      f-3     :     0.000270
  1 C s       :     3.180596  s :     3.180596
      pz      :     0.994531  p :     2.617629
      px      :     0.830104
      py      :     0.792994
      dz2     :     0.029204  d :     0.150526
      dxz     :     0.027398
      dyz     :     0.021332
      dx2y2   :     0.028921
      dxy     :     0.043670
      f0      :     0.001663  f :     0.011353
      f+1     :     0.001431
      f-1     :     0.000820
      f+2     :     0.000702
      f-2     :     0.002314
      f+3     :     0.002304
      f-3     :     0.002118
  2 O s       :     3.715752  s :     3.715752
      pz      :     1.835840  p :     4.627644
      px      :     1.607360
      py      :     1.184443
      dz2     :     0.003879  d :     0.030880
      dxz     :     0.002197
      dyz     :     0.005213
      dx2y2   :     0.007915
      dxy     :     0.011676
      f0      :     0.000254  f :     0.002267
      f+1     :     0.000165
      f-1     :     0.000542
      f+2     :     0.000188
      f-2     :     0.000143
      f+3     :     0.000540
      f-3     :     0.000435
  3 C s       :     3.056710  s :     3.056710
      pz      :     0.783347  p :     2.170489
      px      :     0.672304
      py      :     0.714838
      dz2     :     0.070873  d :     0.296210
      dxz     :     0.032883
      dyz     :     0.076940
      dx2y2   :     0.056117
      dxy     :     0.059398
      f0      :     0.004432  f :     0.026588
      f+1     :     0.002797
      f-1     :     0.003775
      f+2     :     0.005248
      f-2     :     0.003570
      f+3     :     0.003573
      f-3     :     0.003193
  4 O s       :     3.773249  s :     3.773249
      pz      :     1.427948  p :     4.611112
      px      :     1.417348
      py      :     1.765816
      dz2     :     0.010021  d :     0.035039
      dxz     :     0.009693
      dyz     :     0.006570
      dx2y2   :     0.004803
      dxy     :     0.003953
      f0      :     0.000370  f :     0.002404
      f+1     :     0.000510
      f-1     :     0.000349
      f+2     :     0.000408
      f-2     :     0.000482
      f+3     :     0.000133
      f-3     :     0.000152
  5 C s       :     3.203975  s :     3.203975
      pz      :     0.995986  p :     2.950348
      px      :     1.079565
      py      :     0.874797
      dz2     :     0.012753  d :     0.082937
      dxz     :     0.007683
      dyz     :     0.030496
      dx2y2   :     0.008506
      dxy     :     0.023500
      f0      :     0.000820  f :     0.010201
      f+1     :     0.001195
      f-1     :     0.001459
      f+2     :     0.002135
      f-2     :     0.001466
      f+3     :     0.001786
      f-3     :     0.001338
  6 C s       :     3.172741  s :     3.172741
      pz      :     0.808089  p :     2.454338
      px      :     0.812098
      py      :     0.834151
      dz2     :     0.031559  d :     0.176218
      dxz     :     0.018827
      dyz     :     0.046040
      dx2y2   :     0.024013
      dxy     :     0.055779
      f0      :     0.001742  f :     0.014400
      f+1     :     0.001474
      f-1     :     0.002153
      f+2     :     0.002651
      f-2     :     0.002104
      f+3     :     0.002545
      f-3     :     0.001732
  7 C s       :     3.268656  s :     3.268656
      pz      :     0.956609  p :     2.923546
      px      :     1.013683
      py      :     0.953253
      dz2     :     0.019045  d :     0.069029
      dxz     :     0.010308
      dyz     :     0.010816
      dx2y2   :     0.020449
      dxy     :     0.008411
      f0      :     0.000522  f :     0.004657
      f+1     :     0.000928
      f-1     :     0.000767
      f+2     :     0.000415
      f-2     :     0.000756
      f+3     :     0.000516
      f-3     :     0.000754
  8 N s       :     3.344717  s :     3.344717
      pz      :     1.313744  p :     3.718175
      px      :     1.331674
      py      :     1.072757
      dz2     :     0.011547  d :     0.059284
      dxz     :     0.010792
      dyz     :     0.011355
      dx2y2   :     0.015213
      dxy     :     0.010377
      f0      :     0.000559  f :     0.004949
      f+1     :     0.001051
      f-1     :     0.000416
      f+2     :     0.000933
      f-2     :     0.001071
      f+3     :     0.000398
      f-3     :     0.000520
  9 C s       :     3.155225  s :     3.155225
      pz      :     0.756235  p :     2.353181
      px      :     0.767845
      py      :     0.829101
      dz2     :     0.054576  d :     0.262075
      dxz     :     0.028612
      dyz     :     0.058182
      dx2y2   :     0.065518
      dxy     :     0.055188
      f0      :     0.002135  f :     0.017587
      f+1     :     0.002546
      f-1     :     0.002202
      f+2     :     0.003503
      f-2     :     0.001639
      f+3     :     0.002991
      f-3     :     0.002572
 10 S s       :     5.856171  s :     5.856171
      pz      :     3.473995  p :    10.491601
      px      :     3.458984
      py      :     3.558621
      dz2     :     0.011211  d :     0.084789
      dxz     :     0.016134
      dyz     :     0.024775
      dx2y2   :     0.007055
      dxy     :     0.025614
      f0      :     0.001104  f :     0.010124
      f+1     :     0.000911
      f-1     :     0.001344
      f+2     :     0.000890
      f-2     :     0.003372
      f+3     :     0.001123
      f-3     :     0.001379
 11 N s       :     3.387514  s :     3.387514
      pz      :     1.399878  p :     3.767519
      px      :     1.358168
      py      :     1.009473
      dz2     :     0.006028  d :     0.058170
      dxz     :     0.008249
      dyz     :     0.014390
      dx2y2   :     0.013569
      dxy     :     0.015933
      f0      :     0.000469  f :     0.004440
      f+1     :     0.000468
      f-1     :     0.000603
      f+2     :     0.000694
      f-2     :     0.000636
      f+3     :     0.000765
      f-3     :     0.000805
 12 C s       :     3.121403  s :     3.121403
      pz      :     0.864472  p :     2.604927
      px      :     0.886056
      py      :     0.854399
      dz2     :     0.030977  d :     0.184206
      dxz     :     0.037067
      dyz     :     0.041236
      dx2y2   :     0.025973
      dxy     :     0.048953
      f0      :     0.001046  f :     0.011321
      f+1     :     0.001450
      f-1     :     0.001579
      f+2     :     0.001682
      f-2     :     0.002956
      f+3     :     0.001186
      f-3     :     0.001423
 13 C s       :     3.111686  s :     3.111686
      pz      :     0.887680  p :     2.735779
      px      :     0.924535
      py      :     0.923564
      dz2     :     0.018490  d :     0.110512
      dxz     :     0.011368
      dyz     :     0.031015
      dx2y2   :     0.022570
      dxy     :     0.027069
      f0      :     0.001038  f :     0.011347
      f+1     :     0.001639
      f-1     :     0.001205
[...]
      f-1     :     0.005152
      f+2     :     0.007304
      f-2     :     0.005109
      f+3     :     0.006457
      f-3     :     0.008440
 15 C s       :     2.705878  s :     2.705878
      pz      :     0.905373  p :     2.797293
      px      :     0.928032
      py      :     0.963889
      dz2     :     0.097176  d :     0.416814
      dxz     :     0.070310
      dyz     :     0.060814
      dx2y2   :     0.103343
      dxy     :     0.085171
      f0      :     0.003393  f :     0.041043
      f+1     :     0.005498
      f-1     :     0.006187
      f+2     :     0.007339
      f-2     :     0.006211
      f+3     :     0.006597
      f-3     :     0.005818
 16 C s       :     2.701915  s :     2.701915
      pz      :     0.938988  p :     2.869363
      px      :     0.959070
      py      :     0.971305
      dz2     :     0.046507  d :     0.390263
      dxz     :     0.057307
      dyz     :     0.089608
      dx2y2   :     0.092846
      dxy     :     0.103995
      f0      :     0.004304  f :     0.040245
      f+1     :     0.004893
      f-1     :     0.003994
      f+2     :     0.006015
      f-2     :     0.005326
      f+3     :     0.008422
      f-3     :     0.007292
 17 C s       :     2.701780  s :     2.701780
      pz      :     0.849755  p :     2.681131
      px      :     0.818393
      py      :     1.012983
      dz2     :     0.130214  d :     0.708014
      dxz     :     0.109503
      dyz     :     0.142536
      dx2y2   :     0.162049
      dxy     :     0.163712
      f0      :     0.009953  f :     0.099163
      f+1     :     0.016004
      f-1     :     0.009670
      f+2     :     0.016265
      f-2     :     0.014820
      f+3     :     0.015982
      f-3     :     0.016469
 18 O s       :     3.177198  s :     3.177198
      pz      :     1.419930  p :     4.346707
      px      :     1.425972
      py      :     1.500805
      dz2     :     0.008484  d :     0.075480
      dxz     :     0.017346
      dyz     :     0.019031
      dx2y2   :     0.015245
      dxy     :     0.015375
      f0      :     0.000611  f :     0.005060
      f+1     :     0.000722
      f-1     :     0.000413
      f+2     :     0.000757
      f-2     :     0.001010
      f+3     :     0.000689
      f-3     :     0.000860
 19 C s       :     2.695404  s :     2.695404
      pz      :     0.933416  p :     2.843947
      px      :     0.947820
      py      :     0.962711
      dz2     :     0.078469  d :     0.387820
      dxz     :     0.068271
      dyz     :     0.064397
      dx2y2   :     0.090177
      dxy     :     0.086505
      f0      :     0.003413  f :     0.040779
      f+1     :     0.005689
      f-1     :     0.005765
      f+2     :     0.007335
      f-2     :     0.006797
      f+3     :     0.006360
      f-3     :     0.005419
 20 H s       :     0.848075  s :     0.848075
      pz      :     0.041859  p :     0.151564
      px      :     0.050576
      py      :     0.059129
      dz2     :     0.004116  d :     0.027640
      dxz     :     0.004107
      dyz     :     0.004781
      dx2y2   :     0.007860
      dxy     :     0.006775
 21 H s       :     0.848452  s :     0.848452
      pz      :     0.040392  p :     0.151926
      px      :     0.049074
      py      :     0.062460
      dz2     :     0.002228  d :     0.027520
      dxz     :     0.003099
      dyz     :     0.006356
      dx2y2   :     0.008414
      dxy     :     0.007423
 22 H s       :     0.845199  s :     0.845199
      pz      :     0.069773  p :     0.151023
      px      :     0.040148
      py      :     0.041102
      dz2     :     0.009374  d :     0.027615
      dxz     :     0.007882
      dyz     :     0.007736
      dx2y2   :     0.001004
      dxy     :     0.001618
 23 H s       :     0.854570  s :     0.854570
      pz      :     0.076231  p :     0.147615
      px      :     0.040513
      py      :     0.030872
      dz2     :     0.008933  d :     0.027241
      dxz     :     0.008859
      dyz     :     0.007024
      dx2y2   :     0.000974
      dxy     :     0.001451
 24 H s       :     0.854339  s :     0.854339
      pz      :     0.044538  p :     0.144315
      px      :     0.041403
      py      :     0.058374
      dz2     :     0.004176  d :     0.026928
      dxz     :     0.003111
      dyz     :     0.006251
      dx2y2   :     0.006094
      dxy     :     0.007296
 25 H s       :     0.826153  s :     0.826153
      pz      :     0.038334  p :     0.150925
      px      :     0.072943
      py      :     0.039648
      dz2     :     0.002360  d :     0.027777
      dxz     :     0.008942
      dyz     :     0.000330
      dx2y2   :     0.007995
      dxy     :     0.008151
 26 H s       :     0.825548  s :     0.825548
      pz      :     0.069314  p :     0.151429
      px      :     0.042876
      py      :     0.039239
      dz2     :     0.009294  d :     0.027773
      dxz     :     0.007889
      dyz     :     0.007549
      dx2y2   :     0.002087
      dxy     :     0.000954
 27 H s       :     0.845606  s :     0.845606
      pz      :     0.038374  p :     0.150459
      px      :     0.040550
      py      :     0.071535
      dz2     :     0.002748  d :     0.027725
      dxz     :     0.000215
      dyz     :     0.008690
      dx2y2   :     0.007054
      dxy     :     0.009018
 28 H s       :     0.741704  s :     0.741704
      pz      :     0.065468  p :     0.253700
      px      :     0.067126
      py      :     0.121106
      dz2     :     0.005535  d :     0.061823
      dxz     :     0.000416
      dyz     :     0.019940
      dx2y2   :     0.015761
      dxy     :     0.020172
 29 H s       :     0.748900  s :     0.748900
      pz      :     0.107752  p :     0.254410
      px      :     0.098949
      py      :     0.047709
      dz2     :     0.019163  d :     0.061430
      dxz     :     0.013757
      dyz     :     0.009323
      dx2y2   :     0.010116
      dxy     :     0.009071
 30 H s       :     0.830331  s :     0.830331
      pz      :     0.050507  p :     0.153589
      px      :     0.054975
      py      :     0.048108
      dz2     :     0.005177  d :     0.029270
      dxz     :     0.006900
      dyz     :     0.005143
      dx2y2   :     0.005540
      dxy     :     0.006511
 31 H s       :     0.843978  s :     0.843978
      pz      :     0.054073  p :     0.157033
      px      :     0.065491
      py      :     0.037470
      dz2     :     0.005369  d :     0.027516
      dxz     :     0.006841
      dyz     :     0.003561
      dx2y2   :     0.005825
      dxy     :     0.005921
 32 H s       :     0.843018  s :     0.843018
      pz      :     0.036966  p :     0.151359
      px      :     0.040136
      py      :     0.074257
      dz2     :     0.002671  d :     0.026454
      dxz     :     0.000886
      dyz     :     0.007184
      dx2y2   :     0.007776
      dxy     :     0.007937
 33 H s       :     0.848354  s :     0.848354
      pz      :     0.059038  p :     0.158994
      px      :     0.048119
      py      :     0.051837
      dz2     :     0.006410  d :     0.027749
      dxz     :     0.004900
      dyz     :     0.006200
      dx2y2   :     0.005318
      dxy     :     0.004920
 34 H s       :     0.706324  s :     0.706324
      pz      :     0.114321  p :     0.347671
      px      :     0.086269
      py      :     0.147080
      dz2     :     0.023900  d :     0.099534
      dxz     :     0.012166
      dyz     :     0.024234
      dx2y2   :     0.019682
      dxy     :     0.019553
 35 H s       :     0.838135  s :     0.838135
      pz      :     0.038783  p :     0.156612
      px      :     0.041821
      py      :     0.076007
      dz2     :     0.002722  d :     0.027929
      dxz     :     0.000949
      dyz     :     0.007856
      dx2y2   :     0.008119
      dxy     :     0.008282


                      *****************************
                      * MAYER POPULATION ANALYSIS *
                      *****************************

  NA   - Mulliken gross atomic population
  ZA   - Total nuclear charge
  QA   - Mulliken gross atomic charge
  VA   - Mayer's total valence
  BVA  - Mayer's bonded valence
  FA   - Mayer's free valence

  ATOM       NA         ZA         QA         VA         BVA        FA
  0 C      6.2829     6.0000    -0.2829     3.8822     3.8822    -0.0000
  1 C      5.9601     6.0000     0.0399     3.8766     3.8766     0.0000
  2 O      8.3765     8.0000    -0.3765     2.0197     2.0197    -0.0000
  3 C      5.5500     6.0000     0.4500     4.2117     4.2117    -0.0000
  4 O      8.4218     8.0000    -0.4218     2.0830     2.0830    -0.0000
  5 C      6.2475     6.0000    -0.2475     3.6743     3.6743    -0.0000
  6 C      5.8177     6.0000     0.1823     3.8483     3.8483     0.0000
  7 C      6.2659     6.0000    -0.2659     3.9019     3.9019    -0.0000
  8 N      7.1271     7.0000    -0.1271     3.3094     3.3094    -0.0000
  9 C      5.7881     6.0000     0.2119     4.1549     4.1549     0.0000
 10 S     16.4427    16.0000    -0.4427     1.7524     1.7524    -0.0000
 11 N      7.2176     7.0000    -0.2176     3.2395     3.2395    -0.0000
 12 C      5.9219     6.0000     0.0781     3.9003     3.9003    -0.0000
 13 C      5.9693     6.0000     0.0307     3.7496     3.7496    -0.0000
 14 C      6.1876     6.0000    -0.1876     3.8390     3.8390    -0.0000
 15 C      6.1302     6.0000    -0.1302     3.7941     3.7941     0.0000
 16 C      6.2782     6.0000    -0.2782     3.7950     3.7950    -0.0000
 17 C      5.6850     6.0000     0.3150     3.8637     3.8637    -0.0000
 18 O      8.3560     8.0000    -0.3560     2.1190     2.1190    -0.0000
 19 C      6.2468     6.0000    -0.2468     3.8504     3.8504    -0.0000
 20 H      0.8974     1.0000     0.1026     0.9858     0.9858     0.0000
 21 H      0.9040     1.0000     0.0960     0.9792     0.9792    -0.0000
 22 H      0.8875     1.0000     0.1125     0.9851     0.9851    -0.0000
 23 H      0.8995     1.0000     0.1005     0.9597     0.9597    -0.0000
 24 H      0.9017     1.0000     0.0983     0.9735     0.9735     0.0000
 25 H      0.8680     1.0000     0.1320     0.9805     0.9805     0.0000
 26 H      0.8699     1.0000     0.1301     0.9804     0.9804    -0.0000
 27 H      0.9055     1.0000     0.0945     0.9854     0.9854    -0.0000
 28 H      0.8005     1.0000     0.1995     1.0211     1.0211    -0.0000
 29 H      0.7994     1.0000     0.2006     1.0153     1.0153    -0.0000
 30 H      0.8487     1.0000     0.1513     0.9890     0.9890     0.0000
 31 H      0.8447     1.0000     0.1553     0.9842     0.9842    -0.0000
 32 H      0.8377     1.0000     0.1623     0.9762     0.9762    -0.0000
 33 H      0.8682     1.0000     0.1318     0.9915     0.9915     0.0000
 34 H      0.7590     1.0000     0.2410     1.0103     1.0103    -0.0000
 35 H      0.8356     1.0000     0.1644     0.9896     0.9896    -0.0000

  Mayer bond orders larger than 0.100000
B(  0-C ,  1-C ) :   0.9828 B(  0-C , 20-H ) :   0.9744 B(  0-C , 21-H ) :   0.9734 
B(  0-C , 22-H ) :   0.9735 B(  1-C ,  2-O ) :   0.8964 B(  1-C , 23-H ) :   0.9704 
B(  1-C , 24-H ) :   0.9797 B(  2-O ,  3-C ) :   1.1093 B(  3-C ,  4-O ) :   1.9908 
B(  3-C ,  5-C ) :   1.0695 B(  5-C ,  6-C ) :   1.6343 B(  5-C , 12-C ) :   0.9569 
B(  6-C ,  7-C ) :   0.9647 B(  6-C ,  8-N ) :   1.1528 B(  7-C , 25-H ) :   0.9615 
B(  7-C , 26-H ) :   0.9584 B(  7-C , 27-H ) :   0.9907 B(  8-N ,  9-C ) :   1.1875 
B(  8-N , 28-H ) :   0.9464 B(  9-C , 10-S ) :   1.6040 B(  9-C , 11-N ) :   1.3110 
B( 11-N , 12-C ) :   0.9649 B( 11-N , 29-H ) :   0.9486 B( 12-C , 13-C ) :   0.9609 
B( 12-C , 30-H ) :   1.0002 B( 13-C , 14-C ) :   1.3514 B( 13-C , 19-C ) :   1.3802 
B( 14-C , 15-C ) :   1.3924 B( 14-C , 31-H ) :   0.9724 B( 15-C , 16-C ) :   1.3579 
B( 15-C , 32-H ) :   0.9705 B( 16-C , 17-C ) :   1.3330 B( 16-C , 33-H ) :   0.9847 
B( 17-C , 18-O ) :   1.1061 B( 17-C , 19-C ) :   1.3649 B( 18-O , 34-H ) :   0.9794 
B( 19-C , 35-H ) :   0.9591 

-------
TIMINGS
-------

Total SCF time: 0 days 1 hours 28 min 44 sec 

Total time                  ....    5324.983 sec
Sum of individual times     ....    5316.105 sec  ( 99.8%)

Fock matrix formation       ....    5291.598 sec  ( 99.4%)
Diagonalization             ....       4.394 sec  (  0.1%)
Density matrix formation    ....       0.188 sec  (  0.0%)
Population analysis         ....       0.643 sec  (  0.0%)
Initial guess               ....       5.330 sec  (  0.1%)
Orbital Transformation      ....       0.000 sec  (  0.0%)
Orbital Orthonormalization  ....       0.000 sec  (  0.0%)
DIIS solution               ....       6.623 sec  (  0.1%)
SOSCF solution              ....       6.210 sec  (  0.1%)

------------------------------------------------------------------------------
                                ORCA  MP2 
------------------------------------------------------------------------------

Freezing NCore=48 chemical core electrons

-------------
RI-MP2 ENERGY
-------------
Dimension of the basis                    ...  828
Memory devoted to MP2                     ...  256 MB   
Data format for buffers                   ... DOUBLE
Compression type for matrix containers    ... UNCOMPRESSED
Overall scaling of the MP2 energy         ...   1.000e+00
Calculating two index integrals           ... done (    0.036 sec)
Cholesky decomposition of V**-1           ... done (    1.615 sec)

-----------------
RI-TRANSFORMATION (AUX index driven)
-----------------

Dimension of the orbital-basis         ... 828
Dimension of the aux-basis             ... 2141
Transformation of internal/external MOs...   24-  76 to   77- 827
Number Format for Storage              ... Double (8 Byte)
Integral mode                          ... Direct

First Phase: integral generation and transformation of MO indices
  Aux angular momentum 0               ... done (    8.288 sec)
  Aux angular momentum 1               ... done (   15.528 sec)
  Aux angular momentum 2               ... done (   17.931 sec)
  Aux angular momentum 3               ... done (   14.950 sec)
  Aux angular momentum 4               ... done (    5.340 sec)
Closing buffer VIA ( 0.63 GB; CompressionRatio= 1.00)
  Phase 1 completed in    62.264 sec
Second Phase: sorting and transformation of aux index

IA-Transformation
Memory available                       ... 167 MB 
Max. # MO pairs treated in a batch     ... 12    
# of internal orbitals                 ... 53
# batches for internal orbitals        ... 5
Closing buffer IAV ( 0.63 GB; CompressionRatio= 1.00)
(ia|v) transformation done in    73.976 sec

  Phase 2 completed in    74.011 sec
RI-Integral transformation completed in   136.324 sec
Opening buffers                              ... done

Starting loop over batches of integrals:

Operator 0  - window                       ... ( 24- 76)x( 77-827)
Operator 0  - Memory available             ...   256 MB
Operator 0  - Memory needed per MO         ...  12.3 MB
Operator 0  - Number of orbitals per batch ... 13
Operator 0  - Number of batches            ... 5

OPERATOR  0   PASS   0:  MOs    24 ...   36
  Reading integrals       ... ok
  Internal MO  26
  Internal MO  29
  Internal MO  32
  Internal MO  35
OPERATOR  0   PASS   1:  MOs    37 ...   49
  Reading integrals       ... ok
  Internal MO  38
  Internal MO  41
  Internal MO  44
  Internal MO  47
OPERATOR  0   PASS   2:  MOs    50 ...   62
  Reading integrals       ... ok
  Internal MO  50
  Internal MO  53
  Internal MO  56
  Internal MO  59
  Internal MO  62
OPERATOR  0   PASS   3:  MOs    63 ...   75
  Reading integrals       ... ok
  Internal MO  65
  Internal MO  68
  Internal MO  71
  Internal MO  74
OPERATOR  0   PASS   4:  MOs    76 ...   76
  Reading integrals       ... ok
Time spent in pair loops =   442.185 sec
Deleting buffer (Ka|jb)[aa] ...done

-----------------------------------------------
 RI-MP2 CORRELATION ENERGY:     -3.530627114 Eh
-----------------------------------------------


-------
TIMINGS
-------

Total time                :  580.298 sec
Integral trafo            :  136.333 sec ( 23.5%)
I/O of integrals          :    8.020 sec (  1.4%)
K(i,j) Operators          :  378.501 sec ( 65.2%)
T(i,j) pair energies      :    3.513 sec (  0.6%)
V-calculation             :    0.036 sec (  0.0%)
V**(-1/2)                 :    1.615 sec (  0.3%)
Gamma(ia|P)               :    0.000 sec (  0.0%)
Gamma-Trafo               :    0.000 sec (  0.0%)
D(virtual)                :    0.000 sec (  0.0%)
D(internal)               :    0.000 sec (  0.0%)
W(virtual)                :    0.000 sec (  0.0%)
W(internal)               :    0.000 sec (  0.0%)
L(virtual)                :    0.000 sec (  0.0%)
L(internal)               :    0.000 sec (  0.0%)
G(D)                      :    0.000 sec (  0.0%)
G(Z)                      :    0.000 sec (  0.0%)
Z-Vector Solution         :    0.000 sec (  0.0%)
3-Index Derivative        :    0.000 sec (  0.0%)
2-Index Derivative        :    0.000 sec (  0.0%)
Separable Gradient        :    0.000 sec (  0.0%)


---------------------------------------
MP2 TOTAL ENERGY:    -1274.330003822 Eh
---------------------------------------

-------------------------   --------------------
FINAL SINGLE POINT ENERGY     -1274.330003822434
-------------------------   --------------------


                            ***************************************
                            *     ORCA property calculations      *
                            ***************************************


  WARNING: The energy has been calculated at the MP2 level but the densities
           used in the property calculations are still SCF densities
           MP2 response densities have not been calculated 
           use %mp2 Density relaxed end
           or  %mp2 Density unrelaxed end

                                    ---------------------
                                    Active property flags
                                    ---------------------
   (+) Dipole Moment


------------------------------------------------------------------------------
                       ORCA ELECTRIC PROPERTIES CALCULATION
------------------------------------------------------------------------------

Dipole Moment Calculation                       ... on
Quadrupole Moment Calculation                   ... off
Polarizability Calculation                      ... off
GBWName                                         ... CONFS/Conf554.orca.gbw
Electron density file                           ... CONFS/Conf554.orca.scfp
The origin for moment calculation is the CENTER OF MASS  = (31.900011, 33.066449 33.426421)

-------------
DIPOLE MOMENT
-------------
                                X             Y             Z
Electronic contribution:      9.65217       9.99664       8.69077
Nuclear contribution   :    -10.67654     -11.76472      -8.84370
                        -----------------------------------------
Total Dipole Moment    :     -1.02437      -1.76808      -0.15292
                        -----------------------------------------
Magnitude (a.u.)       :      2.04911
Magnitude (Debye)      :      5.20841



--------------------
Rotational spectrum 
--------------------
 
Rotational constants in cm-1:     0.011650     0.008596     0.005943 
Rotational constants in MHz :   349.256365   257.690076   178.171163 

 Dipole components along the rotational axes: 
x,y,z [a.u.] :    -2.047444     0.079665    -0.021438 
x,y,z [Debye]:    -5.204190     0.202492    -0.054491 

 

Timings for individual modules:

Sum of individual times         ...     5907.524 sec (=  98.459 min)
GTO integral calculation        ...        1.344 sec (=   0.022 min)   0.0 %
SCF iterations                  ...     5325.031 sec (=  88.751 min)  90.1 %
MP2 module                      ...      581.148 sec (=   9.686 min)   9.8 %
                             ****ORCA TERMINATED NORMALLY****
TOTAL RUN TIME: 0 days 1 hours 38 minutes 30 seconds 253 msec
