
                                 *****************
                                 * O   R   C   A *
                                 *****************

           --- An Ab Initio, DFT and Semiempirical electronic structure package ---

                  #######################################################
                  #                        -***-                        #
                  #          Department of theory and spectroscopy      #
                  #               Directorship: Frank Neese             #
                  #        Max Planck Institute fuer Kohlenforschung    #
                  #                Kaiser Wilhelm Platz 1               #
                  #                 D-45470 Muelheim/Ruhr               #
                  #                      Germany                        #
                  #                                                     #
                  #                  All rights reserved                #
                  #                        -***-                        #
                  #######################################################


                         Program Version 4.2.0 -  RELEASE  -


 With contributions from (in alphabetic order):
   Daniel Aravena         : Magnetic Suceptibility
   Michael Atanasov       : Ab Initio Ligand Field Theory (pilot matlab implementation)
   Alexander A. Auer      : GIAO ZORA, VPT2
   Ute Becker             : Parallelization
   Giovanni Bistoni       : ED, misc. LED, open-shell LED, HFLED
   Martin Brehm           : Molecular dynamics
   Dmytro Bykov           : SCF Hessian
   Vijay G. Chilkuri      : MRCI spin determinant printing, contributions to CSF-ICE
   Dipayan Datta          : RHF DLPNO-CCSD density
   Achintya Kumar Dutta   : EOM-CC, STEOM-CC
   Dmitry Ganyushin       : Spin-Orbit,Spin-Spin,Magnetic field MRCI
   Miquel Garcia          : C-PCM Hessian, Gaussian charge scheme
   Yang Guo               : DLPNO-NEVPT2, CIM, IAO-localization
   Andreas Hansen         : Spin unrestricted coupled pair/coupled cluster methods
   Benjamin Helmich-Paris : CASSCF linear response (MC-RPA)
   Lee Huntington         : MR-EOM, pCC
   Robert Izsak           : Overlap fitted RIJCOSX, COSX-SCS-MP3, EOM
   Christian Kollmar      : KDIIS, OOCD, Brueckner-CCSD(T), CCSD density
   Simone Kossmann        : Meta GGA functionals, TD-DFT gradient, OOMP2, MP2 Hessian
   Martin Krupicka        : AUTO-CI
   Lucas Lang             : DCDCAS
   Dagmar Lenk            : GEPOL surface, SMD
   Dimitrios Liakos       : Extrapolation schemes; Compound Job, initial MDCI parallelization
   Dimitrios Manganas     : Further ROCIS development; embedding schemes
   Dimitrios Pantazis     : SARC Basis sets
   Taras Petrenko         : DFT Hessian,TD-DFT gradient, ASA, ECA, R-Raman, ABS, FL, XAS/XES, NRVS
   Peter Pinski           : DLPNO-MP2, DLPNO-MP2 Gradient
   Christoph Reimann      : Effective Core Potentials
   Marius Retegan         : Local ZFS, SOC
   Christoph Riplinger    : Optimizer, TS searches, QM/MM, DLPNO-CCSD(T), (RO)-DLPNO pert. Triples
   Tobias Risthaus        : Range-separated hybrids, TD-DFT gradient, RPA, STAB
   Michael Roemelt        : Original ROCIS implementation
   Masaaki Saitow         : Open-shell DLPNO-CCSD energy and density
   Barbara Sandhoefer     : DKH picture change effects
   Avijit Sen             : IP-ROCIS
   Kantharuban Sivalingam : CASSCF convergence, NEVPT2, FIC-MRCI
   Bernardo de Souza      : ESD, SOC TD-DFT
   Georgi Stoychev        : AutoAux, RI-MP2 NMR
   Willem Van den Heuvel  : Paramagnetic NMR
   Boris Wezisla          : Elementary symmetry handling
   Frank Wennmohs         : Technical directorship


 We gratefully acknowledge several colleagues who have allowed us to
 interface, adapt or use parts of their codes:
   Stefan Grimme, W. Hujo, H. Kruse,             : VdW corrections, initial TS optimization,
                  C. Bannwarth                     DFT functionals, gCP, sTDA/sTD-DF
   Ed Valeev, F. Pavosevic, A. Kumar             : LibInt (2-el integral package), F12 methods
   Garnet Chan, S. Sharma, J. Yang, R. Olivares  : DMRG
   Ulf Ekstrom                                   : XCFun DFT Library
   Mihaly Kallay                                 : mrcc  (arbitrary order and MRCC methods)
   Andreas Klamt, Michael Diedenhofen            : otool_cosmo (COSMO solvation model)
   Jiri Pittner, Ondrej Demel                    : Mk-CCSD
   Frank Weinhold                                : gennbo (NPA and NBO analysis)
   Christopher J. Cramer and Donald G. Truhlar   : smd solvation model
   Lars Goerigk                                  : TD-DFT with DH, B97 family of functionals
   V. Asgeirsson, H. Jonsson                     : NEB implementation
   FAccTs GmbH                                   : IRC, NEB, NEB-TS, Multilevel, MM, QM/MM, CI optimization
   S Lehtola, MJT Oliveira, MAL Marques          : LibXC Library


 Your calculation uses the libint2 library for the computation of 2-el integrals
 For citations please refer to: http://libint.valeyev.net

 Your ORCA version has been built with support for libXC version: 4.2.3
 For citations please refer to: https://tddft.org/programs/libxc/

 This ORCA versions uses:
   CBLAS   interface :  Fast vector & matrix operations
   LAPACKE interface :  Fast linear algebra routines
   SCALAPACK package :  Parallel linear algebra routines


----- Orbital basis set information -----
Your calculation utilizes the basis: cc-pVTZ 
       H, B-Ne : Obtained from the ccRepo (grant-hill.group.shef.ac.uk/ccrepo) Feb. 2017
                 T. H. Dunning, Jr., J. Chem. Phys. 90, 1007 (1989)
            He : Obtained from the ccRepo (grant-hill.group.shef.ac.uk/ccrepo) Feb. 2017
                 D. E. Woon, T. H. Dunning, Jr., J. Chem. Phys. 100, 2975 (1994)
  Li-Be, Na-Mg : Obtained from the ccRepo (grant-hill.group.shef.ac.uk/ccrepo) Feb. 2017
                 B. P. Prascher, D. E. Woon, K. A. Peterson, T. H. Dunning, Jr., A. K. Wilson, Theor. Chem. Acc. 128, 69 (2011)
         Al-Ar : Obtained from the ccRepo (grant-hill.group.shef.ac.uk/ccrepo) Feb. 2017
                 D. E. Woon, T. H. Dunning, Jr., J. Chem. Phys. 98, 1358 (1993)
            Ca : Obtained from the Peterson Research Group Website (tyr0.chem.wsu.edu/~kipeters) Feb. 2017
                 J. Koput, K. A. Peterson, J. Phys. Chem. 106, 9595 (2002)
         Sc-Zn : Obtained from the ccRepo (grant-hill.group.shef.ac.uk/ccrepo) Feb. 2017
                 N. B. Balabanov, K. A. Peterson, J. Chem. Phys. 123, 064107 (2005)
                 N. B. Balabanov, K. A. Peterson, J. Chem. Phys. 125, 074110 (2006)
         Ga-Kr : Obtained from the ccRepo (grant-hill.group.shef.ac.uk/ccrepo) Feb. 2017
                 A. K. Wilson, D. E. Woon, K. A. Peterson, T. H. Dunning, Jr., J. Chem. Phys. 110, 7667 (1999)
             Y : Obtained from the ccRepo (grant-hill.group.shef.ac.uk/ccrepo) Feb. 2017
                 K. A. Peterson, D. Figgen, M. Dolg, H. Stoll, J. Chem. Phys. 126, 124101 (2007)
        Ag, Au : Obtained from the Peterson Research Group Website (tyr0.chem.wsu.edu/~kipeters) Feb. 2017
                 K. A. Peterson, C. Puzzarini, Theor. Chem. Acc. 114, 283 (2005)

----- AuxC basis set information -----
Your calculation utilizes the auxiliary basis: cc-pVTZ/C 
  Obtained from the EMSL Basis Set Exchange (bse.pnl.gov) Feb. 2017
  H-He, B-F, Al-Ar, Ga-Kr : F. Weigend, A. Kohn, C. Hattig, J. Chem. Phys. 116, 3175 (2002)
             Li-Be, Na-Mg : C. Haettig, Phys. Chem. Chem. Phys. 7, 59 (2005)
                       Ne : C. Haettig, Phys. Chem. Chem. Phys. 7, 59 (2005)
                            F. Weigend, A. Kohn, C. Hattig, J. Chem. Phys. 116, 3175 (2002)
                    Sc-Zn : J. G. Hill, J. A. Platts, J. Chem. Phys. 128, 044104 (2008)

================================================================================
                                        WARNINGS
                       Please study these warnings very carefully!
================================================================================


WARNING: No MP2 level density has been requested!
         To caclulate MP2 level properties use
         %mp2 Density relaxed end
         or
         %mp2 Density unrelaxed end

WARNING: Post HF methods need fully converged wavefunctions
  ===> : Setting SCFConvForced true
         You can overwrite this default with %scf ConvForced false 


INFO   : the flag for use of LIBINT has been found!

================================================================================
                                       INPUT FILE
================================================================================
NAME = CONFS/Conf180.orca
|  1> ! ri-mp2 cc-pvtz cc-pvtz/c TightSCF NoKeepInts
|  2> 
|  3> %scf
|  4>   MaxCore 4096
|  5> end
|  6> *xyz  0  1
|  7>     C       14.9471118   14.6315871   16.4927088
|  8>     C       15.6492003   15.0731289   15.1994116
|  9>     O       16.8385826   15.8210771   15.5246264
| 10>     C       16.8590832   17.1377461   15.1708810
| 11>     O       16.6209601   17.4744407   14.0240058
| 12>     C       17.0147562   18.0797673   16.3358405
| 13>     C       16.9413231   19.4225019   16.1367400
| 14>     C       16.3653918   20.1445454   14.9354839
| 15>     N       17.4124103   20.3228458   17.0946316
| 16>     C       18.1851962   19.9730454   18.1675003
| 17>     S       18.8197196   21.1011644   19.1971813
| 18>     N       18.4302639   18.6335557   18.3280660
| 19>     C       17.7995632   17.5498049   17.5507517
| 20>     C       17.0716028   16.5622276   18.4501104
| 21>     C       17.6235113   15.2954790   18.7158078
| 22>     C       16.9797803   14.4073049   19.5942793
| 23>     C       15.7768919   14.7907185   20.2122712
| 24>     C       15.2311684   16.0563677   19.9561315
| 25>     O       14.0723572   16.4305069   20.5541747
| 26>     C       15.8766078   16.9401821   19.0854432
| 27>     H       15.6213243   14.0329959   17.1155869
| 28>     H       14.0674715   14.0196131   16.2600362
| 29>     H       14.6104450   15.5014903   17.0676559
| 30>     H       15.9311365   14.1834385   14.6216963
| 31>     H       14.9546085   15.6634665   14.5854513
| 32>     H       15.4145047   19.6914252   14.6277557
| 33>     H       17.0515335   20.0798515   14.0811224
| 34>     H       16.1692162   21.2060427   15.1273858
| 35>     H       17.2667713   21.3115619   16.9670325
| 36>     H       18.9815486   18.4025488   19.1449890
| 37>     H       18.7016327   17.0868849   17.1259722
| 38>     H       18.5540909   14.9987707   18.2391640
| 39>     H       17.4124539   13.4281875   19.7927403
| 40>     H       15.2753582   14.1076058   20.8899064
| 41>     H       13.8088271   15.7152908   21.1526481
| 42>     H       15.4505952   17.9228283   18.9128101
| 43> *
| 44> 
| 45>                          ****END OF INPUT****
================================================================================

                       ****************************
                       * Single Point Calculation *
                       ****************************

---------------------------------
CARTESIAN COORDINATES (ANGSTROEM)
---------------------------------
  C     14.947112   14.631587   16.492709
  C     15.649200   15.073129   15.199412
  O     16.838583   15.821077   15.524626
  C     16.859083   17.137746   15.170881
  O     16.620960   17.474441   14.024006
  C     17.014756   18.079767   16.335840
  C     16.941323   19.422502   16.136740
  C     16.365392   20.144545   14.935484
  N     17.412410   20.322846   17.094632
  C     18.185196   19.973045   18.167500
  S     18.819720   21.101164   19.197181
  N     18.430264   18.633556   18.328066
  C     17.799563   17.549805   17.550752
  C     17.071603   16.562228   18.450110
  C     17.623511   15.295479   18.715808
  C     16.979780   14.407305   19.594279
  C     15.776892   14.790718   20.212271
  C     15.231168   16.056368   19.956132
  O     14.072357   16.430507   20.554175
  C     15.876608   16.940182   19.085443
  H     15.621324   14.032996   17.115587
  H     14.067471   14.019613   16.260036
  H     14.610445   15.501490   17.067656
  H     15.931136   14.183438   14.621696
  H     14.954609   15.663466   14.585451
  H     15.414505   19.691425   14.627756
  H     17.051534   20.079852   14.081122
  H     16.169216   21.206043   15.127386
  H     17.266771   21.311562   16.967032
  H     18.981549   18.402549   19.144989
  H     18.701633   17.086885   17.125972
  H     18.554091   14.998771   18.239164
  H     17.412454   13.428187   19.792740
  H     15.275358   14.107606   20.889906
  H     13.808827   15.715291   21.152648
  H     15.450595   17.922828   18.912810

----------------------------
CARTESIAN COORDINATES (A.U.)
----------------------------
  NO LB      ZA    FRAG     MASS         X           Y           Z
   0 C     6.0000    0    12.011   28.245948   27.649693   31.166703
   1 C     6.0000    0    12.011   29.572703   28.484086   28.722725
   2 O     8.0000    0    15.999   31.820310   29.897503   29.337292
   3 C     6.0000    0    12.011   31.859050   32.385647   28.668810
   4 O     8.0000    0    15.999   31.409063   33.021907   26.501530
   5 C     6.0000    0    12.011   32.153229   34.165809   30.870265
   6 C     6.0000    0    12.011   32.014461   36.703209   30.494019
   7 C     6.0000    0    12.011   30.926109   38.067674   28.223974
   8 N     7.0000    0    14.007   32.904687   38.404613   32.304172
   9 C     6.0000    0    12.011   34.365041   37.743586   34.331600
  10 S    16.0000    0    32.060   35.564116   39.875422   36.277415
  11 N     7.0000    0    14.007   34.828151   35.212317   34.635025
  12 C     6.0000    0    12.011   33.636300   33.164325   33.166114
  13 C     6.0000    0    12.011   32.260654   31.298074   34.865656
  14 C     6.0000    0    12.011   33.303610   28.904266   35.367751
  15 C     6.0000    0    12.011   32.087135   27.225861   37.027822
  16 C     6.0000    0    12.011   29.814005   27.950407   38.195657
  17 C     6.0000    0    12.011   28.782737   30.342138   37.711623
  18 O     8.0000    0    15.999   26.592901   31.049158   38.841761
  19 C     6.0000    0    12.011   30.002441   32.012305   36.066261
  20 H     1.0000    0     1.008   29.520025   26.518519   32.343772
  21 H     1.0000    0     1.008   26.583669   26.493229   30.727015
  22 H     1.0000    0     1.008   27.609740   29.293571   32.253195
  23 H     1.0000    0     1.008   30.105485   26.802814   27.631002
  24 H     1.0000    0     1.008   28.260115   29.599662   27.562508
  25 H     1.0000    0     1.008   29.129192   37.211401   27.642452
  26 H     1.0000    0     1.008   32.222728   37.945420   26.609465
  27 H     1.0000    0     1.008   30.555390   40.073613   28.586616
  28 H     1.0000    0     1.008   32.629469   40.273015   32.063045
  29 H     1.0000    0     1.008   35.869928   34.775777   36.178786
  30 H     1.0000    0     1.008   35.340964   32.289533   32.363397
  31 H     1.0000    0     1.008   35.062150   28.343569   34.467025
  32 H     1.0000    0     1.008   32.904769   25.375597   37.402859
  33 H     1.0000    0     1.008   28.866244   26.659511   39.476202
  34 H     1.0000    0     1.008   26.094901   29.697596   39.972712
  35 H     1.0000    0     1.008   29.197394   33.869237   35.740032

--------------------------------
INTERNAL COORDINATES (ANGSTROEM)
--------------------------------
 C      0   0   0     0.000000000000     0.00000000     0.00000000
 C      1   0   0     1.536393527228     0.00000000     0.00000000
 O      2   1   0     1.442158601394   109.63938987     0.00000000
 C      3   2   1     1.363515067090   117.04614615   245.34312263
 O      4   3   2     1.218765190181   120.52824926   306.93808359
 C      4   3   2     1.506243227642   113.88012424   119.41111274
 C      6   4   3     1.359400469072   119.92619740   185.34629500
 C      7   6   4     1.515275518181   127.39520006    17.30128209
 N      7   6   4     1.396459310407   121.20767732   196.66621203
 C      9   7   6     1.367700849791   124.31818284    12.31272787
 S     10   9   7     1.653939353504   122.05136918   174.69787581
 N     10   9   7     1.371157240438   116.27610614   356.04139949
 C     12  10   9     1.475302236989   125.41693672   351.94108056
 C     13  12  10     1.521210484683   111.71445512   237.79582024
 C     14  13  12     1.407071468100   120.55719406   255.07388583
 C     15  14  13     1.405330924937   120.48699975   177.12964371
 C     16  15  14     1.405653043957   119.63170274   359.90009233
 C     17  16  15     1.401887863500   119.93741641   359.62387337
 O     18  17  16     1.356642623276   120.06286081   180.18924061
 C     18  17  16     1.398505641203   120.30794493     0.13289552
 H      1   2   3     1.095833494347   110.75062406   302.35785376
 H      1   2   3     1.096547205026   110.38670300   182.77610698
 H      1   2   3     1.095737322259   110.72836631    63.31174938
 H      2   1   3     1.097630172953   109.11613118   119.43311599
 H      2   1   3     1.099046632576   109.62140071   237.12976013
 H      8   7   6     1.097360851165   110.78747698    43.86402855
 H      8   7   6     1.097683609178   110.57088962   284.90913007
 H      8   7   6     1.096397611803   112.99132956   164.02677816
 H      9   7   6     1.007497779174   119.80667981   185.96337831
 H     12  10   9     1.012246114456   114.50591350   181.71621709
 H     13  12  10     1.099300656259    99.33050362   121.38770654
 H     15  14  13     1.086831872602   119.92135955   357.09471551
 H     16  15  14     1.088698349241   120.01958665   179.86860168
 H     17  16  15     1.085066116610   119.89309855   179.89067877
 H     19  18  17     0.969098856574   107.51645214     3.20777122
 H     20  18  17     1.084842143793   119.35851065   181.14772339

---------------------------
INTERNAL COORDINATES (A.U.)
---------------------------
 C      0   0   0     0.000000000000     0.00000000     0.00000000
 C      1   0   0     2.903363000390     0.00000000     0.00000000
 O      2   1   0     2.725284798314   109.63938987     0.00000000
 C      3   2   1     2.576670056276   117.04614615   245.34312263
 O      4   3   2     2.303132430999   120.52824926   306.93808359
 C      4   3   2     2.846387191318   113.88012424   119.41111274
 C      6   4   3     2.568894592870   119.92619740   185.34629500
 C      7   6   4     2.863455746798   127.39520006    17.30128209
 N      7   6   4     2.638925653833   121.20767732   196.66621203
 C      9   7   6     2.584580039236   124.31818284    12.31272787
 S     10   9   7     3.125492420238   122.05136918   174.69787581
 N     10   9   7     2.591111670971   116.27610614   356.04139949
 C     12  10   9     2.787917192671   125.41693672   351.94108056
 C     13  12  10     2.874671208100   111.71445512   237.79582024
 C     14  13  12     2.658979725563   120.55719406   255.07388583
 C     15  14  13     2.655690575661   120.48699975   177.12964371
 C     16  15  14     2.656299292391   119.63170274   359.90009233
 C     17  16  15     2.649184132483   119.93741641   359.62387337
 O     18  17  16     2.563683019596   120.06286081   180.18924061
 C     18  17  16     2.642792658618   120.30794493     0.13289552
 H      1   2   3     2.070825192694   110.75062406   302.35785376
 H      1   2   3     2.072173910416   110.38670300   182.77610698
 H      1   2   3     2.070643453785   110.72836631    63.31174938
 H      2   1   3     2.074220423210   109.11613118   119.43311599
 H      2   1   3     2.076897143977   109.62140071   237.12976013
 H      8   7   6     2.073711478789   110.78747698    43.86402855
 H      8   7   6     2.074321403041   110.57088962   284.90913007
 H      8   7   6     2.071891220192   112.99132956   164.02677816
 H      9   7   6     1.903894883173   119.80667981   185.96337831
 H     12  10   9     1.912867936447   114.50591350   181.71621709
 H     13  12  10     2.077377179169    99.33050362   121.38770654
 H     15  14  13     2.053814592835   119.92135955   357.09471551
 H     16  15  14     2.057341722518   120.01958665   179.86860168
 H     17  16  15     2.050477797591   119.89309855   179.89067877
 H     19  18  17     1.831331435621   107.51645214     3.20777122
 H     20  18  17     2.050054550304   119.35851065   181.14772339

---------------------
BASIS SET INFORMATION
---------------------
There are 5 groups of distinct atoms

 Group   1 Type C   : 18s5p2d1f contracted to 4s3p2d1f pattern {8811/311/11/1}
 Group   2 Type O   : 18s5p2d1f contracted to 4s3p2d1f pattern {8811/311/11/1}
 Group   3 Type N   : 18s5p2d1f contracted to 4s3p2d1f pattern {8811/311/11/1}
 Group   4 Type S   : 41s16p2d1f contracted to 5s4p2d1f pattern {13131311/7711/11/1}
 Group   5 Type H   : 5s2p1d contracted to 3s2p1d pattern {311/11/1}

Atom   0C    basis set group =>   1
Atom   1C    basis set group =>   1
Atom   2O    basis set group =>   2
Atom   3C    basis set group =>   1
Atom   4O    basis set group =>   2
Atom   5C    basis set group =>   1
Atom   6C    basis set group =>   1
Atom   7C    basis set group =>   1
Atom   8N    basis set group =>   3
Atom   9C    basis set group =>   1
Atom  10S    basis set group =>   4
Atom  11N    basis set group =>   3
Atom  12C    basis set group =>   1
Atom  13C    basis set group =>   1
Atom  14C    basis set group =>   1
Atom  15C    basis set group =>   1
Atom  16C    basis set group =>   1
Atom  17C    basis set group =>   1
Atom  18O    basis set group =>   2
Atom  19C    basis set group =>   1
Atom  20H    basis set group =>   5
Atom  21H    basis set group =>   5
Atom  22H    basis set group =>   5
Atom  23H    basis set group =>   5
Atom  24H    basis set group =>   5
Atom  25H    basis set group =>   5
Atom  26H    basis set group =>   5
Atom  27H    basis set group =>   5
Atom  28H    basis set group =>   5
Atom  29H    basis set group =>   5
Atom  30H    basis set group =>   5
Atom  31H    basis set group =>   5
Atom  32H    basis set group =>   5
Atom  33H    basis set group =>   5
Atom  34H    basis set group =>   5
Atom  35H    basis set group =>   5
---------------------------------
AUXILIARY/C BASIS SET INFORMATION
---------------------------------
There are 5 groups of distinct atoms

 Group   1 Type C   : 8s6p5d3f1g contracted to 8s6p5d3f1g pattern {11111111/111111/11111/111/1}
 Group   2 Type O   : 8s6p5d3f1g contracted to 8s6p5d3f1g pattern {11111111/111111/11111/111/1}
 Group   3 Type N   : 8s6p5d3f1g contracted to 8s6p5d3f1g pattern {11111111/111111/11111/111/1}
 Group   4 Type S   : 10s8p7d5f2g contracted to 10s8p7d5f2g pattern {1111111111/11111111/1111111/11111/11}
 Group   5 Type H   : 4s3p2d1f contracted to 4s3p2d1f pattern {1111/111/11/1}

Atom   0C    basis set group =>   1
Atom   1C    basis set group =>   1
Atom   2O    basis set group =>   2
Atom   3C    basis set group =>   1
Atom   4O    basis set group =>   2
Atom   5C    basis set group =>   1
Atom   6C    basis set group =>   1
Atom   7C    basis set group =>   1
Atom   8N    basis set group =>   3
Atom   9C    basis set group =>   1
Atom  10S    basis set group =>   4
Atom  11N    basis set group =>   3
Atom  12C    basis set group =>   1
Atom  13C    basis set group =>   1
Atom  14C    basis set group =>   1
Atom  15C    basis set group =>   1
Atom  16C    basis set group =>   1
Atom  17C    basis set group =>   1
Atom  18O    basis set group =>   2
Atom  19C    basis set group =>   1
Atom  20H    basis set group =>   5
Atom  21H    basis set group =>   5
Atom  22H    basis set group =>   5
Atom  23H    basis set group =>   5
Atom  24H    basis set group =>   5
Atom  25H    basis set group =>   5
Atom  26H    basis set group =>   5
Atom  27H    basis set group =>   5
Atom  28H    basis set group =>   5
Atom  29H    basis set group =>   5
Atom  30H    basis set group =>   5
Atom  31H    basis set group =>   5
Atom  32H    basis set group =>   5
Atom  33H    basis set group =>   5
Atom  34H    basis set group =>   5
Atom  35H    basis set group =>   5
------------------------------------------------------------------------------
                           ORCA GTO INTEGRAL CALCULATION
------------------------------------------------------------------------------

                         BASIS SET STATISTICS AND STARTUP INFO

 # of primitive gaussian shells          ...  682
 # of primitive gaussian functions       ... 1312
 # of contracted shells                  ...  298
 # of contracted basis functions         ...  828
 Highest angular momentum                ...    3
 Maximum contraction depth               ...   13
 Integral package used                   ... LIBINT
 Integral threshhold            Thresh   ...  2.500e-11
 Primitive cut-off              TCut     ...  2.500e-12


------------------------------ INTEGRAL EVALUATION ----------------------------


 * One electron integrals 
 Pre-screening matrix                    ... done
 Shell pair data                         ... done (   0.012 sec)

-------------------------------------------------------------------------------
                                 ORCA SCF
-------------------------------------------------------------------------------

------------
SCF SETTINGS
------------
Hamiltonian:
 Ab initio Hamiltonian  Method          .... Hartree-Fock(GTOs)


General Settings:
 Integral files         IntName         .... CONFS/Conf180.orca
 Hartree-Fock type      HFTyp           .... RHF
 Total Charge           Charge          ....    0
 Multiplicity           Mult            ....    1
 Number of Electrons    NEL             ....  154
 Basis Dimension        Dim             ....  828
 Nuclear Repulsion      ENuc            ....   1711.7536888712 Eh

Convergence Acceleration:
 DIIS                   CNVDIIS         .... on
   Start iteration      DIISMaxIt       ....    12
   Startup error        DIISStart       ....  0.200000
   # of expansion vecs  DIISMaxEq       ....     5
   Bias factor          DIISBfac        ....   1.050
   Max. coefficient     DIISMaxC        ....  10.000
 Newton-Raphson         CNVNR           .... off
 SOSCF                  CNVSOSCF        .... on
   Start iteration      SOSCFMaxIt      ....   150
   Startup grad/error   SOSCFStart      ....  0.003300
 Level Shifting         CNVShift        .... on
   Level shift para.    LevelShift      ....    0.2500
   Turn off err/grad.   ShiftErr        ....    0.0010
 Zerner damping         CNVZerner       .... off
 Static damping         CNVDamp         .... on
   Fraction old density DampFac         ....    0.7000
   Max. Damping (<1)    DampMax         ....    0.9800
   Min. Damping (>=0)   DampMin         ....    0.0000
   Turn off err/grad.   DampErr         ....    0.1000
 Fernandez-Rico         CNVRico         .... off

SCF Procedure:
 Maximum # iterations   MaxIter         ....   125
 SCF integral mode      SCFMode         .... Direct
   Integral package                     .... LIBINT
 Reset frequency        DirectResetFreq ....    20
 Integral Threshold     Thresh          ....  2.500e-11 Eh
 Primitive CutOff       TCut            ....  2.500e-12 Eh

Convergence Tolerance:
 Convergence Check Mode ConvCheckMode   .... Total+1el-Energy
 Convergence forced     ConvForced      .... 1
 Energy Change          TolE            ....  1.000e-08 Eh
 1-El. energy change                    ....  1.000e-05 Eh
 Orbital Gradient       TolG            ....  1.000e-05
 Orbital Rotation angle TolX            ....  1.000e-05
 DIIS Error             TolErr          ....  5.000e-07


Diagonalization of the overlap matrix:
Smallest eigenvalue                        ... 3.243e-05
Time for diagonalization                   ...    0.281 sec
Threshold for overlap eigenvalues          ... 1.000e-08
Number of eigenvalues below threshold      ... 0
Time for construction of square roots      ...    0.260 sec
Total time needed                          ...    0.542 sec

-------------------
DFT GRID GENERATION
-------------------

General Integration Accuracy     IntAcc      ...  4.340
Radial Grid Type                 RadialGrid  ... Gauss-Chebyshev
Angular Grid (max. acc.)         AngularGrid ... Lebedev-110
Angular grid pruning method      GridPruning ... 3 (G Style)
Weight generation scheme         WeightScheme... Becke
Basis function cutoff            BFCut       ...    1.0000e-11
Integration weight cutoff        WCut        ...    1.0000e-14
Grids for H and He will be reduced by one unit

# of grid points (after initial pruning)     ...  46246 (   0.0 sec)
# of grid points (after weights+screening)   ...  41238 (   0.3 sec)
nearest neighbour list constructed           ...    0.0 sec
Grid point re-assignment to atoms done       ...    0.0 sec
Grid point division into batches done        ...    0.0 sec
Reduced shell lists constructed in    0.8 sec

Total number of grid points                  ...    41238
Total number of batches                      ...      664
Average number of points per batch           ...       62
Average number of grid points per atom       ...     1146
Average number of shells per batch           ...   151.16 (50.72%)
Average number of basis functions per batch  ...   384.46 (46.43%)
Average number of large shells per batch     ...    97.12 (64.25%)
Average number of large basis fcns per batch ...   248.83 (64.72%)
Maximum spatial batch extension              ...  20.05, 23.98, 22.36 au
Average spatial batch extension              ...   3.49,  3.33,  3.41 au

Time for grid setup =    1.158 sec

------------------------------
INITIAL GUESS: MODEL POTENTIAL
------------------------------
Loading Hartree-Fock densities                     ... done
Calculating cut-offs                               ... done
Setting up the integral package                    ... done
Initializing the effective Hamiltonian             ... done
Starting the Coulomb interaction                   ... done (   2.9 sec)
Reading the grid                                   ... done
Mapping shells                                     ... done
Starting the XC term evaluation                    ... done (   1.0 sec)
Transforming the Hamiltonian                       ... done (   0.2 sec)
Diagonalizing the Hamiltonian                      ... done (   0.3 sec)
Back transforming the eigenvectors                 ... done (   0.1 sec)
Now organizing SCF variables                       ... done
                      ------------------
                      INITIAL GUESS DONE (   5.9 sec)
                      ------------------
--------------
SCF ITERATIONS
--------------
ITER       Energy         Delta-E        Max-DP      RMS-DP      [F,P]     Damp
               ***  Starting incremental Fock matrix formation  ***
  0  -1269.9994428154   0.000000000000 0.04934042  0.00042905  0.3271328 0.7000
  1  -1270.2667000438  -0.267257228458 0.03609218  0.00034425  0.1971199 0.7000
                               ***Turning on DIIS***
  2  -1270.4332168361  -0.166516792287 0.02584132  0.00023139  0.1110914 0.7000
  3  -1272.5700200231  -2.136803186976 0.06312669  0.00050479  0.0828299 0.0000
  4  -1270.7423799622   1.827640060934 0.00934197  0.00009496  0.0070127 0.0000
  5  -1270.7987509795  -0.056371017323 0.00369902  0.00004950  0.0049498 0.0000
  6  -1270.7801920660   0.018558913512 0.00168666  0.00002535  0.0033930 0.0000
                      *** Initiating the SOSCF procedure ***
                           *** Shutting down DIIS ***
                      *** Re-Reading the Fockian *** 
                      *** Removing any level shift *** 
ITER      Energy       Delta-E        Grad      Rot      Max-DP    RMS-DP
  7  -1270.79525186  -0.0150597961  0.001172  0.001172  0.001084  0.000013
               *** Restarting incremental Fock matrix formation ***
  8  -1270.79503643   0.0002154361  0.000631  0.001611  0.000561  0.000007
  9  -1270.79504991  -0.0000134795  0.000295  0.001863  0.000708  0.000009
 10  -1270.79505524  -0.0000053295  0.000074  0.000113  0.000184  0.000002
 11  -1270.79505579  -0.0000005585  0.000034  0.000072  0.000063  0.000001
 12  -1270.79505589  -0.0000001013  0.000012  0.000047  0.000033  0.000000
 13  -1270.79505591  -0.0000000125  0.000008  0.000039  0.000018  0.000000
                  ***Gradient check signals convergence***
              ***Rediagonalizing the Fockian in SOSCF/NRSCF***

               *****************************************************
               *                     SUCCESS                       *
               *           SCF CONVERGED AFTER  14 CYCLES          *
               *****************************************************


----------------
TOTAL SCF ENERGY
----------------

Total Energy       :        -1270.79505592 Eh          -34580.09149 eV

Components:
Nuclear Repulsion  :         1711.75368887 Eh           46579.18591 eV
Electronic Energy  :        -2982.54874479 Eh          -81159.27740 eV
One Electron Energy:        -5144.62133368 Eh         -139992.26356 eV
Two Electron Energy:         2162.07258889 Eh           58832.98615 eV

Virial components:
Potential Energy   :        -2539.81911209 Eh          -69111.99163 eV
Kinetic Energy     :         1269.02405617 Eh           34531.90014 eV
Virial Ratio       :            2.00139556


---------------
SCF CONVERGENCE
---------------

  Last Energy change         ...   -1.0599e-08  Tolerance :   1.0000e-08
  Last MAX-Density change    ...    2.4713e-06  Tolerance :   1.0000e-07
  Last RMS-Density change    ...    4.0192e-08  Tolerance :   5.0000e-09
  Last Orbital Gradient      ...    2.1068e-06  Tolerance :   1.0000e-05
  Last Orbital Rotation      ...    5.5920e-06  Tolerance :   1.0000e-05

             **** THE GBW FILE WAS UPDATED (CONFS/Conf180.orca.gbw) ****
             **** DENSITY FILE WAS UPDATED (CONFS/Conf180.orca.scfp) ****
             **** ENERGY FILE WAS UPDATED (CONFS/Conf180.orca.en.tmp) ****
             **** THE GBW FILE WAS UPDATED (CONFS/Conf180.orca.gbw) ****
             **** DENSITY FILE WAS UPDATED (CONFS/Conf180.orca.scfp) ****
----------------
ORBITAL ENERGIES
----------------

  NO   OCC          E(Eh)            E(eV) 
   0   2.0000     -91.890470     -2500.4668 
   1   2.0000     -20.599785      -560.5487 
   2   2.0000     -20.587360      -560.2105 
   3   2.0000     -20.545135      -559.0615 
   4   2.0000     -15.630794      -425.3355 
   5   2.0000     -15.608341      -424.7246 
   6   2.0000     -11.392979      -310.0187 
   7   2.0000     -11.384645      -309.7919 
   8   2.0000     -11.339344      -308.5592 
   9   2.0000     -11.316825      -307.9465 
  10   2.0000     -11.310547      -307.7756 
  11   2.0000     -11.294860      -307.3488 
  12   2.0000     -11.263547      -306.4967 
  13   2.0000     -11.259837      -306.3957 
  14   2.0000     -11.257875      -306.3423 
  15   2.0000     -11.253162      -306.2141 
  16   2.0000     -11.246651      -306.0369 
  17   2.0000     -11.241272      -305.8906 
  18   2.0000     -11.241148      -305.8872 
  19   2.0000     -11.219808      -305.3065 
  20   2.0000      -8.895516      -242.0593 
  21   2.0000      -6.577082      -178.9715 
  22   2.0000      -6.575090      -178.9173 
  23   2.0000      -6.574493      -178.9011 
  24   2.0000      -1.448835       -39.4248 
  25   2.0000      -1.419481       -38.6261 
  26   2.0000      -1.352210       -36.7955 
  27   2.0000      -1.342505       -36.5314 
  28   2.0000      -1.240426       -33.7537 
  29   2.0000      -1.160136       -31.5689 
  30   2.0000      -1.122330       -30.5401 
  31   2.0000      -1.045005       -28.4360 
  32   2.0000      -1.033393       -28.1200 
  33   2.0000      -1.018101       -27.7039 
  34   2.0000      -0.998882       -27.1809 
  35   2.0000      -0.986424       -26.8420 
  36   2.0000      -0.923997       -25.1432 
  37   2.0000      -0.885146       -24.0860 
  38   2.0000      -0.848055       -23.0767 
  39   2.0000      -0.840844       -22.8805 
  40   2.0000      -0.836987       -22.7756 
  41   2.0000      -0.818489       -22.2722 
  42   2.0000      -0.761489       -20.7212 
  43   2.0000      -0.735822       -20.0227 
  44   2.0000      -0.722014       -19.6470 
  45   2.0000      -0.698111       -18.9966 
  46   2.0000      -0.688722       -18.7411 
  47   2.0000      -0.675745       -18.3879 
  48   2.0000      -0.673001       -18.3133 
  49   2.0000      -0.668431       -18.1889 
  50   2.0000      -0.647248       -17.6125 
  51   2.0000      -0.643950       -17.5228 
  52   2.0000      -0.636600       -17.3228 
  53   2.0000      -0.609828       -16.5943 
  54   2.0000      -0.603746       -16.4288 
  55   2.0000      -0.601656       -16.3719 
  56   2.0000      -0.585380       -15.9290 
  57   2.0000      -0.578578       -15.7439 
  58   2.0000      -0.573412       -15.6033 
  59   2.0000      -0.568080       -15.4582 
  60   2.0000      -0.565895       -15.3988 
  61   2.0000      -0.547519       -14.8988 
  62   2.0000      -0.541106       -14.7242 
  63   2.0000      -0.526269       -14.3205 
  64   2.0000      -0.517463       -14.0809 
  65   2.0000      -0.513804       -13.9813 
  66   2.0000      -0.502500       -13.6737 
  67   2.0000      -0.500208       -13.6113 
  68   2.0000      -0.480792       -13.0830 
  69   2.0000      -0.463254       -12.6058 
  70   2.0000      -0.451003       -12.2724 
  71   2.0000      -0.448189       -12.1959 
  72   2.0000      -0.354555        -9.6479 
  73   2.0000      -0.351974        -9.5777 
  74   2.0000      -0.329572        -8.9681 
  75   2.0000      -0.324286        -8.8243 
  76   2.0000      -0.320065        -8.7094 
  77   0.0000       0.071949         1.9578 
  78   0.0000       0.100143         2.7250 
  79   0.0000       0.122455         3.3322 
  80   0.0000       0.130558         3.5527 
  81   0.0000       0.133412         3.6303 
  82   0.0000       0.142967         3.8903 
  83   0.0000       0.147594         4.0162 
  84   0.0000       0.154200         4.1960 
  85   0.0000       0.160252         4.3607 
  86   0.0000       0.171256         4.6601 
  87   0.0000       0.180744         4.9183 
  88   0.0000       0.188233         5.1221 
  89   0.0000       0.194327         5.2879 
  90   0.0000       0.197261         5.3677 
  91   0.0000       0.201444         5.4816 
  92   0.0000       0.215484         5.8636 
  93   0.0000       0.221476         6.0267 
  94   0.0000       0.226953         6.1757 
  95   0.0000       0.233859         6.3636 
  96   0.0000       0.245692         6.6856 
  97   0.0000       0.260927         7.1002 
  98   0.0000       0.264737         7.2039 
  99   0.0000       0.282963         7.6998 
 100   0.0000       0.297045         8.0830 
 101   0.0000       0.302193         8.2231 
 102   0.0000       0.308118         8.3843 
 103   0.0000       0.317405         8.6370 
 104   0.0000       0.323681         8.8078 
 105   0.0000       0.326796         8.8926 
 106   0.0000       0.339717         9.2442 
 107   0.0000       0.344333         9.3698 
 108   0.0000       0.361333         9.8324 
 109   0.0000       0.365961         9.9583 
 110   0.0000       0.372173        10.1273 
 111   0.0000       0.375424        10.2158 
 112   0.0000       0.383262        10.4291 
 113   0.0000       0.388061        10.5597 
 114   0.0000       0.400858        10.9079 
 115   0.0000       0.408116        11.1054 
 116   0.0000       0.409651        11.1472 
 117   0.0000       0.422296        11.4913 
 118   0.0000       0.432281        11.7630 
 119   0.0000       0.435314        11.8455 
 120   0.0000       0.443162        12.0590 
 121   0.0000       0.448083        12.1930 
 122   0.0000       0.452279        12.3071 
 123   0.0000       0.459042        12.4912 
 124   0.0000       0.463623        12.6158 
 125   0.0000       0.470388        12.7999 
 126   0.0000       0.481808        13.1107 
 127   0.0000       0.485263        13.2047 
 128   0.0000       0.491448        13.3730 
 129   0.0000       0.499847        13.6015 
 130   0.0000       0.506948        13.7948 
 131   0.0000       0.511949        13.9308 
 132   0.0000       0.518694        14.1144 
 133   0.0000       0.522475        14.2173 
 134   0.0000       0.528740        14.3878 
 135   0.0000       0.534020        14.5314 
 136   0.0000       0.537626        14.6295 
 137   0.0000       0.540721        14.7138 
 138   0.0000       0.547302        14.8929 
 139   0.0000       0.554848        15.0982 
 140   0.0000       0.559077        15.2133 
 141   0.0000       0.559753        15.2316 
 142   0.0000       0.566308        15.4100 
 143   0.0000       0.571294        15.5457 
 144   0.0000       0.576090        15.6762 
 145   0.0000       0.581627        15.8269 
 146   0.0000       0.583706        15.8835 
 147   0.0000       0.593824        16.1588 
 148   0.0000       0.596468        16.2307 
 149   0.0000       0.600702        16.3459 
 150   0.0000       0.605139        16.4667 
 151   0.0000       0.606951        16.5160 
 152   0.0000       0.610290        16.6068 
 153   0.0000       0.616970        16.7886 
 154   0.0000       0.619442        16.8559 
 155   0.0000       0.623396        16.9635 
 156   0.0000       0.628344        17.0981 
 157   0.0000       0.631529        17.1848 
 158   0.0000       0.635620        17.2961 
 159   0.0000       0.643273        17.5043 
 160   0.0000       0.653556        17.7842 
 161   0.0000       0.655445        17.8356 
 162   0.0000       0.660069        17.9614 
 163   0.0000       0.664302        18.0766 
 164   0.0000       0.668779        18.1984 
 165   0.0000       0.674426        18.3521 
 166   0.0000       0.683581        18.6012 
 167   0.0000       0.685070        18.6417 
 168   0.0000       0.694263        18.8919 
 169   0.0000       0.700451        19.0602 
 170   0.0000       0.705998        19.2112 
 171   0.0000       0.710111        19.3231 
 172   0.0000       0.719247        19.5717 
 173   0.0000       0.723433        19.6856 
 174   0.0000       0.724746        19.7213 
 175   0.0000       0.731740        19.9117 
 176   0.0000       0.740227        20.1426 
 177   0.0000       0.740987        20.1633 
 178   0.0000       0.753599        20.5065 
 179   0.0000       0.757304        20.6073 
 180   0.0000       0.765581        20.8325 
 181   0.0000       0.768842        20.9213 
 182   0.0000       0.772465        21.0198 
 183   0.0000       0.790851        21.5202 
 184   0.0000       0.800839        21.7919 
 185   0.0000       0.805605        21.9216 
 186   0.0000       0.818964        22.2851 
 187   0.0000       0.824779        22.4434 
 188   0.0000       0.828311        22.5395 
 189   0.0000       0.846263        23.0280 
 190   0.0000       0.848797        23.0969 
 191   0.0000       0.854334        23.2476 
 192   0.0000       0.860207        23.4074 
 193   0.0000       0.864352        23.5202 
 194   0.0000       0.872638        23.7457 
 195   0.0000       0.877711        23.8837 
 196   0.0000       0.887727        24.1563 
 197   0.0000       0.892613        24.2892 
 198   0.0000       0.900135        24.4939 
 199   0.0000       0.911789        24.8111 
 200   0.0000       0.914156        24.8754 
 201   0.0000       0.919488        25.0205 
 202   0.0000       0.932974        25.3875 
 203   0.0000       0.934734        25.4354 
 204   0.0000       0.937903        25.5216 
 205   0.0000       0.944957        25.7136 
 206   0.0000       0.955210        25.9926 
 207   0.0000       0.959894        26.1201 
 208   0.0000       0.968820        26.3629 
 209   0.0000       0.972163        26.4539 
 210   0.0000       0.978370        26.6228 
 211   0.0000       0.988502        26.8985 
 212   0.0000       1.000046        27.2126 
 213   0.0000       1.002839        27.2886 
 214   0.0000       1.010517        27.4976 
 215   0.0000       1.015937        27.6451 
 216   0.0000       1.021036        27.7838 
 217   0.0000       1.028173        27.9780 
 218   0.0000       1.041321        28.3358 
 219   0.0000       1.048264        28.5247 
 220   0.0000       1.057512        28.7764 
 221   0.0000       1.061189        28.8764 
 222   0.0000       1.068068        29.0636 
 223   0.0000       1.074124        29.2284 
 224   0.0000       1.086688        29.5703 
 225   0.0000       1.092040        29.7159 
 226   0.0000       1.102810        30.0090 
 227   0.0000       1.113674        30.3046 
 228   0.0000       1.119234        30.4559 
 229   0.0000       1.130213        30.7547 
 230   0.0000       1.132689        30.8220 
 231   0.0000       1.139081        30.9960 
 232   0.0000       1.154276        31.4094 
 233   0.0000       1.160404        31.5762 
 234   0.0000       1.162237        31.6261 
 235   0.0000       1.166653        31.7463 
 236   0.0000       1.171597        31.8808 
 237   0.0000       1.178738        32.0751 
 238   0.0000       1.186737        32.2927 
 239   0.0000       1.194147        32.4944 
 240   0.0000       1.205240        32.7962 
 241   0.0000       1.211437        32.9649 
 242   0.0000       1.213965        33.0337 
 243   0.0000       1.217584        33.1322 
 244   0.0000       1.221491        33.2384 
 245   0.0000       1.226831        33.3838 
 246   0.0000       1.235507        33.6199 
 247   0.0000       1.242619        33.8134 
 248   0.0000       1.246556        33.9205 
 249   0.0000       1.252574        34.0843 
 250   0.0000       1.259072        34.2611 
 251   0.0000       1.275650        34.7122 
 252   0.0000       1.278091        34.7786 
 253   0.0000       1.287797        35.0427 
 254   0.0000       1.293874        35.2081 
 255   0.0000       1.302566        35.4446 
 256   0.0000       1.310355        35.6566 
 257   0.0000       1.325415        36.0664 
 258   0.0000       1.338597        36.4251 
 259   0.0000       1.343046        36.5461 
 260   0.0000       1.351161        36.7670 
 261   0.0000       1.355075        36.8735 
 262   0.0000       1.368487        37.2384 
 263   0.0000       1.371731        37.3267 
 264   0.0000       1.380836        37.5745 
 265   0.0000       1.388079        37.7715 
 266   0.0000       1.393820        37.9278 
 267   0.0000       1.400571        38.1115 
 268   0.0000       1.414846        38.4999 
 269   0.0000       1.416369        38.5414 
 270   0.0000       1.430749        38.9327 
 271   0.0000       1.446072        39.3496 
 272   0.0000       1.449960        39.4554 
 273   0.0000       1.452755        39.5315 
 274   0.0000       1.464072        39.8394 
 275   0.0000       1.467067        39.9209 
 276   0.0000       1.468297        39.9544 
 277   0.0000       1.473721        40.1020 
 278   0.0000       1.481751        40.3205 
 279   0.0000       1.494007        40.6540 
 280   0.0000       1.496575        40.7239 
 281   0.0000       1.504823        40.9483 
 282   0.0000       1.509494        41.0754 
 283   0.0000       1.517407        41.2907 
 284   0.0000       1.523900        41.4674 
 285   0.0000       1.528875        41.6028 
 286   0.0000       1.534460        41.7548 
 287   0.0000       1.540346        41.9150 
 288   0.0000       1.543303        41.9954 
 289   0.0000       1.547662        42.1140 
 290   0.0000       1.556565        42.3563 
 291   0.0000       1.567534        42.6548 
 292   0.0000       1.573533        42.8180 
 293   0.0000       1.579324        42.9756 
 294   0.0000       1.587997        43.2116 
 295   0.0000       1.597575        43.4722 
 296   0.0000       1.601923        43.5905 
 297   0.0000       1.606166        43.7060 
 298   0.0000       1.620193        44.0877 
 299   0.0000       1.633078        44.4383 
 300   0.0000       1.641633        44.6711 
 301   0.0000       1.656247        45.0688 
 302   0.0000       1.664006        45.2799 
 303   0.0000       1.664780        45.3010 
 304   0.0000       1.678096        45.6633 
 305   0.0000       1.686909        45.9031 
 306   0.0000       1.690670        46.0055 
 307   0.0000       1.697606        46.1942 
 308   0.0000       1.709993        46.5313 
 309   0.0000       1.712256        46.5928 
 310   0.0000       1.727743        47.0143 
 311   0.0000       1.736723        47.2586 
 312   0.0000       1.744098        47.4593 
 313   0.0000       1.764293        48.0088 
 314   0.0000       1.771689        48.2101 
 315   0.0000       1.778944        48.4075 
 316   0.0000       1.785646        48.5899 
 317   0.0000       1.792012        48.7631 
 318   0.0000       1.804643        49.1068 
 319   0.0000       1.805346        49.1260 
 320   0.0000       1.824221        49.6396 
 321   0.0000       1.830925        49.8220 
 322   0.0000       1.836136        49.9638 
 323   0.0000       1.847712        50.2788 
 324   0.0000       1.852226        50.4016 
 325   0.0000       1.869451        50.8703 
 326   0.0000       1.888228        51.3813 
 327   0.0000       1.893933        51.5365 
 328   0.0000       1.909269        51.9539 
 329   0.0000       1.914184        52.0876 
 330   0.0000       1.933410        52.6108 
 331   0.0000       1.937843        52.7314 
 332   0.0000       1.942617        52.8613 
 333   0.0000       1.950561        53.0775 
 334   0.0000       1.955764        53.2190 
 335   0.0000       1.965716        53.4898 
 336   0.0000       1.985741        54.0348 
 337   0.0000       2.005138        54.5626 
 338   0.0000       2.008479        54.6535 
 339   0.0000       2.020299        54.9751 
 340   0.0000       2.028519        55.1988 
 341   0.0000       2.039226        55.4902 
 342   0.0000       2.042916        55.5906 
 343   0.0000       2.072668        56.4002 
 344   0.0000       2.104532        57.2672 
 345   0.0000       2.111404        57.4542 
 346   0.0000       2.130365        57.9702 
 347   0.0000       2.135490        58.1096 
 348   0.0000       2.150450        58.5167 
 349   0.0000       2.158288        58.7300 
 350   0.0000       2.181863        59.3715 
 351   0.0000       2.194411        59.7130 
 352   0.0000       2.221158        60.4408 
 353   0.0000       2.226364        60.5825 
 354   0.0000       2.237368        60.8819 
 355   0.0000       2.255859        61.3851 
 356   0.0000       2.263841        61.6023 
 357   0.0000       2.283957        62.1496 
 358   0.0000       2.294897        62.4473 
 359   0.0000       2.304855        62.7183 
 360   0.0000       2.319227        63.1094 
 361   0.0000       2.327933        63.3463 
 362   0.0000       2.343334        63.7654 
 363   0.0000       2.349609        63.9361 
 364   0.0000       2.357441        64.1492 
 365   0.0000       2.370800        64.5127 
 366   0.0000       2.376186        64.6593 
 367   0.0000       2.391167        65.0670 
 368   0.0000       2.409676        65.5706 
 369   0.0000       2.437168        66.3187 
 370   0.0000       2.451040        66.6962 
 371   0.0000       2.464787        67.0703 
 372   0.0000       2.471757        67.2599 
 373   0.0000       2.484517        67.6071 
 374   0.0000       2.508321        68.2549 
 375   0.0000       2.518208        68.5239 
 376   0.0000       2.520468        68.5854 
 377   0.0000       2.541915        69.1690 
 378   0.0000       2.553632        69.4879 
 379   0.0000       2.558507        69.6205 
 380   0.0000       2.567611        69.8683 
 381   0.0000       2.584512        70.3282 
 382   0.0000       2.587751        70.4163 
 383   0.0000       2.604424        70.8700 
 384   0.0000       2.611030        71.0497 
 385   0.0000       2.613196        71.1087 
 386   0.0000       2.632482        71.6335 
 387   0.0000       2.638948        71.8094 
 388   0.0000       2.663358        72.4737 
 389   0.0000       2.677623        72.8618 
 390   0.0000       2.685558        73.0778 
 391   0.0000       2.689641        73.1888 
 392   0.0000       2.701125        73.5014 
 393   0.0000       2.722308        74.0778 
 394   0.0000       2.739445        74.5441 
 395   0.0000       2.744841        74.6909 
 396   0.0000       2.754208        74.9458 
 397   0.0000       2.758968        75.0753 
 398   0.0000       2.766139        75.2705 
 399   0.0000       2.774504        75.4981 
 400   0.0000       2.778611        75.6099 
 401   0.0000       2.792736        75.9942 
 402   0.0000       2.799718        76.1842 
 403   0.0000       2.807233        76.3887 
 404   0.0000       2.817601        76.6708 
 405   0.0000       2.820530        76.7505 
 406   0.0000       2.828695        76.9727 
 407   0.0000       2.837961        77.2249 
 408   0.0000       2.854304        77.6696 
 409   0.0000       2.873842        78.2012 
 410   0.0000       2.881468        78.4087 
 411   0.0000       2.886024        78.5327 
 412   0.0000       2.892862        78.7188 
 413   0.0000       2.903418        79.0060 
 414   0.0000       2.913618        79.2836 
 415   0.0000       2.919211        79.4358 
 416   0.0000       2.929900        79.7266 
 417   0.0000       2.942700        80.0750 
 418   0.0000       2.950995        80.3007 
 419   0.0000       2.955997        80.4368 
 420   0.0000       2.973266        80.9067 
 421   0.0000       2.975740        80.9740 
 422   0.0000       2.980118        81.0931 
 423   0.0000       2.990235        81.3684 
 424   0.0000       3.003547        81.7307 
 425   0.0000       3.017543        82.1115 
 426   0.0000       3.020665        82.1965 
 427   0.0000       3.029378        82.4336 
 428   0.0000       3.039081        82.6976 
 429   0.0000       3.046359        82.8956 
 430   0.0000       3.052457        83.0616 
 431   0.0000       3.057791        83.2067 
 432   0.0000       3.070016        83.5394 
 433   0.0000       3.074943        83.6735 
 434   0.0000       3.076191        83.7074 
 435   0.0000       3.083168        83.8973 
 436   0.0000       3.090281        84.0908 
 437   0.0000       3.093066        84.1666 
 438   0.0000       3.103938        84.4624 
 439   0.0000       3.107858        84.5691 
 440   0.0000       3.119517        84.8864 
 441   0.0000       3.121185        84.9318 
 442   0.0000       3.132010        85.2263 
 443   0.0000       3.144125        85.5560 
 444   0.0000       3.147957        85.6603 
 445   0.0000       3.151808        85.7651 
 446   0.0000       3.160326        85.9968 
 447   0.0000       3.162642        86.0599 
 448   0.0000       3.182774        86.6077 
 449   0.0000       3.186427        86.7071 
 450   0.0000       3.194447        86.9253 
 451   0.0000       3.205369        87.2225 
 452   0.0000       3.211899        87.4002 
 453   0.0000       3.222827        87.6976 
 454   0.0000       3.227194        87.8164 
 455   0.0000       3.235393        88.0395 
 456   0.0000       3.244565        88.2891 
 457   0.0000       3.262895        88.7879 
 458   0.0000       3.263299        88.7989 
 459   0.0000       3.271215        89.0143 
 460   0.0000       3.277803        89.1936 
 461   0.0000       3.290097        89.5281 
 462   0.0000       3.291651        89.5704 
 463   0.0000       3.299075        89.7724 
 464   0.0000       3.305944        89.9593 
 465   0.0000       3.307253        89.9949 
 466   0.0000       3.318135        90.2910 
 467   0.0000       3.322190        90.4014 
 468   0.0000       3.325675        90.4962 
 469   0.0000       3.329101        90.5894 
 470   0.0000       3.342673        90.9587 
 471   0.0000       3.348155        91.1079 
 472   0.0000       3.348915        91.1286 
 473   0.0000       3.360913        91.4551 
 474   0.0000       3.367172        91.6254 
 475   0.0000       3.369966        91.7014 
 476   0.0000       3.372656        91.7746 
 477   0.0000       3.387557        92.1801 
 478   0.0000       3.393340        92.3375 
 479   0.0000       3.396417        92.4212 
 480   0.0000       3.398929        92.4896 
 481   0.0000       3.404999        92.6547 
 482   0.0000       3.410742        92.8110 
 483   0.0000       3.419013        93.0361 
 484   0.0000       3.425428        93.2106 
 485   0.0000       3.427074        93.2554 
 486   0.0000       3.434091        93.4464 
 487   0.0000       3.438031        93.5536 
 488   0.0000       3.438438        93.5647 
 489   0.0000       3.445987        93.7701 
 490   0.0000       3.454236        93.9945 
 491   0.0000       3.456501        94.0562 
 492   0.0000       3.463092        94.2355 
 493   0.0000       3.468164        94.3735 
 494   0.0000       3.484827        94.8270 
 495   0.0000       3.487801        94.9079 
 496   0.0000       3.493823        95.0718 
 497   0.0000       3.498781        95.2067 
 498   0.0000       3.503013        95.3218 
 499   0.0000       3.515081        95.6502 
 500   0.0000       3.518679        95.7481 
 501   0.0000       3.524580        95.9087 
 502   0.0000       3.531003        96.0835 
 503   0.0000       3.540279        96.3359 
 504   0.0000       3.546494        96.5050 
 505   0.0000       3.556549        96.7786 
 506   0.0000       3.560971        96.8990 
 507   0.0000       3.565785        97.0299 
 508   0.0000       3.577941        97.3607 
 509   0.0000       3.579320        97.3982 
 510   0.0000       3.587509        97.6211 
 511   0.0000       3.594787        97.8191 
 512   0.0000       3.604022        98.0704 
 513   0.0000       3.614301        98.3501 
 514   0.0000       3.616495        98.4098 
 515   0.0000       3.626078        98.6706 
 516   0.0000       3.631929        98.8298 
 517   0.0000       3.635074        98.9154 
 518   0.0000       3.639392        99.0329 
 519   0.0000       3.645057        99.1870 
 520   0.0000       3.652827        99.3985 
 521   0.0000       3.657206        99.5176 
 522   0.0000       3.663240        99.6818 
 523   0.0000       3.670245        99.8724 
 524   0.0000       3.676790       100.0506 
 525   0.0000       3.685409       100.2851 
 526   0.0000       3.693084       100.4939 
 527   0.0000       3.696507       100.5871 
 528   0.0000       3.703553       100.7788 
 529   0.0000       3.709687       100.9457 
 530   0.0000       3.726640       101.4070 
 531   0.0000       3.727337       101.4260 
 532   0.0000       3.733878       101.6040 
 533   0.0000       3.738299       101.7243 
 534   0.0000       3.744877       101.9033 
 535   0.0000       3.756952       102.2319 
 536   0.0000       3.758547       102.2753 
 537   0.0000       3.764056       102.4252 
 538   0.0000       3.772856       102.6646 
 539   0.0000       3.778271       102.8120 
 540   0.0000       3.785863       103.0186 
 541   0.0000       3.790723       103.1508 
 542   0.0000       3.796125       103.2978 
 543   0.0000       3.804509       103.5260 
 544   0.0000       3.812276       103.7373 
 545   0.0000       3.822972       104.0284 
 546   0.0000       3.829507       104.2062 
 547   0.0000       3.838302       104.4455 
 548   0.0000       3.846603       104.6714 
 549   0.0000       3.852737       104.8383 
 550   0.0000       3.860604       105.0524 
 551   0.0000       3.867009       105.2267 
 552   0.0000       3.879903       105.5775 
 553   0.0000       3.884891       105.7132 
 554   0.0000       3.888949       105.8237 
 555   0.0000       3.905041       106.2616 
 556   0.0000       3.911032       106.4246 
 557   0.0000       3.915884       106.5566 
 558   0.0000       3.923748       106.7706 
 559   0.0000       3.940972       107.2393 
 560   0.0000       3.942468       107.2800 
 561   0.0000       3.950408       107.4961 
 562   0.0000       3.962015       107.8119 
 563   0.0000       3.969234       108.0083 
 564   0.0000       3.985548       108.4523 
 565   0.0000       3.987905       108.5164 
 566   0.0000       3.998964       108.8174 
 567   0.0000       4.001626       108.8898 
 568   0.0000       4.018054       109.3368 
 569   0.0000       4.028592       109.6236 
 570   0.0000       4.035547       109.8128 
 571   0.0000       4.041213       109.9670 
 572   0.0000       4.045768       110.0910 
 573   0.0000       4.052173       110.2652 
 574   0.0000       4.057020       110.3971 
 575   0.0000       4.059121       110.4543 
 576   0.0000       4.072720       110.8243 
 577   0.0000       4.084912       111.1561 
 578   0.0000       4.097913       111.5099 
 579   0.0000       4.105796       111.7244 
 580   0.0000       4.111942       111.8916 
 581   0.0000       4.117830       112.0518 
 582   0.0000       4.135246       112.5258 
 583   0.0000       4.141495       112.6958 
 584   0.0000       4.151065       112.9562 
 585   0.0000       4.157058       113.1193 
 586   0.0000       4.162810       113.2758 
 587   0.0000       4.168419       113.4285 
 588   0.0000       4.176523       113.6490 
 589   0.0000       4.179216       113.7223 
 590   0.0000       4.185467       113.8923 
 591   0.0000       4.188644       113.9788 
 592   0.0000       4.199366       114.2706 
 593   0.0000       4.206256       114.4580 
 594   0.0000       4.209632       114.5499 
 595   0.0000       4.215867       114.7196 
 596   0.0000       4.221753       114.8797 
 597   0.0000       4.227660       115.0405 
 598   0.0000       4.234360       115.2228 
 599   0.0000       4.238068       115.3237 
 600   0.0000       4.244262       115.4922 
 601   0.0000       4.257076       115.8409 
 602   0.0000       4.269042       116.1665 
 603   0.0000       4.276132       116.3595 
 604   0.0000       4.282981       116.5459 
 605   0.0000       4.304803       117.1396 
 606   0.0000       4.312551       117.3505 
 607   0.0000       4.317625       117.4886 
 608   0.0000       4.330503       117.8390 
 609   0.0000       4.333627       117.9240 
 610   0.0000       4.340570       118.1129 
 611   0.0000       4.343267       118.1863 
 612   0.0000       4.347613       118.3046 
 613   0.0000       4.351958       118.4228 
 614   0.0000       4.369604       118.9030 
 615   0.0000       4.373710       119.0147 
 616   0.0000       4.381431       119.2248 
 617   0.0000       4.394677       119.5852 
 618   0.0000       4.403830       119.8343 
 619   0.0000       4.413140       120.0876 
 620   0.0000       4.416308       120.1738 
 621   0.0000       4.421222       120.3076 
 622   0.0000       4.432565       120.6162 
 623   0.0000       4.440717       120.8381 
 624   0.0000       4.451690       121.1366 
 625   0.0000       4.456312       121.2624 
 626   0.0000       4.463891       121.4686 
 627   0.0000       4.476239       121.8047 
 628   0.0000       4.485782       122.0643 
 629   0.0000       4.492665       122.2516 
 630   0.0000       4.502737       122.5257 
 631   0.0000       4.509102       122.6989 
 632   0.0000       4.524997       123.1314 
 633   0.0000       4.536302       123.4390 
 634   0.0000       4.538441       123.4973 
 635   0.0000       4.544742       123.6687 
 636   0.0000       4.550921       123.8369 
 637   0.0000       4.559335       124.0658 
 638   0.0000       4.583746       124.7301 
 639   0.0000       4.585981       124.7909 
 640   0.0000       4.597938       125.1163 
 641   0.0000       4.603525       125.2683 
 642   0.0000       4.612033       125.4998 
 643   0.0000       4.618551       125.6771 
 644   0.0000       4.624368       125.8354 
 645   0.0000       4.629617       125.9783 
 646   0.0000       4.633503       126.0840 
 647   0.0000       4.647576       126.4670 
 648   0.0000       4.650070       126.5348 
 649   0.0000       4.658798       126.7723 
 650   0.0000       4.666725       126.9881 
 651   0.0000       4.671272       127.1118 
 652   0.0000       4.675524       127.2275 
 653   0.0000       4.687054       127.5412 
 654   0.0000       4.690052       127.6228 
 655   0.0000       4.707811       128.1060 
 656   0.0000       4.715970       128.3281 
 657   0.0000       4.723953       128.5453 
 658   0.0000       4.731296       128.7451 
 659   0.0000       4.747177       129.1772 
 660   0.0000       4.752747       129.3288 
 661   0.0000       4.759561       129.5142 
 662   0.0000       4.780614       130.0871 
 663   0.0000       4.802223       130.6751 
 664   0.0000       4.820468       131.1716 
 665   0.0000       4.829479       131.4168 
 666   0.0000       4.844215       131.8178 
 667   0.0000       4.851826       132.0249 
 668   0.0000       4.868497       132.4785 
 669   0.0000       4.875974       132.6820 
 670   0.0000       4.897990       133.2811 
 671   0.0000       4.930303       134.1604 
 672   0.0000       4.935974       134.3147 
 673   0.0000       4.944104       134.5359 
 674   0.0000       4.971972       135.2942 
 675   0.0000       4.980971       135.5391 
 676   0.0000       5.014981       136.4646 
 677   0.0000       5.022195       136.6609 
 678   0.0000       5.051318       137.4533 
 679   0.0000       5.059228       137.6686 
 680   0.0000       5.064204       137.8040 
 681   0.0000       5.079085       138.2089 
 682   0.0000       5.099387       138.7614 
 683   0.0000       5.107303       138.9768 
 684   0.0000       5.114468       139.1718 
 685   0.0000       5.123596       139.4201 
 686   0.0000       5.132378       139.6591 
 687   0.0000       5.134727       139.7230 
 688   0.0000       5.152423       140.2046 
 689   0.0000       5.162576       140.4808 
 690   0.0000       5.175250       140.8257 
 691   0.0000       5.182156       141.0136 
 692   0.0000       5.186274       141.1257 
 693   0.0000       5.192104       141.2843 
 694   0.0000       5.207140       141.6935 
 695   0.0000       5.212226       141.8319 
 696   0.0000       5.222156       142.1021 
 697   0.0000       5.224829       142.1748 
 698   0.0000       5.239966       142.5867 
 699   0.0000       5.243065       142.6711 
 700   0.0000       5.272222       143.4645 
 701   0.0000       5.287602       143.8830 
 702   0.0000       5.294898       144.0815 
 703   0.0000       5.324251       144.8802 
 704   0.0000       5.332224       145.0972 
 705   0.0000       5.336788       145.2214 
 706   0.0000       5.351594       145.6243 
 707   0.0000       5.359300       145.8340 
 708   0.0000       5.361828       145.9027 
 709   0.0000       5.375842       146.2841 
 710   0.0000       5.386231       146.5668 
 711   0.0000       5.394259       146.7853 
 712   0.0000       5.422937       147.5656 
 713   0.0000       5.452796       148.3781 
 714   0.0000       5.473347       148.9373 
 715   0.0000       5.487268       149.3161 
 716   0.0000       5.505447       149.8108 
 717   0.0000       5.512948       150.0149 
 718   0.0000       5.513826       150.0388 
 719   0.0000       5.526679       150.3886 
 720   0.0000       5.542367       150.8155 
 721   0.0000       5.558149       151.2449 
 722   0.0000       5.564721       151.4238 
 723   0.0000       5.573160       151.6534 
 724   0.0000       5.584130       151.9519 
 725   0.0000       5.609384       152.6391 
 726   0.0000       5.621471       152.9680 
 727   0.0000       5.627445       153.1306 
 728   0.0000       5.644900       153.6055 
 729   0.0000       5.652381       153.8091 
 730   0.0000       5.658200       153.9674 
 731   0.0000       5.663106       154.1010 
 732   0.0000       5.681221       154.5939 
 733   0.0000       5.705662       155.2590 
 734   0.0000       5.714607       155.5024 
 735   0.0000       5.719341       155.6312 
 736   0.0000       5.728529       155.8812 
 737   0.0000       5.741443       156.2326 
 738   0.0000       5.748144       156.4149 
 739   0.0000       5.756766       156.6496 
 740   0.0000       5.770326       157.0186 
 741   0.0000       5.785195       157.4232 
 742   0.0000       5.804909       157.9596 
 743   0.0000       5.810044       158.0993 
 744   0.0000       5.824916       158.5040 
 745   0.0000       5.836070       158.8075 
 746   0.0000       5.864314       159.5761 
 747   0.0000       5.883634       160.1018 
 748   0.0000       5.916348       160.9920 
 749   0.0000       5.920835       161.1141 
 750   0.0000       5.947591       161.8422 
 751   0.0000       5.970457       162.4644 
 752   0.0000       5.979292       162.7048 
 753   0.0000       5.997743       163.2069 
 754   0.0000       6.018040       163.7592 
 755   0.0000       6.041019       164.3845 
 756   0.0000       6.052199       164.6887 
 757   0.0000       6.058586       164.8625 
 758   0.0000       6.068377       165.1289 
 759   0.0000       6.094340       165.8354 
 760   0.0000       6.096831       165.9032 
 761   0.0000       6.151854       167.4005 
 762   0.0000       6.214742       169.1117 
 763   0.0000       6.232168       169.5859 
 764   0.0000       6.277863       170.8293 
 765   0.0000       6.294383       171.2789 
 766   0.0000       6.299477       171.4175 
 767   0.0000       6.326465       172.1519 
 768   0.0000       6.347065       172.7124 
 769   0.0000       6.358853       173.0332 
 770   0.0000       6.380500       173.6222 
 771   0.0000       6.390534       173.8953 
 772   0.0000       6.405927       174.3141 
 773   0.0000       6.455847       175.6725 
 774   0.0000       6.461986       175.8396 
 775   0.0000       6.469530       176.0449 
 776   0.0000       6.506654       177.0551 
 777   0.0000       6.554506       178.3572 
 778   0.0000       6.581270       179.0855 
 779   0.0000       6.635000       180.5475 
 780   0.0000       6.651717       181.0024 
 781   0.0000       6.673964       181.6078 
 782   0.0000       6.719240       182.8398 
 783   0.0000       6.770075       184.2231 
 784   0.0000       6.796824       184.9510 
 785   0.0000       6.880350       187.2239 
 786   0.0000       6.908716       187.9957 
 787   0.0000       6.920845       188.3258 
 788   0.0000       6.953798       189.2225 
 789   0.0000       7.025579       191.1757 
 790   0.0000       7.046047       191.7327 
 791   0.0000       7.057641       192.0482 
 792   0.0000       7.080245       192.6633 
 793   0.0000       7.108575       193.4342 
 794   0.0000       7.203176       196.0084 
 795   0.0000       7.255339       197.4278 
 796   0.0000       7.280351       198.1084 
 797   0.0000       7.301640       198.6877 
 798   0.0000       7.347181       199.9270 
 799   0.0000       7.383564       200.9170 
 800   0.0000       7.415399       201.7833 
 801   0.0000       7.570461       206.0027 
 802   0.0000       7.585335       206.4074 
 803   0.0000       7.605583       206.9584 
 804   0.0000       7.663200       208.5263 
 805   0.0000       7.813899       212.6270 
 806   0.0000       7.821101       212.8230 
 807   0.0000       7.899371       214.9528 
 808   0.0000       7.932227       215.8469 
 809   0.0000       9.365321       254.8433 
 810   0.0000       9.532512       259.3928 
 811   0.0000      10.659619       290.0630 
 812   0.0000      11.293998       307.3253 
 813   0.0000      11.936999       324.8222 
 814   0.0000      12.563778       341.8778 
 815   0.0000      12.933830       351.9474 
 816   0.0000      13.007271       353.9458 
 817   0.0000      13.099490       356.4553 
 818   0.0000      13.160170       358.1064 
 819   0.0000      13.357283       363.4702 
 820   0.0000      13.557813       368.9268 
 821   0.0000      13.683298       372.3415 
 822   0.0000      13.854359       376.9963 
 823   0.0000      14.017031       381.4228 
 824   0.0000      14.149792       385.0354 
 825   0.0000      14.490825       394.3154 
 826   0.0000      14.609712       397.5505 
 827   0.0000      16.009409       435.6382 

                    ********************************
                    * MULLIKEN POPULATION ANALYSIS *
                    ********************************

-----------------------
MULLIKEN ATOMIC CHARGES
-----------------------
   0 C :   -0.306062
   1 C :    0.044365
   2 O :   -0.369136
   3 C :    0.450787
   4 O :   -0.408501
   5 C :   -0.250723
   6 C :    0.178462
   7 C :   -0.265373
   8 N :   -0.126973
   9 C :    0.209511
  10 S :   -0.439175
  11 N :   -0.213670
  12 C :    0.048357
  13 C :    0.046892
  14 C :   -0.169583
  15 C :   -0.148710
  16 C :   -0.263739
  17 C :    0.318008
  18 O :   -0.359779
  19 C :   -0.263266
  20 H :    0.104925
  21 H :    0.112669
  22 H :    0.103878
  23 H :    0.103867
  24 H :    0.096059
  25 H :    0.127069
  26 H :    0.134702
  27 H :    0.094084
  28 H :    0.200239
  29 H :    0.201430
  30 H :    0.152188
  31 H :    0.150681
  32 H :    0.165784
  33 H :    0.132735
  34 H :    0.241343
  35 H :    0.166654
Sum of atomic charges:   -0.0000000

--------------------------------
MULLIKEN REDUCED ORBITAL CHARGES
--------------------------------
  0 C s       :     3.252075  s :     3.252075
      pz      :     0.942749  p :     2.973836
      px      :     1.010428
      py      :     1.020659
      dz2     :     0.009659  d :     0.075581
      dxz     :     0.019314
      dyz     :     0.022863
      dx2y2   :     0.005543
      dxy     :     0.018201
      f0      :     0.000350  f :     0.004570
      f+1     :     0.000998
      f-1     :     0.000591
      f+2     :     0.000501
      f-2     :     0.001396
      f+3     :     0.000098
      f-3     :     0.000636
  1 C s       :     3.167075  s :     3.167075
      pz      :     0.962006  p :     2.621592
      px      :     0.741311
      py      :     0.918275
      dz2     :     0.019833  d :     0.155304
      dxz     :     0.034607
      dyz     :     0.035001
      dx2y2   :     0.028617
      dxy     :     0.037247
      f0      :     0.001462  f :     0.011663
      f+1     :     0.001897
      f-1     :     0.000972
      f+2     :     0.000935
      f-2     :     0.002549
      f+3     :     0.001922
      f-3     :     0.001926
  2 O s       :     3.719115  s :     3.719115
      pz      :     1.805917  p :     4.614646
      px      :     1.527176
      py      :     1.281553
      dz2     :     0.003774  d :     0.033107
      dxz     :     0.004129
      dyz     :     0.006707
      dx2y2   :     0.012372
      dxy     :     0.006125
      f0      :     0.000306  f :     0.002268
      f+1     :     0.000184
      f-1     :     0.000402
      f+2     :     0.000354
      f-2     :     0.000185
      f+3     :     0.000275
      f-3     :     0.000562
  3 C s       :     3.037868  s :     3.037868
      pz      :     0.820880  p :     2.192364
      px      :     0.643226
      py      :     0.728258
      dz2     :     0.070499  d :     0.292362
      dxz     :     0.056209
      dyz     :     0.094062
      dx2y2   :     0.031598
      dxy     :     0.039994
      f0      :     0.005454  f :     0.026620
      f+1     :     0.003584
      f-1     :     0.007111
      f+2     :     0.003746
      f-2     :     0.002149
      f+3     :     0.002769
      f-3     :     0.001806
  4 O s       :     3.771272  s :     3.771272
      pz      :     1.382464  p :     4.599716
      px      :     1.426844
      py      :     1.790407
      dz2     :     0.013470  d :     0.035097
      dxz     :     0.011347
      dyz     :     0.008206
      dx2y2   :     0.000901
      dxy     :     0.001171
      f0      :     0.000782  f :     0.002417
      f+1     :     0.000571
      f-1     :     0.000692
      f+2     :     0.000153
      f-2     :     0.000195
      f+3     :     0.000008
      f-3     :     0.000015
  5 C s       :     3.196864  s :     3.196864
      pz      :     0.928185  p :     2.960826
      px      :     1.171008
      py      :     0.861633
      dz2     :     0.011425  d :     0.082957
      dxz     :     0.011382
      dyz     :     0.033971
      dx2y2   :     0.007567
      dxy     :     0.018612
      f0      :     0.001003  f :     0.010076
      f+1     :     0.001143
      f-1     :     0.002041
      f+2     :     0.002110
      f-2     :     0.000777
      f+3     :     0.001713
      f-3     :     0.001290
  6 C s       :     3.183386  s :     3.183386
      pz      :     0.834309  p :     2.445818
      px      :     0.793476
      py      :     0.818033
      dz2     :     0.034353  d :     0.177896
      dxz     :     0.020384
      dyz     :     0.047763
      dx2y2   :     0.017114
      dxy     :     0.058283
      f0      :     0.001930  f :     0.014438
      f+1     :     0.001133
      f-1     :     0.002828
      f+2     :     0.002772
      f-2     :     0.002078
      f+3     :     0.002446
      f-3     :     0.001252
  7 C s       :     3.267238  s :     3.267238
      pz      :     0.924370  p :     2.924671
      px      :     1.029667
      py      :     0.970635
      dz2     :     0.014849  d :     0.068807
      dxz     :     0.017214
      dyz     :     0.011044
      dx2y2   :     0.016349
      dxy     :     0.009353
      f0      :     0.000348  f :     0.004656
      f+1     :     0.001075
      f-1     :     0.000797
      f+2     :     0.000815
      f-2     :     0.000689
      f+3     :     0.000199
      f-3     :     0.000733
  8 N s       :     3.344969  s :     3.344969
      pz      :     1.195147  p :     3.717768
      px      :     1.446569
      py      :     1.076052
      dz2     :     0.014705  d :     0.059285
      dxz     :     0.010239
      dyz     :     0.014522
      dx2y2   :     0.011917
      dxy     :     0.007902
      f0      :     0.000637  f :     0.004952
      f+1     :     0.001089
      f-1     :     0.000636
      f+2     :     0.000929
      f-2     :     0.000900
      f+3     :     0.000302
      f-3     :     0.000459
  9 C s       :     3.157044  s :     3.157044
      pz      :     0.784160  p :     2.353547
      px      :     0.721835
      py      :     0.847552
      dz2     :     0.063035  d :     0.262288
      dxz     :     0.033112
      dyz     :     0.054542
      dx2y2   :     0.055201
      dxy     :     0.056398
      f0      :     0.002851  f :     0.017610
      f+1     :     0.002154
      f-1     :     0.002564
      f+2     :     0.003395
      f-2     :     0.001612
      f+3     :     0.002694
      f-3     :     0.002340
 10 S s       :     5.855959  s :     5.855959
      pz      :     3.443954  p :    10.488229
      px      :     3.574055
      py      :     3.470221
      dz2     :     0.010883  d :     0.084865
      dxz     :     0.011381
      dyz     :     0.034999
      dx2y2   :     0.007937
      dxy     :     0.019665
      f0      :     0.001077  f :     0.010122
      f+1     :     0.000501
      f-1     :     0.002210
      f+2     :     0.001722
      f-2     :     0.002760
      f+3     :     0.001176
      f-3     :     0.000676
 11 N s       :     3.386707  s :     3.386707
      pz      :     1.305761  p :     3.764527
      px      :     1.449136
      py      :     1.009630
      dz2     :     0.008949  d :     0.057993
      dxz     :     0.007431
      dyz     :     0.015341
      dx2y2   :     0.011449
      dxy     :     0.014823
      f0      :     0.000345  f :     0.004443
      f+1     :     0.000584
      f-1     :     0.000593
      f+2     :     0.000686
      f-2     :     0.000639
      f+3     :     0.000815
      f-3     :     0.000782
 12 C s       :     3.135488  s :     3.135488
      pz      :     0.830331  p :     2.619852
      px      :     0.948407
      py      :     0.841114
      dz2     :     0.033583  d :     0.184903
      dxz     :     0.035012
      dyz     :     0.039035
      dx2y2   :     0.029701
      dxy     :     0.047572
      f0      :     0.001210  f :     0.011400
      f+1     :     0.001223
      f-1     :     0.001884
      f+2     :     0.002088
      f-2     :     0.002499
      f+3     :     0.001204
      f-3     :     0.001293
 13 C s       :     3.112724  s :     3.112724
      pz      :     0.886394  p :     2.718977
      px      :     0.919698
      py      :     0.912884
      dz2     :     0.016213  d :     0.110036
      dxz     :     0.016033
      dyz     :     0.026809
      dx2y2   :     0.024274
      dxy     :     0.026708
      f0      :     0.001003  f :     0.011371
      f+1     :     0.001515
      f-1     :     0.001218
[...]
      f-1     :     0.004845
      f+2     :     0.007304
      f-2     :     0.005458
      f+3     :     0.006217
      f-3     :     0.009016
 15 C s       :     2.705736  s :     2.705736
      pz      :     0.892066  p :     2.794417
      px      :     0.949130
      py      :     0.953220
      dz2     :     0.084902  d :     0.416536
      dxz     :     0.076871
      dyz     :     0.054081
      dx2y2   :     0.100157
      dxy     :     0.100525
      f0      :     0.003488  f :     0.041049
      f+1     :     0.005409
      f-1     :     0.005107
      f+2     :     0.007505
      f-2     :     0.005675
      f+3     :     0.007387
      f-3     :     0.006477
 16 C s       :     2.701678  s :     2.701678
      pz      :     0.931131  p :     2.866974
      px      :     0.970629
      py      :     0.965214
      dz2     :     0.039634  d :     0.390456
      dxz     :     0.066319
      dyz     :     0.076644
      dx2y2   :     0.096943
      dxy     :     0.110916
      f0      :     0.003632  f :     0.040321
      f+1     :     0.005224
      f-1     :     0.003667
      f+2     :     0.005778
      f-2     :     0.005111
      f+3     :     0.008094
      f-3     :     0.008815
 17 C s       :     2.701512  s :     2.701512
      pz      :     0.857863  p :     2.680723
      px      :     0.820216
      py      :     1.002643
      dz2     :     0.118967  d :     0.708541
      dxz     :     0.121853
      dyz     :     0.120678
      dx2y2   :     0.174957
      dxy     :     0.172085
      f0      :     0.008203  f :     0.099284
      f+1     :     0.016950
      f-1     :     0.007910
      f+2     :     0.015734
      f-2     :     0.013517
      f+3     :     0.016647
      f-3     :     0.020323
 18 O s       :     3.177112  s :     3.177112
      pz      :     1.446010  p :     4.346293
      px      :     1.392994
      py      :     1.507289
      dz2     :     0.007531  d :     0.075539
      dxz     :     0.017331
      dyz     :     0.016506
      dx2y2   :     0.018230
      dxy     :     0.015941
      f0      :     0.000554  f :     0.005066
      f+1     :     0.000748
      f-1     :     0.000390
      f+2     :     0.000687
      f-2     :     0.000860
      f+3     :     0.000797
      f-3     :     0.001030
 19 C s       :     2.695169  s :     2.695169
      pz      :     0.925922  p :     2.842057
      px      :     0.959159
      py      :     0.956977
      dz2     :     0.070033  d :     0.388128
      dxz     :     0.072577
      dyz     :     0.056367
      dx2y2   :     0.089298
      dxy     :     0.099852
      f0      :     0.003424  f :     0.040835
      f+1     :     0.005430
      f-1     :     0.004889
      f+2     :     0.007467
      f-2     :     0.006286
      f+3     :     0.007127
      f-3     :     0.006213
 20 H s       :     0.844825  s :     0.844825
      pz      :     0.052932  p :     0.154783
      px      :     0.052789
      py      :     0.049062
      dz2     :     0.005943  d :     0.027766
      dxz     :     0.005464
      dyz     :     0.005102
      dx2y2   :     0.005890
      dxy     :     0.005367
 21 H s       :     0.847821  s :     0.847821
      pz      :     0.040157  p :     0.151742
      px      :     0.060900
      py      :     0.050685
      dz2     :     0.002601  d :     0.027475
      dxz     :     0.006113
      dyz     :     0.003290
      dx2y2   :     0.008485
      dxy     :     0.006986
 22 H s       :     0.845793  s :     0.845793
      pz      :     0.051855  p :     0.155700
      px      :     0.042539
      py      :     0.061306
      dz2     :     0.005458  d :     0.027790
      dxz     :     0.003501
      dyz     :     0.006859
      dx2y2   :     0.005189
      dxy     :     0.006783
 23 H s       :     0.855987  s :     0.855987
      pz      :     0.052497  p :     0.144702
      px      :     0.029236
      py      :     0.062970
      dz2     :     0.005919  d :     0.026914
      dxz     :     0.002558
      dyz     :     0.007776
      dx2y2   :     0.005212
      dxy     :     0.005449
 24 H s       :     0.853913  s :     0.853913
      pz      :     0.054685  p :     0.147092
      px      :     0.047207
      py      :     0.045200
      dz2     :     0.006274  d :     0.027258
      dxz     :     0.005969
      dyz     :     0.004647
      dx2y2   :     0.004467
      dxy     :     0.005901
 25 H s       :     0.828004  s :     0.828004
      pz      :     0.041085  p :     0.149973
      px      :     0.064460
      py      :     0.044427
      dz2     :     0.003144  d :     0.027775
      dxz     :     0.007460
      dyz     :     0.002226
      dx2y2   :     0.008323
      dxy     :     0.006623
 26 H s       :     0.824636  s :     0.824636
      pz      :     0.061148  p :     0.151834
      px      :     0.052265
      py      :     0.038421
      dz2     :     0.008209  d :     0.027751
      dxz     :     0.007020
      dyz     :     0.005574
      dx2y2   :     0.003590
      dxy     :     0.003358
 27 H s       :     0.845066  s :     0.845066
      pz      :     0.037194  p :     0.150535
      px      :     0.042401
      py      :     0.070939
      dz2     :     0.002671  d :     0.027721
      dxz     :     0.000901
      dyz     :     0.008091
      dx2y2   :     0.006928
      dxy     :     0.009131
 28 H s       :     0.741453  s :     0.741453
      pz      :     0.056495  p :     0.253376
      px      :     0.077457
      py      :     0.119425
      dz2     :     0.006016  d :     0.061785
      dxz     :     0.000787
      dyz     :     0.018013
      dx2y2   :     0.015619
      dxy     :     0.021349
 29 H s       :     0.748310  s :     0.748310
      pz      :     0.113516  p :     0.254030
      px      :     0.096326
      py      :     0.044189
      dz2     :     0.021257  d :     0.061441
      dxz     :     0.015612
      dyz     :     0.011098
      dx2y2   :     0.007555
      dxy     :     0.005919
 30 H s       :     0.829157  s :     0.829157
      pz      :     0.043527  p :     0.153763
      px      :     0.065201
      py      :     0.045036
      dz2     :     0.003719  d :     0.029394
      dxz     :     0.007548
      dyz     :     0.003674
      dx2y2   :     0.007269
      dxy     :     0.007184
 31 H s       :     0.843895  s :     0.843895
      pz      :     0.049998  p :     0.157093
      px      :     0.069924
      py      :     0.037171
      dz2     :     0.004423  d :     0.027506
      dxz     :     0.007241
      dyz     :     0.002394
      dx2y2   :     0.006589
      dxy     :     0.006860
 32 H s       :     0.842656  s :     0.842656
      pz      :     0.038768  p :     0.151569
      px      :     0.041875
      py      :     0.070926
      dz2     :     0.002853  d :     0.026470
      dxz     :     0.001521
      dyz     :     0.006656
      dx2y2   :     0.007656
      dxy     :     0.007784
 33 H s       :     0.848184  s :     0.848184
      pz      :     0.059542  p :     0.158962
      px      :     0.045965
      py      :     0.053455
      dz2     :     0.006294  d :     0.027751
      dxz     :     0.004829
      dyz     :     0.006158
      dx2y2   :     0.005452
      dxy     :     0.005018
 34 H s       :     0.706131  s :     0.706131
      pz      :     0.120755  p :     0.347516
      px      :     0.080657
      py      :     0.146104
      dz2     :     0.025338  d :     0.099512
      dxz     :     0.012522
      dyz     :     0.024272
      dx2y2   :     0.019212
      dxy     :     0.018167
 35 H s       :     0.838820  s :     0.838820
      pz      :     0.041123  p :     0.156951
      px      :     0.042871
      py      :     0.072956
      dz2     :     0.002879  d :     0.027953
      dxz     :     0.001590
      dyz     :     0.007312
      dx2y2   :     0.008160
      dxy     :     0.008012


                      *****************************
                      * MAYER POPULATION ANALYSIS *
                      *****************************

  NA   - Mulliken gross atomic population
  ZA   - Total nuclear charge
  QA   - Mulliken gross atomic charge
  VA   - Mayer's total valence
  BVA  - Mayer's bonded valence
  FA   - Mayer's free valence

  ATOM       NA         ZA         QA         VA         BVA        FA
  0 C      6.3061     6.0000    -0.3061     3.8739     3.8739    -0.0000
  1 C      5.9556     6.0000     0.0444     3.8631     3.8631    -0.0000
  2 O      8.3691     8.0000    -0.3691     2.0182     2.0182     0.0000
  3 C      5.5492     6.0000     0.4508     4.2660     4.2660     0.0000
  4 O      8.4085     8.0000    -0.4085     2.1010     2.1010     0.0000
  5 C      6.2507     6.0000    -0.2507     3.6480     3.6480    -0.0000
  6 C      5.8215     6.0000     0.1785     3.8240     3.8240    -0.0000
  7 C      6.2654     6.0000    -0.2654     3.9048     3.9048     0.0000
  8 N      7.1270     7.0000    -0.1270     3.3073     3.3073     0.0000
  9 C      5.7905     6.0000     0.2095     4.1546     4.1546    -0.0000
 10 S     16.4392    16.0000    -0.4392     1.7577     1.7577     0.0000
 11 N      7.2137     7.0000    -0.2137     3.2395     3.2395     0.0000
 12 C      5.9516     6.0000     0.0484     3.9206     3.9206     0.0000
 13 C      5.9531     6.0000     0.0469     3.7271     3.7271     0.0000
 14 C      6.1696     6.0000    -0.1696     3.8403     3.8403    -0.0000
 15 C      6.1487     6.0000    -0.1487     3.7936     3.7936    -0.0000
 16 C      6.2637     6.0000    -0.2637     3.7866     3.7866     0.0000
 17 C      5.6820     6.0000     0.3180     3.8563     3.8563    -0.0000
 18 O      8.3598     8.0000    -0.3598     2.1151     2.1151     0.0000
 19 C      6.2633     6.0000    -0.2633     3.8258     3.8258    -0.0000
 20 H      0.8951     1.0000     0.1049     0.9838     0.9838    -0.0000
 21 H      0.8873     1.0000     0.1127     0.9824     0.9824     0.0000
 22 H      0.8961     1.0000     0.1039     0.9811     0.9811    -0.0000
 23 H      0.8961     1.0000     0.1039     0.9788     0.9788    -0.0000
 24 H      0.9039     1.0000     0.0961     0.9883     0.9883    -0.0000
 25 H      0.8729     1.0000     0.1271     0.9813     0.9813    -0.0000
 26 H      0.8653     1.0000     0.1347     0.9795     0.9795    -0.0000
 27 H      0.9059     1.0000     0.0941     0.9847     0.9847    -0.0000
 28 H      0.7998     1.0000     0.2002     1.0204     1.0204     0.0000
 29 H      0.7986     1.0000     0.2014     1.0148     1.0148     0.0000
 30 H      0.8478     1.0000     0.1522     0.9841     0.9841    -0.0000
 31 H      0.8493     1.0000     0.1507     0.9870     0.9870    -0.0000
 32 H      0.8342     1.0000     0.1658     0.9759     0.9759     0.0000
 33 H      0.8673     1.0000     0.1327     0.9907     0.9907     0.0000
 34 H      0.7587     1.0000     0.2413     1.0102     1.0102    -0.0000
 35 H      0.8333     1.0000     0.1667     0.9887     0.9887    -0.0000

  Mayer bond orders larger than 0.100000
B(  0-C ,  1-C ) :   0.9719 B(  0-C , 20-H ) :   0.9716 B(  0-C , 21-H ) :   0.9785 
B(  0-C , 22-H ) :   0.9732 B(  1-C ,  2-O ) :   0.8900 B(  1-C , 23-H ) :   0.9881 
B(  1-C , 24-H ) :   0.9734 B(  2-O ,  3-C ) :   1.1212 B(  3-C ,  4-O ) :   2.0207 
B(  3-C ,  5-C ) :   1.0639 B(  5-C ,  6-C ) :   1.6165 B(  5-C , 12-C ) :   0.9659 
B(  6-C ,  7-C ) :   0.9654 B(  6-C ,  8-N ) :   1.1525 B(  7-C , 25-H ) :   0.9658 
B(  7-C , 26-H ) :   0.9551 B(  7-C , 27-H ) :   0.9889 B(  8-N ,  9-C ) :   1.1859 
B(  8-N , 28-H ) :   0.9470 B(  9-C , 10-S ) :   1.6088 B(  9-C , 11-N ) :   1.3086 
B( 11-N , 12-C ) :   0.9639 B( 11-N , 29-H ) :   0.9483 B( 12-C , 13-C ) :   0.9599 
B( 12-C , 30-H ) :   1.0046 B( 13-C , 14-C ) :   1.3528 B( 13-C , 19-C ) :   1.3650 
B( 14-C , 15-C ) :   1.3901 B( 14-C , 31-H ) :   0.9730 B( 15-C , 16-C ) :   1.3558 
B( 15-C , 32-H ) :   0.9705 B( 16-C , 17-C ) :   1.3327 B( 16-C , 33-H ) :   0.9842 
B( 17-C , 18-O ) :   1.1037 B( 17-C , 19-C ) :   1.3604 B( 18-O , 34-H ) :   0.9792 
B( 19-C , 35-H ) :   0.9616 

-------
TIMINGS
-------

Total SCF time: 0 days 1 hours 33 min 53 sec 

Total time                  ....    5633.526 sec
Sum of individual times     ....    5625.173 sec  ( 99.9%)

Fock matrix formation       ....    5602.289 sec  ( 99.4%)
Diagonalization             ....       5.158 sec  (  0.1%)
Density matrix formation    ....       0.198 sec  (  0.0%)
Population analysis         ....       0.946 sec  (  0.0%)
Initial guess               ....       4.787 sec  (  0.1%)
Orbital Transformation      ....       0.000 sec  (  0.0%)
Orbital Orthonormalization  ....       0.000 sec  (  0.0%)
DIIS solution               ....       5.787 sec  (  0.1%)
SOSCF solution              ....       4.849 sec  (  0.1%)

------------------------------------------------------------------------------
                                ORCA  MP2 
------------------------------------------------------------------------------

Freezing NCore=48 chemical core electrons

-------------
RI-MP2 ENERGY
-------------
Dimension of the basis                    ...  828
Memory devoted to MP2                     ...  256 MB   
Data format for buffers                   ... DOUBLE
Compression type for matrix containers    ... UNCOMPRESSED
Overall scaling of the MP2 energy         ...   1.000e+00
Calculating two index integrals           ... done (    0.033 sec)
Cholesky decomposition of V**-1           ... done (    1.589 sec)

-----------------
RI-TRANSFORMATION (AUX index driven)
-----------------

Dimension of the orbital-basis         ... 828
Dimension of the aux-basis             ... 2141
Transformation of internal/external MOs...   24-  76 to   77- 827
Number Format for Storage              ... Double (8 Byte)
Integral mode                          ... Direct

First Phase: integral generation and transformation of MO indices
  Aux angular momentum 0               ... done (    8.315 sec)
  Aux angular momentum 1               ... done (   14.504 sec)
  Aux angular momentum 2               ... done (   21.664 sec)
  Aux angular momentum 3               ... done (   16.750 sec)
  Aux angular momentum 4               ... done (    5.704 sec)
Closing buffer VIA ( 0.63 GB; CompressionRatio= 1.00)
  Phase 1 completed in    67.184 sec
Second Phase: sorting and transformation of aux index

IA-Transformation
Memory available                       ... 167 MB 
Max. # MO pairs treated in a batch     ... 12    
# of internal orbitals                 ... 53
# batches for internal orbitals        ... 5
Closing buffer IAV ( 0.63 GB; CompressionRatio= 1.00)
(ia|v) transformation done in    84.205 sec

  Phase 2 completed in    84.308 sec
RI-Integral transformation completed in   151.556 sec
Opening buffers                              ... done

Starting loop over batches of integrals:

Operator 0  - window                       ... ( 24- 76)x( 77-827)
Operator 0  - Memory available             ...   256 MB
Operator 0  - Memory needed per MO         ...  12.3 MB
Operator 0  - Number of orbitals per batch ... 13
Operator 0  - Number of batches            ... 5

OPERATOR  0   PASS   0:  MOs    24 ...   36
  Reading integrals       ... ok
  Internal MO  26
  Internal MO  29
  Internal MO  32
  Internal MO  35
OPERATOR  0   PASS   1:  MOs    37 ...   49
  Reading integrals       ... ok
  Internal MO  38
  Internal MO  41
  Internal MO  44
  Internal MO  47
OPERATOR  0   PASS   2:  MOs    50 ...   62
  Reading integrals       ... ok
  Internal MO  50
  Internal MO  53
  Internal MO  56
  Internal MO  59
  Internal MO  62
OPERATOR  0   PASS   3:  MOs    63 ...   75
  Reading integrals       ... ok
  Internal MO  65
  Internal MO  68
  Internal MO  71
  Internal MO  74
OPERATOR  0   PASS   4:  MOs    76 ...   76
  Reading integrals       ... ok
Time spent in pair loops =   422.447 sec
Deleting buffer (Ka|jb)[aa] ...done

-----------------------------------------------
 RI-MP2 CORRELATION ENERGY:     -3.533998129 Eh
-----------------------------------------------


-------
TIMINGS
-------

Total time                :  575.738 sec
Integral trafo            :  151.581 sec ( 26.3%)
I/O of integrals          :    7.083 sec (  1.2%)
K(i,j) Operators          :  374.446 sec ( 65.0%)
T(i,j) pair energies      :    3.584 sec (  0.6%)
V-calculation             :    0.033 sec (  0.0%)
V**(-1/2)                 :    1.589 sec (  0.3%)
Gamma(ia|P)               :    0.000 sec (  0.0%)
Gamma-Trafo               :    0.000 sec (  0.0%)
D(virtual)                :    0.000 sec (  0.0%)
D(internal)               :    0.000 sec (  0.0%)
W(virtual)                :    0.000 sec (  0.0%)
W(internal)               :    0.000 sec (  0.0%)
L(virtual)                :    0.000 sec (  0.0%)
L(internal)               :    0.000 sec (  0.0%)
G(D)                      :    0.000 sec (  0.0%)
G(Z)                      :    0.000 sec (  0.0%)
Z-Vector Solution         :    0.000 sec (  0.0%)
3-Index Derivative        :    0.000 sec (  0.0%)
2-Index Derivative        :    0.000 sec (  0.0%)
Separable Gradient        :    0.000 sec (  0.0%)


---------------------------------------
MP2 TOTAL ENERGY:    -1274.329054047 Eh
---------------------------------------

-------------------------   --------------------
FINAL SINGLE POINT ENERGY     -1274.329054046918
-------------------------   --------------------


                            ***************************************
                            *     ORCA property calculations      *
                            ***************************************


  WARNING: The energy has been calculated at the MP2 level but the densities
           used in the property calculations are still SCF densities
           MP2 response densities have not been calculated 
           use %mp2 Density relaxed end
           or  %mp2 Density unrelaxed end

                                    ---------------------
                                    Active property flags
                                    ---------------------
   (+) Dipole Moment


------------------------------------------------------------------------------
                       ORCA ELECTRIC PROPERTIES CALCULATION
------------------------------------------------------------------------------

Dipole Moment Calculation                       ... on
Quadrupole Moment Calculation                   ... off
Polarizability Calculation                      ... off
GBWName                                         ... CONFS/Conf180.orca.gbw
Electron density file                           ... CONFS/Conf180.orca.scfp
The origin for moment calculation is the CENTER OF MASS  = (31.786806, 33.111674 33.262240)

-------------
DIPOLE MOMENT
-------------
                                X             Y             Z
Electronic contribution:      8.28030      10.68586       5.59450
Nuclear contribution   :     -9.34151     -12.31951      -5.63328
                        -----------------------------------------
Total Dipole Moment    :     -1.06121      -1.63365      -0.03878
                        -----------------------------------------
Magnitude (a.u.)       :      1.94846
Magnitude (Debye)      :      4.95258



--------------------
Rotational spectrum 
--------------------
 
Rotational constants in cm-1:     0.012296     0.008805     0.006090 
Rotational constants in MHz :   368.611270   263.957469   182.575935 

 Dipole components along the rotational axes: 
x,y,z [a.u.] :    -1.897005    -0.340172     0.286588 
x,y,z [Debye]:    -4.821804    -0.864648     0.728450 

 

Timings for individual modules:

Sum of individual times         ...     6211.205 sec (= 103.520 min)
GTO integral calculation        ...        1.089 sec (=   0.018 min)   0.0 %
SCF iterations                  ...     5633.578 sec (=  93.893 min)  90.7 %
MP2 module                      ...      576.538 sec (=   9.609 min)   9.3 %
                             ****ORCA TERMINATED NORMALLY****
TOTAL RUN TIME: 0 days 1 hours 43 minutes 32 seconds 419 msec
