
                                 *****************
                                 * O   R   C   A *
                                 *****************

           --- An Ab Initio, DFT and Semiempirical electronic structure package ---

                  #######################################################
                  #                        -***-                        #
                  #          Department of theory and spectroscopy      #
                  #               Directorship: Frank Neese             #
                  #        Max Planck Institute fuer Kohlenforschung    #
                  #                Kaiser Wilhelm Platz 1               #
                  #                 D-45470 Muelheim/Ruhr               #
                  #                      Germany                        #
                  #                                                     #
                  #                  All rights reserved                #
                  #                        -***-                        #
                  #######################################################


                         Program Version 4.2.0 -  RELEASE  -


 With contributions from (in alphabetic order):
   Daniel Aravena         : Magnetic Suceptibility
   Michael Atanasov       : Ab Initio Ligand Field Theory (pilot matlab implementation)
   Alexander A. Auer      : GIAO ZORA, VPT2
   Ute Becker             : Parallelization
   Giovanni Bistoni       : ED, misc. LED, open-shell LED, HFLED
   Martin Brehm           : Molecular dynamics
   Dmytro Bykov           : SCF Hessian
   Vijay G. Chilkuri      : MRCI spin determinant printing, contributions to CSF-ICE
   Dipayan Datta          : RHF DLPNO-CCSD density
   Achintya Kumar Dutta   : EOM-CC, STEOM-CC
   Dmitry Ganyushin       : Spin-Orbit,Spin-Spin,Magnetic field MRCI
   Miquel Garcia          : C-PCM Hessian, Gaussian charge scheme
   Yang Guo               : DLPNO-NEVPT2, CIM, IAO-localization
   Andreas Hansen         : Spin unrestricted coupled pair/coupled cluster methods
   Benjamin Helmich-Paris : CASSCF linear response (MC-RPA)
   Lee Huntington         : MR-EOM, pCC
   Robert Izsak           : Overlap fitted RIJCOSX, COSX-SCS-MP3, EOM
   Christian Kollmar      : KDIIS, OOCD, Brueckner-CCSD(T), CCSD density
   Simone Kossmann        : Meta GGA functionals, TD-DFT gradient, OOMP2, MP2 Hessian
   Martin Krupicka        : AUTO-CI
   Lucas Lang             : DCDCAS
   Dagmar Lenk            : GEPOL surface, SMD
   Dimitrios Liakos       : Extrapolation schemes; Compound Job, initial MDCI parallelization
   Dimitrios Manganas     : Further ROCIS development; embedding schemes
   Dimitrios Pantazis     : SARC Basis sets
   Taras Petrenko         : DFT Hessian,TD-DFT gradient, ASA, ECA, R-Raman, ABS, FL, XAS/XES, NRVS
   Peter Pinski           : DLPNO-MP2, DLPNO-MP2 Gradient
   Christoph Reimann      : Effective Core Potentials
   Marius Retegan         : Local ZFS, SOC
   Christoph Riplinger    : Optimizer, TS searches, QM/MM, DLPNO-CCSD(T), (RO)-DLPNO pert. Triples
   Tobias Risthaus        : Range-separated hybrids, TD-DFT gradient, RPA, STAB
   Michael Roemelt        : Original ROCIS implementation
   Masaaki Saitow         : Open-shell DLPNO-CCSD energy and density
   Barbara Sandhoefer     : DKH picture change effects
   Avijit Sen             : IP-ROCIS
   Kantharuban Sivalingam : CASSCF convergence, NEVPT2, FIC-MRCI
   Bernardo de Souza      : ESD, SOC TD-DFT
   Georgi Stoychev        : AutoAux, RI-MP2 NMR
   Willem Van den Heuvel  : Paramagnetic NMR
   Boris Wezisla          : Elementary symmetry handling
   Frank Wennmohs         : Technical directorship


 We gratefully acknowledge several colleagues who have allowed us to
 interface, adapt or use parts of their codes:
   Stefan Grimme, W. Hujo, H. Kruse,             : VdW corrections, initial TS optimization,
                  C. Bannwarth                     DFT functionals, gCP, sTDA/sTD-DF
   Ed Valeev, F. Pavosevic, A. Kumar             : LibInt (2-el integral package), F12 methods
   Garnet Chan, S. Sharma, J. Yang, R. Olivares  : DMRG
   Ulf Ekstrom                                   : XCFun DFT Library
   Mihaly Kallay                                 : mrcc  (arbitrary order and MRCC methods)
   Andreas Klamt, Michael Diedenhofen            : otool_cosmo (COSMO solvation model)
   Jiri Pittner, Ondrej Demel                    : Mk-CCSD
   Frank Weinhold                                : gennbo (NPA and NBO analysis)
   Christopher J. Cramer and Donald G. Truhlar   : smd solvation model
   Lars Goerigk                                  : TD-DFT with DH, B97 family of functionals
   V. Asgeirsson, H. Jonsson                     : NEB implementation
   FAccTs GmbH                                   : IRC, NEB, NEB-TS, Multilevel, MM, QM/MM, CI optimization
   S Lehtola, MJT Oliveira, MAL Marques          : LibXC Library


 Your calculation uses the libint2 library for the computation of 2-el integrals
 For citations please refer to: http://libint.valeyev.net

 Your ORCA version has been built with support for libXC version: 4.2.3
 For citations please refer to: https://tddft.org/programs/libxc/

 This ORCA versions uses:
   CBLAS   interface :  Fast vector & matrix operations
   LAPACKE interface :  Fast linear algebra routines
   SCALAPACK package :  Parallel linear algebra routines


----- Orbital basis set information -----
Your calculation utilizes the basis: cc-pVTZ 
       H, B-Ne : Obtained from the ccRepo (grant-hill.group.shef.ac.uk/ccrepo) Feb. 2017
                 T. H. Dunning, Jr., J. Chem. Phys. 90, 1007 (1989)
            He : Obtained from the ccRepo (grant-hill.group.shef.ac.uk/ccrepo) Feb. 2017
                 D. E. Woon, T. H. Dunning, Jr., J. Chem. Phys. 100, 2975 (1994)
  Li-Be, Na-Mg : Obtained from the ccRepo (grant-hill.group.shef.ac.uk/ccrepo) Feb. 2017
                 B. P. Prascher, D. E. Woon, K. A. Peterson, T. H. Dunning, Jr., A. K. Wilson, Theor. Chem. Acc. 128, 69 (2011)
         Al-Ar : Obtained from the ccRepo (grant-hill.group.shef.ac.uk/ccrepo) Feb. 2017
                 D. E. Woon, T. H. Dunning, Jr., J. Chem. Phys. 98, 1358 (1993)
            Ca : Obtained from the Peterson Research Group Website (tyr0.chem.wsu.edu/~kipeters) Feb. 2017
                 J. Koput, K. A. Peterson, J. Phys. Chem. 106, 9595 (2002)
         Sc-Zn : Obtained from the ccRepo (grant-hill.group.shef.ac.uk/ccrepo) Feb. 2017
                 N. B. Balabanov, K. A. Peterson, J. Chem. Phys. 123, 064107 (2005)
                 N. B. Balabanov, K. A. Peterson, J. Chem. Phys. 125, 074110 (2006)
         Ga-Kr : Obtained from the ccRepo (grant-hill.group.shef.ac.uk/ccrepo) Feb. 2017
                 A. K. Wilson, D. E. Woon, K. A. Peterson, T. H. Dunning, Jr., J. Chem. Phys. 110, 7667 (1999)
             Y : Obtained from the ccRepo (grant-hill.group.shef.ac.uk/ccrepo) Feb. 2017
                 K. A. Peterson, D. Figgen, M. Dolg, H. Stoll, J. Chem. Phys. 126, 124101 (2007)
        Ag, Au : Obtained from the Peterson Research Group Website (tyr0.chem.wsu.edu/~kipeters) Feb. 2017
                 K. A. Peterson, C. Puzzarini, Theor. Chem. Acc. 114, 283 (2005)

----- AuxC basis set information -----
Your calculation utilizes the auxiliary basis: cc-pVTZ/C 
  Obtained from the EMSL Basis Set Exchange (bse.pnl.gov) Feb. 2017
  H-He, B-F, Al-Ar, Ga-Kr : F. Weigend, A. Kohn, C. Hattig, J. Chem. Phys. 116, 3175 (2002)
             Li-Be, Na-Mg : C. Haettig, Phys. Chem. Chem. Phys. 7, 59 (2005)
                       Ne : C. Haettig, Phys. Chem. Chem. Phys. 7, 59 (2005)
                            F. Weigend, A. Kohn, C. Hattig, J. Chem. Phys. 116, 3175 (2002)
                    Sc-Zn : J. G. Hill, J. A. Platts, J. Chem. Phys. 128, 044104 (2008)

================================================================================
                                        WARNINGS
                       Please study these warnings very carefully!
================================================================================


WARNING: No MP2 level density has been requested!
         To caclulate MP2 level properties use
         %mp2 Density relaxed end
         or
         %mp2 Density unrelaxed end

WARNING: Post HF methods need fully converged wavefunctions
  ===> : Setting SCFConvForced true
         You can overwrite this default with %scf ConvForced false 


INFO   : the flag for use of LIBINT has been found!

================================================================================
                                       INPUT FILE
================================================================================
NAME = CONFS/Conf268.orca
|  1> ! ri-mp2 cc-pvtz cc-pvtz/c TightSCF NoKeepInts
|  2> 
|  3> %scf
|  4>   MaxCore 4096
|  5> end
|  6> *xyz  0  1
|  7>     C       14.5586999   16.0297365   16.4919250
|  8>     C       15.2311193   15.9110307   15.1088354
|  9>     O       16.6414173   15.6374421   15.2351400
| 10>     C       17.5942517   16.5974145   15.4519875
| 11>     O       18.7205120   16.4963174   15.0044381
| 12>     C       17.2318253   17.6744302   16.4092914
| 13>     C       16.9042121   18.8925841   15.9223689
| 14>     C       16.5359333   19.2160736   14.4889719
| 15>     N       16.9158676   20.0205889   16.7444036
| 16>     C       17.5031475   20.0565529   17.9823015
| 17>     S       17.5960174   21.4528590   18.8633281
| 18>     N       18.0329596   18.8755021   18.4436849
| 19>     C       17.8632432   17.5584753   17.7962718
| 20>     C       17.2389276   16.4794560   18.6686706
| 21>     C       17.7063530   15.1551021   18.5903937
| 22>     C       17.1250421   14.1450331   19.3747351
| 23>     C       16.0667445   14.4619059   20.2434656
| 24>     C       15.5972306   15.7802253   20.3214376
| 25>     O       14.5690431   16.0868472   21.1516359
| 26>     C       16.1774103   16.7841716   19.5394356
| 27>     H       14.9016189   15.2291860   17.1598776
| 28>     H       13.4703440   15.9394209   16.3915813
| 29>     H       14.7623188   16.9949311   16.9675027
| 30>     H       14.7695628   15.0657532   14.5818019
| 31>     H       15.0510065   16.8102764   14.5073256
| 32>     H       16.9745536   18.5056575   13.7767697
| 33>     H       16.9038888   20.2081092   14.1972792
| 34>     H       15.4480672   19.2078514   14.3518317
| 35>     H       16.5667146   20.9011990   16.4003683
| 36>     H       18.4617037   18.9292290   19.3592657
| 37>     H       18.9179791   17.3076477   17.6069682
| 38>     H       18.5182139   14.9064373   17.9101475
| 39>     H       17.4930903   13.1227497   19.3043398
| 40>     H       15.6138154   13.6841874   20.8495636
| 41>     H       14.3307836   15.2789494   21.6309711
| 42>     H       15.7933814   17.7966663   19.6096838
| 43> *
| 44> 
| 45>                          ****END OF INPUT****
================================================================================

                       ****************************
                       * Single Point Calculation *
                       ****************************

---------------------------------
CARTESIAN COORDINATES (ANGSTROEM)
---------------------------------
  C     14.558700   16.029736   16.491925
  C     15.231119   15.911031   15.108835
  O     16.641417   15.637442   15.235140
  C     17.594252   16.597414   15.451987
  O     18.720512   16.496317   15.004438
  C     17.231825   17.674430   16.409291
  C     16.904212   18.892584   15.922369
  C     16.535933   19.216074   14.488972
  N     16.915868   20.020589   16.744404
  C     17.503148   20.056553   17.982301
  S     17.596017   21.452859   18.863328
  N     18.032960   18.875502   18.443685
  C     17.863243   17.558475   17.796272
  C     17.238928   16.479456   18.668671
  C     17.706353   15.155102   18.590394
  C     17.125042   14.145033   19.374735
  C     16.066744   14.461906   20.243466
  C     15.597231   15.780225   20.321438
  O     14.569043   16.086847   21.151636
  C     16.177410   16.784172   19.539436
  H     14.901619   15.229186   17.159878
  H     13.470344   15.939421   16.391581
  H     14.762319   16.994931   16.967503
  H     14.769563   15.065753   14.581802
  H     15.051006   16.810276   14.507326
  H     16.974554   18.505657   13.776770
  H     16.903889   20.208109   14.197279
  H     15.448067   19.207851   14.351832
  H     16.566715   20.901199   16.400368
  H     18.461704   18.929229   19.359266
  H     18.917979   17.307648   17.606968
  H     18.518214   14.906437   17.910148
  H     17.493090   13.122750   19.304340
  H     15.613815   13.684187   20.849564
  H     14.330784   15.278949   21.630971
  H     15.793381   17.796666   19.609684

----------------------------
CARTESIAN COORDINATES (A.U.)
----------------------------
  NO LB      ZA    FRAG     MASS         X           Y           Z
   0 C     6.0000    0    12.011   27.511956   30.291812   31.165222
   1 C     6.0000    0    12.011   28.782644   30.067491   28.551561
   2 O     8.0000    0    15.999   31.447721   29.550483   28.790242
   3 C     6.0000    0    12.011   33.248317   31.364568   29.200025
   4 O     8.0000    0    15.999   35.376641   31.173522   28.354279
   5 C     6.0000    0    12.011   32.563431   33.399833   31.009067
   6 C     6.0000    0    12.011   31.944331   35.701810   30.088917
   7 C     6.0000    0    12.011   31.248385   36.313116   27.380189
   8 N     7.0000    0    14.007   31.966357   37.833430   31.642337
   9 C     6.0000    0    12.011   33.076155   37.901392   33.981625
  10 S    16.0000    0    32.060   33.251654   40.540028   35.646524
  11 N     7.0000    0    14.007   34.077355   35.669530   34.853513
  12 C     6.0000    0    12.011   33.756638   33.180710   33.630080
  13 C     6.0000    0    12.011   32.576852   31.141659   35.278675
  14 C     6.0000    0    12.011   33.460158   28.638993   35.130753
  15 C     6.0000    0    12.011   32.361640   26.730239   36.612943
  16 C     6.0000    0    12.011   30.361747   27.329042   38.254606
  17 C     6.0000    0    12.011   29.474494   29.820304   38.401952
  18 O     8.0000    0    15.999   27.531501   30.399736   39.970799
  19 C     6.0000    0    12.011   30.570875   31.717488   36.924182
  20 H     1.0000    0     1.008   28.159979   28.778991   32.427469
  21 H     1.0000    0     1.008   25.455261   30.121140   30.975600
  22 H     1.0000    0     1.008   27.896740   32.115765   32.063933
  23 H     1.0000    0     1.008   27.910429   28.470148   27.555612
  24 H     1.0000    0     1.008   28.442280   31.766819   27.414872
  25 H     1.0000    0     1.008   32.077258   34.970625   26.034322
  26 H     1.0000    0     1.008   31.943720   38.187792   26.828970
  27 H     1.0000    0     1.008   29.192616   36.297579   27.121031
  28 H     1.0000    0     1.008   31.306554   39.497542   30.992205
  29 H     1.0000    0     1.008   34.887564   35.771059   36.583710
  30 H     1.0000    0     1.008   35.749800   32.706714   33.272348
  31 H     1.0000    0     1.008   34.994353   28.169084   33.845274
  32 H     1.0000    0     1.008   33.057150   24.798403   36.479915
  33 H     1.0000    0     1.008   29.505835   25.859367   39.399965
  34 H     1.0000    0     1.008   27.081256   28.873030   40.876611
  35 H     1.0000    0     1.008   29.845166   33.630825   37.056932

--------------------------------
INTERNAL COORDINATES (ANGSTROEM)
--------------------------------
 C      0   0   0     0.000000000000     0.00000000     0.00000000
 C      1   0   0     1.542457700580     0.00000000     0.00000000
 O      2   1   0     1.442131763340   111.24670198     0.00000000
 C      3   2   1     1.369840589573   124.13484724   277.14804741
 O      4   3   2     1.216134594699   121.84768123   212.48409289
 C      4   3   2     1.485848737395   116.12258335    40.31272210
 C      6   4   3     1.352154892720   118.69212722   255.70904872
 C      7   6   4     1.514893293519   126.30013826    15.94550825
 N      7   6   4     1.395805046383   120.92719082   197.80928074
 C      9   7   6     1.370613840972   123.82714589    13.97210914
 S     10   9   7     1.653633397441   121.83084490   174.92270072
 N     10   9   7     1.374211226589   116.47956916   356.05658795
 C     12  10   9     1.477331029390   125.08263781   351.63608877
 C     13  12  10     1.521555876206   115.34564513   237.46480672
 C     14  13  12     1.406601233500   119.96237401   218.61406423
 C     15  14  13     1.404760897439   120.55752998   181.00024338
 C     16  15  14     1.405380682654   119.64560560     0.06245465
 C     17  16  15     1.401602288630   119.91503588     0.06679305
 O     18  17  16     1.356619232518   120.03430741   179.49648123
 C     18  17  16     1.398586352565   120.33856446   359.94200189
 H      1   2   3     1.097558754445   110.69319623   315.81837175
 H      1   2   3     1.096697009569   110.13565883   196.70584091
 H      1   2   3     1.095096078453   112.09737331    77.35912635
 H      2   1   3     1.097858262628   107.84442330   118.12076580
 H      2   1   3     1.096766834468   110.92122395   235.46215849
 H      8   7   6     1.097410942353   112.25124481   334.01656060
 H      8   7   6     1.097547499146   111.28329674   215.16885096
 H      8   7   6     1.096507040816   110.97313259    95.08989424
 H      9   7   6     1.007840390775   120.14493790   187.21524582
 H     12  10   9     1.012421001559   114.91609899   179.92128719
 H     13  12  10     1.100553568275    99.69837274   120.61495767
 H     15  14  13     1.087973895056   119.86518496     0.38617738
 H     16  15  14     1.088796732958   119.94217777   179.84668081
 H     17  16  15     1.085055584048   119.86878782   179.88366142
 H     19  18  17     0.969138111181   107.49297140     2.84461297
 H     20  18  17     1.085153686427   119.12801296   179.52911985

---------------------------
INTERNAL COORDINATES (A.U.)
---------------------------
 C      0   0   0     0.000000000000     0.00000000     0.00000000
 C      1   0   0     2.914822627254     0.00000000     0.00000000
 O      2   1   0     2.725234081742   111.24670198     0.00000000
 C      3   2   1     2.588623561422   124.13484724   277.14804741
 O      4   3   2     2.298161325969   121.84768123   212.48409289
 C      4   3   2     2.807847190109   116.12258335    40.31272210
 C      6   4   3     2.555202437882   118.69212722   255.70904872
 C      7   6   4     2.862733446865   126.30013826    15.94550825
 N      7   6   4     2.637689274009   120.92719082   197.80928074
 C      9   7   6     2.590084794799   123.82714589    13.97210914
 S     10   9   7     3.124914247068   121.83084490   174.92270072
 N     10   9   7     2.596882868413   116.47956916   356.05658795
 C     12  10   9     2.791751054691   125.08263781   351.63608877
 C     13  12  10     2.875323903488   115.34564513   237.46480672
 C     14  13  12     2.658091110951   119.96237401   218.61406423
 C     15  14  13     2.654613379801   120.55752998   181.00024338
 C     16  15  14     2.655784604119   119.64560560     0.06245465
 C     17  16  15     2.648644474188   119.91503588     0.06679305
 O     18  17  16     2.563638817470   120.03430741   179.49648123
 C     18  17  16     2.642945180987   120.33856446   359.94200189
 H      1   2   3     2.074085461788   110.69319623   315.81837175
 H      1   2   3     2.072456999976   110.13565883   196.70584091
 H      1   2   3     2.069431678608   112.09737331    77.35912635
 H      2   1   3     2.074651450230   107.84442330   118.12076580
 H      2   1   3     2.072588949912   110.92122395   235.46215849
 H      8   7   6     2.073806137416   112.25124481   334.01656060
 H      8   7   6     2.074064192355   111.28329674   215.16885096
 H      8   7   6     2.072098011058   110.97313259    95.08989424
 H      9   7   6     1.904542325269   120.14493790   187.21524582
 H     12  10   9     1.913198425176   114.91609899   179.92128719
 H     13  12  10     2.079744839750    99.69837274   120.61495767
 H     15  14  13     2.055972702511   119.86518496     0.38617738
 H     16  15  14     2.057527640800   119.94217777   179.84668081
 H     17  16  15     2.050457893932   119.86878782   179.88366142
 H     19  18  17     1.831405616078   107.49297140     2.84461297
 H     20  18  17     2.050643280562   119.12801296   179.52911985

---------------------
BASIS SET INFORMATION
---------------------
There are 5 groups of distinct atoms

 Group   1 Type C   : 18s5p2d1f contracted to 4s3p2d1f pattern {8811/311/11/1}
 Group   2 Type O   : 18s5p2d1f contracted to 4s3p2d1f pattern {8811/311/11/1}
 Group   3 Type N   : 18s5p2d1f contracted to 4s3p2d1f pattern {8811/311/11/1}
 Group   4 Type S   : 41s16p2d1f contracted to 5s4p2d1f pattern {13131311/7711/11/1}
 Group   5 Type H   : 5s2p1d contracted to 3s2p1d pattern {311/11/1}

Atom   0C    basis set group =>   1
Atom   1C    basis set group =>   1
Atom   2O    basis set group =>   2
Atom   3C    basis set group =>   1
Atom   4O    basis set group =>   2
Atom   5C    basis set group =>   1
Atom   6C    basis set group =>   1
Atom   7C    basis set group =>   1
Atom   8N    basis set group =>   3
Atom   9C    basis set group =>   1
Atom  10S    basis set group =>   4
Atom  11N    basis set group =>   3
Atom  12C    basis set group =>   1
Atom  13C    basis set group =>   1
Atom  14C    basis set group =>   1
Atom  15C    basis set group =>   1
Atom  16C    basis set group =>   1
Atom  17C    basis set group =>   1
Atom  18O    basis set group =>   2
Atom  19C    basis set group =>   1
Atom  20H    basis set group =>   5
Atom  21H    basis set group =>   5
Atom  22H    basis set group =>   5
Atom  23H    basis set group =>   5
Atom  24H    basis set group =>   5
Atom  25H    basis set group =>   5
Atom  26H    basis set group =>   5
Atom  27H    basis set group =>   5
Atom  28H    basis set group =>   5
Atom  29H    basis set group =>   5
Atom  30H    basis set group =>   5
Atom  31H    basis set group =>   5
Atom  32H    basis set group =>   5
Atom  33H    basis set group =>   5
Atom  34H    basis set group =>   5
Atom  35H    basis set group =>   5
---------------------------------
AUXILIARY/C BASIS SET INFORMATION
---------------------------------
There are 5 groups of distinct atoms

 Group   1 Type C   : 8s6p5d3f1g contracted to 8s6p5d3f1g pattern {11111111/111111/11111/111/1}
 Group   2 Type O   : 8s6p5d3f1g contracted to 8s6p5d3f1g pattern {11111111/111111/11111/111/1}
 Group   3 Type N   : 8s6p5d3f1g contracted to 8s6p5d3f1g pattern {11111111/111111/11111/111/1}
 Group   4 Type S   : 10s8p7d5f2g contracted to 10s8p7d5f2g pattern {1111111111/11111111/1111111/11111/11}
 Group   5 Type H   : 4s3p2d1f contracted to 4s3p2d1f pattern {1111/111/11/1}

Atom   0C    basis set group =>   1
Atom   1C    basis set group =>   1
Atom   2O    basis set group =>   2
Atom   3C    basis set group =>   1
Atom   4O    basis set group =>   2
Atom   5C    basis set group =>   1
Atom   6C    basis set group =>   1
Atom   7C    basis set group =>   1
Atom   8N    basis set group =>   3
Atom   9C    basis set group =>   1
Atom  10S    basis set group =>   4
Atom  11N    basis set group =>   3
Atom  12C    basis set group =>   1
Atom  13C    basis set group =>   1
Atom  14C    basis set group =>   1
Atom  15C    basis set group =>   1
Atom  16C    basis set group =>   1
Atom  17C    basis set group =>   1
Atom  18O    basis set group =>   2
Atom  19C    basis set group =>   1
Atom  20H    basis set group =>   5
Atom  21H    basis set group =>   5
Atom  22H    basis set group =>   5
Atom  23H    basis set group =>   5
Atom  24H    basis set group =>   5
Atom  25H    basis set group =>   5
Atom  26H    basis set group =>   5
Atom  27H    basis set group =>   5
Atom  28H    basis set group =>   5
Atom  29H    basis set group =>   5
Atom  30H    basis set group =>   5
Atom  31H    basis set group =>   5
Atom  32H    basis set group =>   5
Atom  33H    basis set group =>   5
Atom  34H    basis set group =>   5
Atom  35H    basis set group =>   5
------------------------------------------------------------------------------
                           ORCA GTO INTEGRAL CALCULATION
------------------------------------------------------------------------------

                         BASIS SET STATISTICS AND STARTUP INFO

 # of primitive gaussian shells          ...  682
 # of primitive gaussian functions       ... 1312
 # of contracted shells                  ...  298
 # of contracted basis functions         ...  828
 Highest angular momentum                ...    3
 Maximum contraction depth               ...   13
 Integral package used                   ... LIBINT
 Integral threshhold            Thresh   ...  2.500e-11
 Primitive cut-off              TCut     ...  2.500e-12


------------------------------ INTEGRAL EVALUATION ----------------------------


 * One electron integrals 
 Pre-screening matrix                    ... done
 Shell pair data                         ... done (   0.013 sec)

-------------------------------------------------------------------------------
                                 ORCA SCF
-------------------------------------------------------------------------------

------------
SCF SETTINGS
------------
Hamiltonian:
 Ab initio Hamiltonian  Method          .... Hartree-Fock(GTOs)


General Settings:
 Integral files         IntName         .... CONFS/Conf268.orca
 Hartree-Fock type      HFTyp           .... RHF
 Total Charge           Charge          ....    0
 Multiplicity           Mult            ....    1
 Number of Electrons    NEL             ....  154
 Basis Dimension        Dim             ....  828
 Nuclear Repulsion      ENuc            ....   1724.0996108887 Eh

Convergence Acceleration:
 DIIS                   CNVDIIS         .... on
   Start iteration      DIISMaxIt       ....    12
   Startup error        DIISStart       ....  0.200000
   # of expansion vecs  DIISMaxEq       ....     5
   Bias factor          DIISBfac        ....   1.050
   Max. coefficient     DIISMaxC        ....  10.000
 Newton-Raphson         CNVNR           .... off
 SOSCF                  CNVSOSCF        .... on
   Start iteration      SOSCFMaxIt      ....   150
   Startup grad/error   SOSCFStart      ....  0.003300
 Level Shifting         CNVShift        .... on
   Level shift para.    LevelShift      ....    0.2500
   Turn off err/grad.   ShiftErr        ....    0.0010
 Zerner damping         CNVZerner       .... off
 Static damping         CNVDamp         .... on
   Fraction old density DampFac         ....    0.7000
   Max. Damping (<1)    DampMax         ....    0.9800
   Min. Damping (>=0)   DampMin         ....    0.0000
   Turn off err/grad.   DampErr         ....    0.1000
 Fernandez-Rico         CNVRico         .... off

SCF Procedure:
 Maximum # iterations   MaxIter         ....   125
 SCF integral mode      SCFMode         .... Direct
   Integral package                     .... LIBINT
 Reset frequency        DirectResetFreq ....    20
 Integral Threshold     Thresh          ....  2.500e-11 Eh
 Primitive CutOff       TCut            ....  2.500e-12 Eh

Convergence Tolerance:
 Convergence Check Mode ConvCheckMode   .... Total+1el-Energy
 Convergence forced     ConvForced      .... 1
 Energy Change          TolE            ....  1.000e-08 Eh
 1-El. energy change                    ....  1.000e-05 Eh
 Orbital Gradient       TolG            ....  1.000e-05
 Orbital Rotation angle TolX            ....  1.000e-05
 DIIS Error             TolErr          ....  5.000e-07


Diagonalization of the overlap matrix:
Smallest eigenvalue                        ... 3.350e-05
Time for diagonalization                   ...    0.344 sec
Threshold for overlap eigenvalues          ... 1.000e-08
Number of eigenvalues below threshold      ... 0
Time for construction of square roots      ...    0.280 sec
Total time needed                          ...    0.625 sec

-------------------
DFT GRID GENERATION
-------------------

General Integration Accuracy     IntAcc      ...  4.340
Radial Grid Type                 RadialGrid  ... Gauss-Chebyshev
Angular Grid (max. acc.)         AngularGrid ... Lebedev-110
Angular grid pruning method      GridPruning ... 3 (G Style)
Weight generation scheme         WeightScheme... Becke
Basis function cutoff            BFCut       ...    1.0000e-11
Integration weight cutoff        WCut        ...    1.0000e-14
Grids for H and He will be reduced by one unit

# of grid points (after initial pruning)     ...  46246 (   0.0 sec)
# of grid points (after weights+screening)   ...  41149 (   0.3 sec)
nearest neighbour list constructed           ...    0.0 sec
Grid point re-assignment to atoms done       ...    0.0 sec
Grid point division into batches done        ...    0.0 sec
Reduced shell lists constructed in    1.0 sec

Total number of grid points                  ...    41149
Total number of batches                      ...      662
Average number of points per batch           ...       62
Average number of grid points per atom       ...     1143
Average number of shells per batch           ...   154.42 (51.82%)
Average number of basis functions per batch  ...   393.33 (47.50%)
Average number of large shells per batch     ...    99.75 (64.60%)
Average number of large basis fcns per batch ...   254.86 (64.80%)
Maximum spatial batch extension              ...  19.75, 20.37, 19.41 au
Average spatial batch extension              ...   3.60,  3.38,  3.37 au

Time for grid setup =    1.370 sec

------------------------------
INITIAL GUESS: MODEL POTENTIAL
------------------------------
Loading Hartree-Fock densities                     ... done
Calculating cut-offs                               ... done
Setting up the integral package                    ... done
Initializing the effective Hamiltonian             ... done
Starting the Coulomb interaction                   ... done (   3.0 sec)
Reading the grid                                   ... done
Mapping shells                                     ... done
Starting the XC term evaluation                    ... done (   1.1 sec)
Transforming the Hamiltonian                       ... done (   0.2 sec)
Diagonalizing the Hamiltonian                      ... done (   0.3 sec)
Back transforming the eigenvectors                 ... done (   0.1 sec)
Now organizing SCF variables                       ... done
                      ------------------
                      INITIAL GUESS DONE (   6.6 sec)
                      ------------------
--------------
SCF ITERATIONS
--------------
ITER       Energy         Delta-E        Max-DP      RMS-DP      [F,P]     Damp
               ***  Starting incremental Fock matrix formation  ***
  0  -1269.9901904085   0.000000000000 0.04925750  0.00044544  0.3001448 0.7000
  1  -1270.2556452300  -0.265454821523 0.03664214  0.00036273  0.1774979 0.7000
                               ***Turning on DIIS***
  2  -1270.4212782438  -0.165633013740 0.02583727  0.00024199  0.1096819 0.7000
  3  -1272.5475716730  -2.126293429197 0.06321327  0.00051755  0.0827479 0.0000
  4  -1270.7291151526   1.818456520376 0.01339107  0.00010039  0.0068872 0.0000
  5  -1270.7850028807  -0.055887728103 0.00461366  0.00005089  0.0039237 0.0000
                      *** Initiating the SOSCF procedure ***
                           *** Shutting down DIIS ***
                      *** Re-Reading the Fockian *** 
                      *** Removing any level shift *** 
ITER      Energy       Delta-E        Grad      Rot      Max-DP    RMS-DP
  6  -1270.76532795   0.0196749331  0.001310  0.001310  0.001866  0.000025
               *** Restarting incremental Fock matrix formation ***
  7  -1270.78088975  -0.0155618039  0.000562  0.001368  0.001371  0.000016
  8  -1270.78092713  -0.0000373773  0.000303  0.001415  0.001451  0.000016
  9  -1270.78094107  -0.0000139449  0.000105  0.000210  0.000396  0.000004
 10  -1270.78094275  -0.0000016756  0.000033  0.000074  0.000117  0.000001
 11  -1270.78094288  -0.0000001290  0.000013  0.000053  0.000041  0.000001
 12  -1270.78094291  -0.0000000361  0.000007  0.000023  0.000027  0.000000
                  ***Gradient check signals convergence***
              ***Rediagonalizing the Fockian in SOSCF/NRSCF***

               *****************************************************
               *                     SUCCESS                       *
               *           SCF CONVERGED AFTER  13 CYCLES          *
               *****************************************************


----------------
TOTAL SCF ENERGY
----------------

Total Energy       :        -1270.78094292 Eh          -34579.70746 eV

Components:
Nuclear Repulsion  :         1724.09961089 Eh           46915.13553 eV
Electronic Energy  :        -2994.88055381 Eh          -81494.84299 eV
One Electron Energy:        -5168.79900683 Eh         -140650.17149 eV
Two Electron Energy:         2173.91845302 Eh           59155.32851 eV

Virial components:
Potential Energy   :        -2539.81255605 Eh          -69111.81323 eV
Kinetic Energy     :         1269.03161313 Eh           34532.10577 eV
Virial Ratio       :            2.00137848


---------------
SCF CONVERGENCE
---------------

  Last Energy change         ...   -8.4324e-09  Tolerance :   1.0000e-08
  Last MAX-Density change    ...    6.6828e-06  Tolerance :   1.0000e-07
  Last RMS-Density change    ...    8.5563e-08  Tolerance :   5.0000e-09
  Last Orbital Gradient      ...    2.4281e-06  Tolerance :   1.0000e-05
  Last Orbital Rotation      ...    8.8623e-06  Tolerance :   1.0000e-05

             **** THE GBW FILE WAS UPDATED (CONFS/Conf268.orca.gbw) ****
             **** DENSITY FILE WAS UPDATED (CONFS/Conf268.orca.scfp) ****
             **** ENERGY FILE WAS UPDATED (CONFS/Conf268.orca.en.tmp) ****
             **** THE GBW FILE WAS UPDATED (CONFS/Conf268.orca.gbw) ****
             **** DENSITY FILE WAS UPDATED (CONFS/Conf268.orca.scfp) ****
----------------
ORBITAL ENERGIES
----------------

  NO   OCC          E(Eh)            E(eV) 
   0   2.0000     -91.888611     -2500.4162 
   1   2.0000     -20.600538      -560.5691 
   2   2.0000     -20.598938      -560.5256 
   3   2.0000     -20.557736      -559.4044 
   4   2.0000     -15.624512      -425.1646 
   5   2.0000     -15.609936      -424.7680 
   6   2.0000     -11.399787      -310.2040 
   7   2.0000     -11.384755      -309.7949 
   8   2.0000     -11.325759      -308.1896 
   9   2.0000     -11.318239      -307.9849 
  10   2.0000     -11.314652      -307.8873 
  11   2.0000     -11.309363      -307.7434 
  12   2.0000     -11.266669      -306.5817 
  13   2.0000     -11.265966      -306.5625 
  14   2.0000     -11.260327      -306.4091 
  15   2.0000     -11.259516      -306.3870 
  16   2.0000     -11.247562      -306.0617 
  17   2.0000     -11.242718      -305.9299 
  18   2.0000     -11.242411      -305.9216 
  19   2.0000     -11.228102      -305.5322 
  20   2.0000      -8.893720      -242.0104 
  21   2.0000      -6.575305      -178.9232 
  22   2.0000      -6.573289      -178.8683 
  23   2.0000      -6.572712      -178.8526 
  24   2.0000      -1.449931       -39.4546 
  25   2.0000      -1.420268       -38.6474 
  26   2.0000      -1.364835       -37.1390 
  27   2.0000      -1.338605       -36.4253 
  28   2.0000      -1.238253       -33.6946 
  29   2.0000      -1.162732       -31.6395 
  30   2.0000      -1.126609       -30.6566 
  31   2.0000      -1.049328       -28.5537 
  32   2.0000      -1.037668       -28.2364 
  33   2.0000      -1.020674       -27.7739 
  34   2.0000      -1.006159       -27.3790 
  35   2.0000      -0.989903       -26.9366 
  36   2.0000      -0.926937       -25.2232 
  37   2.0000      -0.894629       -24.3441 
  38   2.0000      -0.852183       -23.1891 
  39   2.0000      -0.842056       -22.9135 
  40   2.0000      -0.838206       -22.8087 
  41   2.0000      -0.831735       -22.6327 
  42   2.0000      -0.753791       -20.5117 
  43   2.0000      -0.738556       -20.0971 
  44   2.0000      -0.732585       -19.9347 
  45   2.0000      -0.698568       -19.0090 
  46   2.0000      -0.691886       -18.8272 
  47   2.0000      -0.681381       -18.5413 
  48   2.0000      -0.674971       -18.3669 
  49   2.0000      -0.666086       -18.1251 
  50   2.0000      -0.651770       -17.7356 
  51   2.0000      -0.644072       -17.5261 
  52   2.0000      -0.637445       -17.3458 
  53   2.0000      -0.614708       -16.7271 
  54   2.0000      -0.609603       -16.5881 
  55   2.0000      -0.606766       -16.5109 
  56   2.0000      -0.604156       -16.4399 
  57   2.0000      -0.588273       -16.0077 
  58   2.0000      -0.580370       -15.7927 
  59   2.0000      -0.577332       -15.7100 
  60   2.0000      -0.564173       -15.3519 
  61   2.0000      -0.559688       -15.2299 
  62   2.0000      -0.540581       -14.7100 
  63   2.0000      -0.528833       -14.3903 
  64   2.0000      -0.520161       -14.1543 
  65   2.0000      -0.513564       -13.9748 
  66   2.0000      -0.503805       -13.7092 
  67   2.0000      -0.502563       -13.6754 
  68   2.0000      -0.490142       -13.3374 
  69   2.0000      -0.463465       -12.6115 
  70   2.0000      -0.456835       -12.4311 
  71   2.0000      -0.454487       -12.3672 
  72   2.0000      -0.355736        -9.6801 
  73   2.0000      -0.350012        -9.5243 
  74   2.0000      -0.328313        -8.9339 
  75   2.0000      -0.326295        -8.8789 
  76   2.0000      -0.318329        -8.6622 
  77   0.0000       0.092934         2.5289 
  78   0.0000       0.104461         2.8425 
  79   0.0000       0.115710         3.1486 
  80   0.0000       0.128601         3.4994 
  81   0.0000       0.128817         3.5053 
  82   0.0000       0.142104         3.8669 
  83   0.0000       0.146511         3.9868 
  84   0.0000       0.152337         4.1453 
  85   0.0000       0.156441         4.2570 
  86   0.0000       0.167441         4.5563 
  87   0.0000       0.173021         4.7081 
  88   0.0000       0.182722         4.9721 
  89   0.0000       0.188719         5.1353 
  90   0.0000       0.197940         5.3862 
  91   0.0000       0.204025         5.5518 
  92   0.0000       0.208654         5.6778 
  93   0.0000       0.215674         5.8688 
  94   0.0000       0.220243         5.9931 
  95   0.0000       0.228317         6.2128 
  96   0.0000       0.241969         6.5843 
  97   0.0000       0.247710         6.7405 
  98   0.0000       0.251585         6.8460 
  99   0.0000       0.275488         7.4964 
 100   0.0000       0.288937         7.8624 
 101   0.0000       0.294468         8.0129 
 102   0.0000       0.308037         8.3821 
 103   0.0000       0.315508         8.5854 
 104   0.0000       0.323506         8.8031 
 105   0.0000       0.327962         8.9243 
 106   0.0000       0.340291         9.2598 
 107   0.0000       0.346150         9.4192 
 108   0.0000       0.356345         9.6967 
 109   0.0000       0.363860         9.9011 
 110   0.0000       0.371226        10.1016 
 111   0.0000       0.373906        10.1745 
 112   0.0000       0.380895        10.3647 
 113   0.0000       0.394287        10.7291 
 114   0.0000       0.405320        11.0293 
 115   0.0000       0.408132        11.1058 
 116   0.0000       0.423031        11.5113 
 117   0.0000       0.425431        11.5766 
 118   0.0000       0.429873        11.6974 
 119   0.0000       0.435806        11.8589 
 120   0.0000       0.441336        12.0094 
 121   0.0000       0.448930        12.2160 
 122   0.0000       0.454118        12.3572 
 123   0.0000       0.462680        12.5902 
 124   0.0000       0.465694        12.6722 
 125   0.0000       0.470201        12.7948 
 126   0.0000       0.484865        13.1938 
 127   0.0000       0.487626        13.2690 
 128   0.0000       0.488254        13.2861 
 129   0.0000       0.501920        13.6579 
 130   0.0000       0.503449        13.6996 
 131   0.0000       0.511781        13.9263 
 132   0.0000       0.514988        14.0135 
 133   0.0000       0.517640        14.0857 
 134   0.0000       0.525090        14.2884 
 135   0.0000       0.526438        14.3251 
 136   0.0000       0.534806        14.5528 
 137   0.0000       0.537588        14.6285 
 138   0.0000       0.541003        14.7214 
 139   0.0000       0.551915        15.0184 
 140   0.0000       0.555250        15.1091 
 141   0.0000       0.555808        15.1243 
 142   0.0000       0.564973        15.3737 
 143   0.0000       0.567510        15.4427 
 144   0.0000       0.579279        15.7630 
 145   0.0000       0.583127        15.8677 
 146   0.0000       0.585615        15.9354 
 147   0.0000       0.589089        16.0299 
 148   0.0000       0.591055        16.0834 
 149   0.0000       0.594353        16.1732 
 150   0.0000       0.596092        16.2205 
 151   0.0000       0.605663        16.4809 
 152   0.0000       0.609571        16.5873 
 153   0.0000       0.612701        16.6724 
 154   0.0000       0.614281        16.7154 
 155   0.0000       0.615618        16.7518 
 156   0.0000       0.629779        17.1371 
 157   0.0000       0.635616        17.2960 
 158   0.0000       0.641234        17.4489 
 159   0.0000       0.649686        17.6789 
 160   0.0000       0.651174        17.7194 
 161   0.0000       0.654671        17.8145 
 162   0.0000       0.662854        18.0372 
 163   0.0000       0.665127        18.0990 
 164   0.0000       0.673548        18.3282 
 165   0.0000       0.677365        18.4320 
 166   0.0000       0.680546        18.5186 
 167   0.0000       0.683255        18.5923 
 168   0.0000       0.692618        18.8471 
 169   0.0000       0.696672        18.9574 
 170   0.0000       0.704369        19.1669 
 171   0.0000       0.708639        19.2830 
 172   0.0000       0.715518        19.4702 
 173   0.0000       0.723117        19.6770 
 174   0.0000       0.728443        19.8219 
 175   0.0000       0.731967        19.9178 
 176   0.0000       0.737055        20.0563 
 177   0.0000       0.750871        20.4322 
 178   0.0000       0.755974        20.5711 
 179   0.0000       0.764363        20.7994 
 180   0.0000       0.773790        21.0559 
 181   0.0000       0.777874        21.1670 
 182   0.0000       0.781233        21.2584 
 183   0.0000       0.795555        21.6482 
 184   0.0000       0.798787        21.7361 
 185   0.0000       0.807664        21.9777 
 186   0.0000       0.821647        22.3582 
 187   0.0000       0.824837        22.4450 
 188   0.0000       0.831929        22.6379 
 189   0.0000       0.841366        22.8947 
 190   0.0000       0.848746        23.0956 
 191   0.0000       0.857580        23.3359 
 192   0.0000       0.860475        23.4147 
 193   0.0000       0.874947        23.8085 
 194   0.0000       0.878762        23.9123 
 195   0.0000       0.883320        24.0364 
 196   0.0000       0.888302        24.1719 
 197   0.0000       0.898031        24.4367 
 198   0.0000       0.905247        24.6330 
 199   0.0000       0.913590        24.8600 
 200   0.0000       0.919876        25.0311 
 201   0.0000       0.926843        25.2207 
 202   0.0000       0.929610        25.2960 
 203   0.0000       0.935814        25.4648 
 204   0.0000       0.942429        25.6448 
 205   0.0000       0.948232        25.8027 
 206   0.0000       0.954370        25.9697 
 207   0.0000       0.960964        26.1492 
 208   0.0000       0.970413        26.4063 
 209   0.0000       0.979931        26.6653 
 210   0.0000       0.983882        26.7728 
 211   0.0000       0.990921        26.9643 
 212   0.0000       0.999322        27.1929 
 213   0.0000       1.008092        27.4316 
 214   0.0000       1.011353        27.5203 
 215   0.0000       1.019415        27.7397 
 216   0.0000       1.026882        27.9429 
 217   0.0000       1.032613        28.0988 
 218   0.0000       1.036907        28.2157 
 219   0.0000       1.046391        28.4738 
 220   0.0000       1.053562        28.6689 
 221   0.0000       1.061997        28.8984 
 222   0.0000       1.071396        29.1542 
 223   0.0000       1.075283        29.2599 
 224   0.0000       1.088069        29.6079 
 225   0.0000       1.092113        29.7179 
 226   0.0000       1.095648        29.8141 
 227   0.0000       1.099720        29.9249 
 228   0.0000       1.109530        30.1918 
 229   0.0000       1.112043        30.2602 
 230   0.0000       1.122601        30.5475 
 231   0.0000       1.139808        31.0158 
 232   0.0000       1.141919        31.0732 
 233   0.0000       1.148515        31.2527 
 234   0.0000       1.164812        31.6961 
 235   0.0000       1.170598        31.8536 
 236   0.0000       1.174002        31.9462 
 237   0.0000       1.180344        32.1188 
 238   0.0000       1.191224        32.4148 
 239   0.0000       1.200088        32.6561 
 240   0.0000       1.202770        32.7290 
 241   0.0000       1.208788        32.8928 
 242   0.0000       1.213787        33.0288 
 243   0.0000       1.220718        33.2174 
 244   0.0000       1.231587        33.5132 
 245   0.0000       1.238565        33.7031 
 246   0.0000       1.245887        33.9023 
 247   0.0000       1.247552        33.9476 
 248   0.0000       1.254292        34.1310 
 249   0.0000       1.261558        34.3287 
 250   0.0000       1.267598        34.4931 
 251   0.0000       1.276997        34.7489 
 252   0.0000       1.288003        35.0483 
 253   0.0000       1.289631        35.0926 
 254   0.0000       1.298962        35.3466 
 255   0.0000       1.304553        35.4987 
 256   0.0000       1.318992        35.8916 
 257   0.0000       1.324144        36.0318 
 258   0.0000       1.333287        36.2806 
 259   0.0000       1.340942        36.4889 
 260   0.0000       1.341491        36.5038 
 261   0.0000       1.360878        37.0314 
 262   0.0000       1.362060        37.0635 
 263   0.0000       1.369566        37.2678 
 264   0.0000       1.377184        37.4751 
 265   0.0000       1.384593        37.6767 
 266   0.0000       1.395625        37.9769 
 267   0.0000       1.401929        38.1484 
 268   0.0000       1.411579        38.4110 
 269   0.0000       1.417889        38.5827 
 270   0.0000       1.428223        38.8639 
 271   0.0000       1.433846        39.0169 
 272   0.0000       1.439163        39.1616 
 273   0.0000       1.445109        39.3234 
 274   0.0000       1.449858        39.4527 
 275   0.0000       1.467078        39.9212 
 276   0.0000       1.471523        40.0422 
 277   0.0000       1.475509        40.1506 
 278   0.0000       1.481337        40.3092 
 279   0.0000       1.489777        40.5389 
 280   0.0000       1.500012        40.8174 
 281   0.0000       1.505257        40.9601 
 282   0.0000       1.509315        41.0706 
 283   0.0000       1.516793        41.2740 
 284   0.0000       1.522403        41.4267 
 285   0.0000       1.527975        41.5783 
 286   0.0000       1.542060        41.9616 
 287   0.0000       1.543817        42.0094 
 288   0.0000       1.548699        42.1422 
 289   0.0000       1.563148        42.5354 
 290   0.0000       1.568828        42.6900 
 291   0.0000       1.575791        42.8795 
 292   0.0000       1.578309        42.9480 
 293   0.0000       1.587272        43.1919 
 294   0.0000       1.595666        43.4203 
 295   0.0000       1.608000        43.7559 
 296   0.0000       1.616258        43.9806 
 297   0.0000       1.619716        44.0747 
 298   0.0000       1.626906        44.2704 
 299   0.0000       1.629407        44.3384 
 300   0.0000       1.647696        44.8361 
 301   0.0000       1.660234        45.1773 
 302   0.0000       1.661249        45.2049 
 303   0.0000       1.663772        45.2735 
 304   0.0000       1.666782        45.3554 
 305   0.0000       1.683746        45.8170 
 306   0.0000       1.691781        46.0357 
 307   0.0000       1.707996        46.4769 
 308   0.0000       1.710076        46.5335 
 309   0.0000       1.721384        46.8412 
 310   0.0000       1.724061        46.9141 
 311   0.0000       1.733605        47.1738 
 312   0.0000       1.744221        47.4627 
 313   0.0000       1.749167        47.5973 
 314   0.0000       1.757111        47.8134 
 315   0.0000       1.773759        48.2664 
 316   0.0000       1.780321        48.4450 
 317   0.0000       1.786986        48.6264 
 318   0.0000       1.801011        49.0080 
 319   0.0000       1.815217        49.3946 
 320   0.0000       1.827606        49.7317 
 321   0.0000       1.833763        49.8992 
 322   0.0000       1.839562        50.0570 
 323   0.0000       1.852414        50.4067 
 324   0.0000       1.861573        50.6560 
 325   0.0000       1.871027        50.9132 
 326   0.0000       1.888624        51.3921 
 327   0.0000       1.898828        51.6697 
 328   0.0000       1.907740        51.9123 
 329   0.0000       1.910918        51.9987 
 330   0.0000       1.924904        52.3793 
 331   0.0000       1.932958        52.5985 
 332   0.0000       1.940283        52.7978 
 333   0.0000       1.944920        52.9240 
 334   0.0000       1.977147        53.8009 
 335   0.0000       1.978692        53.8429 
 336   0.0000       1.998506        54.3821 
 337   0.0000       2.007935        54.6387 
 338   0.0000       2.010038        54.6959 
 339   0.0000       2.020028        54.9677 
 340   0.0000       2.030872        55.2628 
 341   0.0000       2.032619        55.3104 
 342   0.0000       2.057777        55.9950 
 343   0.0000       2.060724        56.0752 
 344   0.0000       2.075315        56.4722 
 345   0.0000       2.103868        57.2492 
 346   0.0000       2.121310        57.7238 
 347   0.0000       2.141315        58.2681 
 348   0.0000       2.141680        58.2781 
 349   0.0000       2.178103        59.2692 
 350   0.0000       2.186679        59.5026 
 351   0.0000       2.200166        59.8696 
 352   0.0000       2.204784        59.9952 
 353   0.0000       2.212540        60.2063 
 354   0.0000       2.226390        60.5832 
 355   0.0000       2.262804        61.5740 
 356   0.0000       2.266510        61.6749 
 357   0.0000       2.277041        61.9614 
 358   0.0000       2.294793        62.4445 
 359   0.0000       2.299297        62.5671 
 360   0.0000       2.314308        62.9755 
 361   0.0000       2.331337        63.4389 
 362   0.0000       2.334556        63.5265 
 363   0.0000       2.353553        64.0434 
 364   0.0000       2.370215        64.4968 
 365   0.0000       2.380036        64.7641 
 366   0.0000       2.387386        64.9641 
 367   0.0000       2.402008        65.3620 
 368   0.0000       2.403762        65.4097 
 369   0.0000       2.442926        66.4754 
 370   0.0000       2.446716        66.5785 
 371   0.0000       2.454627        66.7938 
 372   0.0000       2.465858        67.0994 
 373   0.0000       2.471663        67.2574 
 374   0.0000       2.486690        67.6663 
 375   0.0000       2.501883        68.0797 
 376   0.0000       2.501959        68.0818 
 377   0.0000       2.518400        68.5291 
 378   0.0000       2.542193        69.1766 
 379   0.0000       2.571648        69.9781 
 380   0.0000       2.579872        70.2019 
 381   0.0000       2.589083        70.4525 
 382   0.0000       2.595611        70.6302 
 383   0.0000       2.598972        70.7216 
 384   0.0000       2.609489        71.0078 
 385   0.0000       2.621329        71.3300 
 386   0.0000       2.640444        71.8501 
 387   0.0000       2.651528        72.1517 
 388   0.0000       2.660070        72.3842 
 389   0.0000       2.672042        72.7100 
 390   0.0000       2.684063        73.0371 
 391   0.0000       2.693386        73.2908 
 392   0.0000       2.710860        73.7662 
 393   0.0000       2.715271        73.8863 
 394   0.0000       2.734246        74.4026 
 395   0.0000       2.739824        74.5544 
 396   0.0000       2.750066        74.8331 
 397   0.0000       2.755949        74.9932 
 398   0.0000       2.761185        75.1357 
 399   0.0000       2.778967        75.6195 
 400   0.0000       2.780177        75.6525 
 401   0.0000       2.790945        75.9455 
 402   0.0000       2.806398        76.3660 
 403   0.0000       2.814324        76.5817 
 404   0.0000       2.825737        76.8922 
 405   0.0000       2.830752        77.0287 
 406   0.0000       2.833119        77.0931 
 407   0.0000       2.843521        77.3761 
 408   0.0000       2.856110        77.7187 
 409   0.0000       2.860752        77.8450 
 410   0.0000       2.864137        77.9371 
 411   0.0000       2.879797        78.3633 
 412   0.0000       2.891577        78.6838 
 413   0.0000       2.908237        79.1371 
 414   0.0000       2.924589        79.5821 
 415   0.0000       2.929259        79.7092 
 416   0.0000       2.936583        79.9085 
 417   0.0000       2.942374        80.0661 
 418   0.0000       2.955407        80.4207 
 419   0.0000       2.962894        80.6245 
 420   0.0000       2.976359        80.9908 
 421   0.0000       2.980351        81.0995 
 422   0.0000       2.986913        81.2780 
 423   0.0000       3.000179        81.6390 
 424   0.0000       3.003085        81.7181 
 425   0.0000       3.006536        81.8120 
 426   0.0000       3.021106        82.2085 
 427   0.0000       3.025596        82.3307 
 428   0.0000       3.029100        82.4260 
 429   0.0000       3.045814        82.8808 
 430   0.0000       3.047349        82.9226 
 431   0.0000       3.054118        83.1068 
 432   0.0000       3.059642        83.2571 
 433   0.0000       3.071921        83.5912 
 434   0.0000       3.074249        83.6546 
 435   0.0000       3.076880        83.7262 
 436   0.0000       3.079704        83.8030 
 437   0.0000       3.090126        84.0866 
 438   0.0000       3.108749        84.5934 
 439   0.0000       3.112820        84.7041 
 440   0.0000       3.115702        84.7826 
 441   0.0000       3.122956        84.9799 
 442   0.0000       3.129290        85.1523 
 443   0.0000       3.134579        85.2962 
 444   0.0000       3.145975        85.6063 
 445   0.0000       3.154176        85.8295 
 446   0.0000       3.164092        86.0993 
 447   0.0000       3.166497        86.1648 
 448   0.0000       3.175555        86.4112 
 449   0.0000       3.184257        86.6480 
 450   0.0000       3.200398        87.0872 
 451   0.0000       3.209150        87.3254 
 452   0.0000       3.220341        87.6299 
 453   0.0000       3.225228        87.7629 
 454   0.0000       3.232443        87.9593 
 455   0.0000       3.242828        88.2418 
 456   0.0000       3.247229        88.3616 
 457   0.0000       3.251593        88.4803 
 458   0.0000       3.257280        88.6351 
 459   0.0000       3.266671        88.8906 
 460   0.0000       3.274996        89.1172 
 461   0.0000       3.278118        89.2021 
 462   0.0000       3.284103        89.3650 
 463   0.0000       3.295974        89.6880 
 464   0.0000       3.299394        89.7811 
 465   0.0000       3.302538        89.8666 
 466   0.0000       3.308545        90.0301 
 467   0.0000       3.322671        90.4145 
 468   0.0000       3.327229        90.5385 
 469   0.0000       3.329674        90.6050 
 470   0.0000       3.339821        90.8812 
 471   0.0000       3.349483        91.1441 
 472   0.0000       3.354134        91.2706 
 473   0.0000       3.359104        91.4059 
 474   0.0000       3.363161        91.5163 
 475   0.0000       3.370259        91.7094 
 476   0.0000       3.375140        91.8422 
 477   0.0000       3.377776        91.9140 
 478   0.0000       3.385370        92.1206 
 479   0.0000       3.386890        92.1620 
 480   0.0000       3.392577        92.3167 
 481   0.0000       3.400172        92.5234 
 482   0.0000       3.402386        92.5836 
 483   0.0000       3.413352        92.8820 
 484   0.0000       3.420382        93.0733 
 485   0.0000       3.424482        93.1849 
 486   0.0000       3.426181        93.2311 
 487   0.0000       3.433986        93.4435 
 488   0.0000       3.443826        93.7113 
 489   0.0000       3.446412        93.7816 
 490   0.0000       3.452350        93.9432 
 491   0.0000       3.461835        94.2013 
 492   0.0000       3.466038        94.3157 
 493   0.0000       3.468092        94.3716 
 494   0.0000       3.477601        94.6303 
 495   0.0000       3.483873        94.8010 
 496   0.0000       3.494470        95.0894 
 497   0.0000       3.497277        95.1657 
 498   0.0000       3.504158        95.3530 
 499   0.0000       3.507545        95.4451 
 500   0.0000       3.516076        95.6773 
 501   0.0000       3.524829        95.9155 
 502   0.0000       3.527783        95.9959 
 503   0.0000       3.539991        96.3281 
 504   0.0000       3.555584        96.7524 
 505   0.0000       3.558658        96.8360 
 506   0.0000       3.561323        96.9085 
 507   0.0000       3.570041        97.1458 
 508   0.0000       3.582195        97.4765 
 509   0.0000       3.592774        97.7643 
 510   0.0000       3.594889        97.8219 
 511   0.0000       3.603595        98.0588 
 512   0.0000       3.616443        98.4084 
 513   0.0000       3.620434        98.5170 
 514   0.0000       3.624533        98.6286 
 515   0.0000       3.630851        98.8005 
 516   0.0000       3.634155        98.8904 
 517   0.0000       3.640482        99.0625 
 518   0.0000       3.643194        99.1363 
 519   0.0000       3.653264        99.4104 
 520   0.0000       3.656748        99.5052 
 521   0.0000       3.661524        99.6351 
 522   0.0000       3.664132        99.7061 
 523   0.0000       3.672528        99.9346 
 524   0.0000       3.678760       100.1042 
 525   0.0000       3.686677       100.3196 
 526   0.0000       3.689184       100.3878 
 527   0.0000       3.700490       100.6955 
 528   0.0000       3.701057       100.7109 
 529   0.0000       3.708967       100.9261 
 530   0.0000       3.714294       101.0711 
 531   0.0000       3.717726       101.1645 
 532   0.0000       3.734271       101.6147 
 533   0.0000       3.736890       101.6859 
 534   0.0000       3.741336       101.8069 
 535   0.0000       3.755934       102.2042 
 536   0.0000       3.756718       102.2255 
 537   0.0000       3.764643       102.4411 
 538   0.0000       3.769906       102.5843 
 539   0.0000       3.775128       102.7264 
 540   0.0000       3.780116       102.8622 
 541   0.0000       3.795728       103.2870 
 542   0.0000       3.799835       103.3988 
 543   0.0000       3.803576       103.5006 
 544   0.0000       3.818468       103.9058 
 545   0.0000       3.823299       104.0372 
 546   0.0000       3.829511       104.2063 
 547   0.0000       3.846727       104.6748 
 548   0.0000       3.852021       104.8188 
 549   0.0000       3.855922       104.9250 
 550   0.0000       3.859990       105.0357 
 551   0.0000       3.861670       105.0814 
 552   0.0000       3.879081       105.5552 
 553   0.0000       3.886456       105.7558 
 554   0.0000       3.901445       106.1637 
 555   0.0000       3.906350       106.2972 
 556   0.0000       3.911991       106.4507 
 557   0.0000       3.917106       106.5899 
 558   0.0000       3.924464       106.7901 
 559   0.0000       3.936618       107.1208 
 560   0.0000       3.945921       107.3740 
 561   0.0000       3.948913       107.4554 
 562   0.0000       3.957728       107.6952 
 563   0.0000       3.967913       107.9724 
 564   0.0000       3.971868       108.0800 
 565   0.0000       3.989254       108.5531 
 566   0.0000       4.000999       108.8727 
 567   0.0000       4.008617       109.0800 
 568   0.0000       4.015453       109.2660 
 569   0.0000       4.021313       109.4255 
 570   0.0000       4.028880       109.6314 
 571   0.0000       4.032213       109.7221 
 572   0.0000       4.048204       110.1572 
 573   0.0000       4.058040       110.4249 
 574   0.0000       4.070484       110.7635 
 575   0.0000       4.073475       110.8449 
 576   0.0000       4.080815       111.0446 
 577   0.0000       4.089123       111.2707 
 578   0.0000       4.096221       111.4638 
 579   0.0000       4.104315       111.6841 
 580   0.0000       4.111056       111.8675 
 581   0.0000       4.120293       112.1189 
 582   0.0000       4.126316       112.2828 
 583   0.0000       4.127869       112.3250 
 584   0.0000       4.144900       112.7885 
 585   0.0000       4.153411       113.0201 
 586   0.0000       4.164784       113.3295 
 587   0.0000       4.168376       113.4273 
 588   0.0000       4.177579       113.6777 
 589   0.0000       4.178334       113.6983 
 590   0.0000       4.183812       113.8473 
 591   0.0000       4.190109       114.0187 
 592   0.0000       4.195686       114.1704 
 593   0.0000       4.199787       114.2820 
 594   0.0000       4.210438       114.5718 
 595   0.0000       4.219807       114.8268 
 596   0.0000       4.230851       115.1273 
 597   0.0000       4.236241       115.2740 
 598   0.0000       4.242728       115.4505 
 599   0.0000       4.255918       115.8094 
 600   0.0000       4.260190       115.9257 
 601   0.0000       4.267371       116.1211 
 602   0.0000       4.280193       116.4700 
 603   0.0000       4.284559       116.5888 
 604   0.0000       4.286650       116.6457 
 605   0.0000       4.298499       116.9681 
 606   0.0000       4.312296       117.3435 
 607   0.0000       4.318805       117.5206 
 608   0.0000       4.331395       117.8633 
 609   0.0000       4.335354       117.9710 
 610   0.0000       4.355664       118.5236 
 611   0.0000       4.356520       118.5469 
 612   0.0000       4.364333       118.7595 
 613   0.0000       4.370039       118.9148 
 614   0.0000       4.380814       119.2080 
 615   0.0000       4.387244       119.3830 
 616   0.0000       4.389534       119.4453 
 617   0.0000       4.397854       119.6717 
 618   0.0000       4.407090       119.9230 
 619   0.0000       4.415900       120.1628 
 620   0.0000       4.423012       120.3563 
 621   0.0000       4.437953       120.7628 
 622   0.0000       4.447561       121.0243 
 623   0.0000       4.453600       121.1886 
 624   0.0000       4.454451       121.2118 
 625   0.0000       4.470916       121.6598 
 626   0.0000       4.478140       121.8564 
 627   0.0000       4.484787       122.0373 
 628   0.0000       4.496387       122.3529 
 629   0.0000       4.502024       122.5063 
 630   0.0000       4.510576       122.7390 
 631   0.0000       4.526618       123.1755 
 632   0.0000       4.539800       123.5342 
 633   0.0000       4.545347       123.6852 
 634   0.0000       4.548463       123.7700 
 635   0.0000       4.553946       123.9192 
 636   0.0000       4.556179       123.9799 
 637   0.0000       4.560230       124.0902 
 638   0.0000       4.564023       124.1934 
 639   0.0000       4.574834       124.4876 
 640   0.0000       4.588237       124.8523 
 641   0.0000       4.592415       124.9660 
 642   0.0000       4.609069       125.4192 
 643   0.0000       4.615801       125.6023 
 644   0.0000       4.621627       125.7609 
 645   0.0000       4.628946       125.9600 
 646   0.0000       4.635663       126.1428 
 647   0.0000       4.640260       126.2679 
 648   0.0000       4.642096       126.3179 
 649   0.0000       4.659445       126.7900 
 650   0.0000       4.660394       126.8158 
 651   0.0000       4.671849       127.1275 
 652   0.0000       4.676197       127.2458 
 653   0.0000       4.690106       127.6243 
 654   0.0000       4.694498       127.7438 
 655   0.0000       4.704639       128.0197 
 656   0.0000       4.709165       128.1429 
 657   0.0000       4.716317       128.3375 
 658   0.0000       4.736151       128.8772 
 659   0.0000       4.744899       129.1153 
 660   0.0000       4.760794       129.5478 
 661   0.0000       4.771317       129.8341 
 662   0.0000       4.789051       130.3167 
 663   0.0000       4.808489       130.8456 
 664   0.0000       4.825852       131.3181 
 665   0.0000       4.837550       131.6364 
 666   0.0000       4.859862       132.2436 
 667   0.0000       4.869245       132.4989 
 668   0.0000       4.879350       132.7739 
 669   0.0000       4.896670       133.2452 
 670   0.0000       4.905234       133.4782 
 671   0.0000       4.922505       133.9482 
 672   0.0000       4.937865       134.3661 
 673   0.0000       4.958846       134.9371 
 674   0.0000       4.978119       135.4615 
 675   0.0000       4.991255       135.8189 
 676   0.0000       5.002935       136.1368 
 677   0.0000       5.010578       136.3447 
 678   0.0000       5.033078       136.9570 
 679   0.0000       5.042508       137.2136 
 680   0.0000       5.044795       137.2759 
 681   0.0000       5.049860       137.4137 
 682   0.0000       5.071589       138.0050 
 683   0.0000       5.076734       138.1449 
 684   0.0000       5.093584       138.6035 
 685   0.0000       5.112917       139.1295 
 686   0.0000       5.124362       139.4410 
 687   0.0000       5.131042       139.6227 
 688   0.0000       5.137194       139.7902 
 689   0.0000       5.152032       140.1939 
 690   0.0000       5.165372       140.5569 
 691   0.0000       5.181373       140.9923 
 692   0.0000       5.189793       141.2215 
 693   0.0000       5.196089       141.3928 
 694   0.0000       5.211061       141.8002 
 695   0.0000       5.217055       141.9633 
 696   0.0000       5.221619       142.0875 
 697   0.0000       5.236949       142.5046 
 698   0.0000       5.247323       142.7869 
 699   0.0000       5.247560       142.7934 
 700   0.0000       5.266041       143.2963 
 701   0.0000       5.271190       143.4364 
 702   0.0000       5.275676       143.5584 
 703   0.0000       5.300926       144.2455 
 704   0.0000       5.306089       144.3860 
 705   0.0000       5.325874       144.9244 
 706   0.0000       5.339164       145.2860 
 707   0.0000       5.348543       145.5412 
 708   0.0000       5.365913       146.0139 
 709   0.0000       5.381939       146.4500 
 710   0.0000       5.391170       146.7012 
 711   0.0000       5.410180       147.2185 
 712   0.0000       5.440264       148.0371 
 713   0.0000       5.458549       148.5347 
 714   0.0000       5.472433       148.9125 
 715   0.0000       5.473476       148.9408 
 716   0.0000       5.493902       149.4967 
 717   0.0000       5.496690       149.5725 
 718   0.0000       5.512965       150.0154 
 719   0.0000       5.525074       150.3449 
 720   0.0000       5.547518       150.9556 
 721   0.0000       5.552947       151.1034 
 722   0.0000       5.553928       151.1301 
 723   0.0000       5.569622       151.5571 
 724   0.0000       5.587053       152.0314 
 725   0.0000       5.598013       152.3297 
 726   0.0000       5.612231       152.7166 
 727   0.0000       5.616505       152.8329 
 728   0.0000       5.633842       153.3046 
 729   0.0000       5.644013       153.5814 
 730   0.0000       5.655327       153.8893 
 731   0.0000       5.663521       154.1122 
 732   0.0000       5.667737       154.2270 
 733   0.0000       5.682778       154.6362 
 734   0.0000       5.690305       154.8411 
 735   0.0000       5.707955       155.3214 
 736   0.0000       5.714363       155.4957 
 737   0.0000       5.728339       155.8760 
 738   0.0000       5.731623       155.9654 
 739   0.0000       5.743897       156.2994 
 740   0.0000       5.754768       156.5952 
 741   0.0000       5.772997       157.0912 
 742   0.0000       5.798917       157.7966 
 743   0.0000       5.807371       158.0266 
 744   0.0000       5.836029       158.8064 
 745   0.0000       5.849298       159.1675 
 746   0.0000       5.856250       159.3567 
 747   0.0000       5.868689       159.6952 
 748   0.0000       5.875803       159.8887 
 749   0.0000       5.909803       160.8139 
 750   0.0000       5.927247       161.2886 
 751   0.0000       5.957971       162.1246 
 752   0.0000       5.968175       162.4023 
 753   0.0000       5.988738       162.9619 
 754   0.0000       5.999930       163.2664 
 755   0.0000       6.035032       164.2216 
 756   0.0000       6.036868       164.2715 
 757   0.0000       6.043687       164.4571 
 758   0.0000       6.065667       165.0552 
 759   0.0000       6.078729       165.4106 
 760   0.0000       6.106628       166.1698 
 761   0.0000       6.154335       167.4680 
 762   0.0000       6.223348       169.3459 
 763   0.0000       6.234758       169.6564 
 764   0.0000       6.270851       170.6385 
 765   0.0000       6.299255       171.4115 
 766   0.0000       6.316539       171.8818 
 767   0.0000       6.343228       172.6080 
 768   0.0000       6.346594       172.6996 
 769   0.0000       6.370030       173.3373 
 770   0.0000       6.378341       173.5635 
 771   0.0000       6.392499       173.9488 
 772   0.0000       6.408513       174.3845 
 773   0.0000       6.450370       175.5235 
 774   0.0000       6.462465       175.8526 
 775   0.0000       6.500897       176.8984 
 776   0.0000       6.509248       177.1256 
 777   0.0000       6.550949       178.2604 
 778   0.0000       6.567088       178.6996 
 779   0.0000       6.595811       179.4811 
 780   0.0000       6.654729       181.0844 
 781   0.0000       6.672675       181.5727 
 782   0.0000       6.731519       183.1739 
 783   0.0000       6.775345       184.3665 
 784   0.0000       6.809139       185.2861 
 785   0.0000       6.842407       186.1914 
 786   0.0000       6.907474       187.9619 
 787   0.0000       6.917417       188.2325 
 788   0.0000       6.930032       188.5758 
 789   0.0000       6.962521       189.4598 
 790   0.0000       7.046603       191.7478 
 791   0.0000       7.056331       192.0125 
 792   0.0000       7.078710       192.6215 
 793   0.0000       7.130609       194.0337 
 794   0.0000       7.216763       196.3781 
 795   0.0000       7.255608       197.4351 
 796   0.0000       7.268501       197.7860 
 797   0.0000       7.278430       198.0561 
 798   0.0000       7.340691       199.7503 
 799   0.0000       7.371691       200.5939 
 800   0.0000       7.377663       200.7564 
 801   0.0000       7.529923       204.8996 
 802   0.0000       7.563058       205.8013 
 803   0.0000       7.581822       206.3119 
 804   0.0000       7.583232       206.3502 
 805   0.0000       7.770025       211.4331 
 806   0.0000       7.816379       212.6945 
 807   0.0000       7.930719       215.8058 
 808   0.0000       8.008802       217.9306 
 809   0.0000       9.435239       256.7459 
 810   0.0000       9.642258       262.3792 
 811   0.0000      10.684792       290.7480 
 812   0.0000      11.081413       301.5406 
 813   0.0000      11.971092       325.7500 
 814   0.0000      12.577017       342.2380 
 815   0.0000      12.900157       351.0311 
 816   0.0000      12.977276       353.1296 
 817   0.0000      13.093371       356.2887 
 818   0.0000      13.248284       360.5041 
 819   0.0000      13.410140       364.9085 
 820   0.0000      13.466377       366.4387 
 821   0.0000      13.845660       376.7596 
 822   0.0000      13.980914       380.4400 
 823   0.0000      14.021657       381.5487 
 824   0.0000      14.203217       386.4892 
 825   0.0000      14.434573       392.7847 
 826   0.0000      14.743349       401.1869 
 827   0.0000      15.984050       434.9481 

                    ********************************
                    * MULLIKEN POPULATION ANALYSIS *
                    ********************************

-----------------------
MULLIKEN ATOMIC CHARGES
-----------------------
   0 C :   -0.314566
   1 C :    0.024795
   2 O :   -0.320660
   3 C :    0.410122
   4 O :   -0.370930
   5 C :   -0.198730
   6 C :    0.153602
   7 C :   -0.335911
   8 N :   -0.139360
   9 C :    0.215121
  10 S :   -0.444679
  11 N :   -0.236125
  12 C :    0.063638
  13 C :    0.023810
  14 C :   -0.214764
  15 C :   -0.133213
  16 C :   -0.278588
  17 C :    0.317244
  18 O :   -0.355757
  19 C :   -0.247144
  20 H :    0.120949
  21 H :    0.111964
  22 H :    0.105854
  23 H :    0.127843
  24 H :    0.084855
  25 H :    0.130445
  26 H :    0.124759
  27 H :    0.123860
  28 H :    0.196685
  29 H :    0.205154
  30 H :    0.170331
  31 H :    0.162426
  32 H :    0.164197
  33 H :    0.132898
  34 H :    0.241360
  35 H :    0.178515
Sum of atomic charges:   -0.0000000

--------------------------------
MULLIKEN REDUCED ORBITAL CHARGES
--------------------------------
  0 C s       :     3.263402  s :     3.263402
      pz      :     0.931729  p :     2.972450
      px      :     1.012527
      py      :     1.028194
      dz2     :     0.014815  d :     0.074245
      dxz     :     0.010630
      dyz     :     0.024633
      dx2y2   :     0.019948
      dxy     :     0.004217
      f0      :     0.000622  f :     0.004470
      f+1     :     0.001247
      f-1     :     0.000515
      f+2     :     0.000959
      f-2     :     0.000260
      f+3     :     0.000752
      f-3     :     0.000115
  1 C s       :     3.169064  s :     3.169064
      pz      :     0.969744  p :     2.637947
      px      :     0.651297
      py      :     1.016906
      dz2     :     0.020125  d :     0.156669
      dxz     :     0.041177
      dyz     :     0.030793
      dx2y2   :     0.038200
      dxy     :     0.026373
      f0      :     0.002008  f :     0.011525
      f+1     :     0.001888
      f-1     :     0.000598
      f+2     :     0.002395
      f-2     :     0.000610
      f+3     :     0.002120
      f-3     :     0.001907
  2 O s       :     3.721492  s :     3.721492
      pz      :     1.796637  p :     4.563652
      px      :     1.220041
      py      :     1.546975
      dz2     :     0.004176  d :     0.033239
      dxz     :     0.004521
      dyz     :     0.003625
      dx2y2   :     0.007556
      dxy     :     0.013360
      f0      :     0.000267  f :     0.002277
      f+1     :     0.000483
      f-1     :     0.000204
      f+2     :     0.000143
      f-2     :     0.000209
      f+3     :     0.000558
      f-3     :     0.000411
  3 C s       :     3.066926  s :     3.066926
      pz      :     0.722783  p :     2.205455
      px      :     0.726514
      py      :     0.756158
      dz2     :     0.034898  d :     0.291371
      dxz     :     0.074625
      dyz     :     0.028557
      dx2y2   :     0.063010
      dxy     :     0.090281
      f0      :     0.002006  f :     0.026125
      f+1     :     0.004201
      f-1     :     0.001584
      f+2     :     0.002709
      f-2     :     0.004667
      f+3     :     0.004735
      f-3     :     0.006223
  4 O s       :     3.765545  s :     3.765545
      pz      :     1.492238  p :     4.566577
      px      :     1.387198
      py      :     1.687141
      dz2     :     0.005456  d :     0.036318
      dxz     :     0.011569
      dyz     :     0.001187
      dx2y2   :     0.010296
      dxy     :     0.007810
      f0      :     0.000204  f :     0.002490
      f+1     :     0.000502
      f-1     :     0.000001
      f+2     :     0.000564
      f-2     :     0.000179
      f+3     :     0.000565
      f-3     :     0.000476
  5 C s       :     3.160355  s :     3.160355
      pz      :     0.916309  p :     2.934331
      px      :     1.116178
      py      :     0.901845
      dz2     :     0.017366  d :     0.093548
      dxz     :     0.015497
      dyz     :     0.029632
      dx2y2   :     0.013847
      dxy     :     0.017206
      f0      :     0.001300  f :     0.010496
      f+1     :     0.001105
      f-1     :     0.001960
      f+2     :     0.001979
      f-2     :     0.000989
      f+3     :     0.001650
      f-3     :     0.001513
  6 C s       :     3.186732  s :     3.186732
      pz      :     0.850860  p :     2.472431
      px      :     0.871409
      py      :     0.750162
      dz2     :     0.034117  d :     0.172785
      dxz     :     0.021381
      dyz     :     0.045149
      dx2y2   :     0.024359
      dxy     :     0.047778
      f0      :     0.001904  f :     0.014450
      f+1     :     0.000922
      f-1     :     0.003344
      f+2     :     0.002568
      f-2     :     0.002129
      f+3     :     0.002050
      f-3     :     0.001534
  7 C s       :     3.302583  s :     3.302583
      pz      :     0.884336  p :     2.956548
      px      :     1.012174
      py      :     1.060038
      dz2     :     0.018245  d :     0.072120
      dxz     :     0.014633
      dyz     :     0.013460
      dx2y2   :     0.018090
      dxy     :     0.007692
      f0      :     0.001332  f :     0.004659
      f+1     :     0.000835
      f-1     :     0.000893
      f+2     :     0.000250
      f-2     :     0.000254
      f+3     :     0.001015
      f-3     :     0.000080
  8 N s       :     3.351579  s :     3.351579
      pz      :     1.114232  p :     3.723855
      px      :     1.519270
      py      :     1.090353
      dz2     :     0.015442  d :     0.058968
      dxz     :     0.008863
      dyz     :     0.017883
      dx2y2   :     0.007733
      dxy     :     0.009048
      f0      :     0.000794  f :     0.004958
      f+1     :     0.000933
      f-1     :     0.000870
      f+2     :     0.000857
      f-2     :     0.000632
      f+3     :     0.000446
      f-3     :     0.000425
  9 C s       :     3.160391  s :     3.160391
      pz      :     0.777713  p :     2.345104
      px      :     0.683815
      py      :     0.883576
      dz2     :     0.067538  d :     0.261809
      dxz     :     0.038163
      dyz     :     0.055049
      dx2y2   :     0.041183
      dxy     :     0.059877
      f0      :     0.003302  f :     0.017574
      f+1     :     0.002087
      f-1     :     0.003156
      f+2     :     0.002621
      f-2     :     0.001909
      f+3     :     0.002161
      f-3     :     0.002338
 10 S s       :     5.855311  s :     5.855311
      pz      :     3.588318  p :    10.494599
      px      :     3.683437
      py      :     3.222844
      dz2     :     0.006772  d :     0.084651
      dxz     :     0.004997
      dyz     :     0.038082
      dx2y2   :     0.021281
      dxy     :     0.013519
      f0      :     0.001312  f :     0.010118
      f+1     :     0.000044
      f-1     :     0.001633
      f+2     :     0.003392
      f-2     :     0.001156
      f+3     :     0.001167
      f-3     :     0.001413
 11 N s       :     3.396492  s :     3.396492
      pz      :     1.227542  p :     3.777796
      px      :     1.515125
      py      :     1.035130
      dz2     :     0.012193  d :     0.057416
      dxz     :     0.005362
      dyz     :     0.015160
      dx2y2   :     0.011328
      dxy     :     0.013373
      f0      :     0.000395  f :     0.004420
      f+1     :     0.000516
      f-1     :     0.000561
      f+2     :     0.000723
      f-2     :     0.000624
      f+3     :     0.000796
      f-3     :     0.000806
 12 C s       :     3.114804  s :     3.114804
      pz      :     0.838821  p :     2.623167
      px      :     1.010825
      py      :     0.773521
      dz2     :     0.037914  d :     0.187129
      dxz     :     0.026628
      dyz     :     0.040662
      dx2y2   :     0.043613
      dxy     :     0.038312
      f0      :     0.001392  f :     0.011262
      f+1     :     0.001251
      f-1     :     0.002035
      f+2     :     0.002029
      f-2     :     0.001494
      f+3     :     0.001738
      f-3     :     0.001322
 13 C s       :     3.117316  s :     3.117316
      pz      :     0.913608  p :     2.740390
      px      :     0.897531
      py      :     0.929252
      dz2     :     0.019243  d :     0.107252
      dxz     :     0.008171
      dyz     :     0.032332
      dx2y2   :     0.021256
      dxy     :     0.026250
      f0      :     0.001212  f :     0.011231
      f+1     :     0.001568
      f-1     :     0.001095
      f+2     :     0.002010
      f-2     :     0.001830
      f+3     :     0.001711
[...]
      f-1     :     0.006169
      f+2     :     0.006170
      f-2     :     0.005647
      f+3     :     0.006344
      f-3     :     0.009503
 15 C s       :     2.705547  s :     2.705547
      pz      :     0.902233  p :     2.792160
      px      :     0.917488
      py      :     0.972439
      dz2     :     0.097603  d :     0.416377
      dxz     :     0.064530
      dyz     :     0.065301
      dx2y2   :     0.100364
      dxy     :     0.088579
      f0      :     0.003333  f :     0.041100
      f+1     :     0.005103
      f-1     :     0.006633
      f+2     :     0.006508
      f-2     :     0.007073
      f+3     :     0.006053
      f-3     :     0.006397
 16 C s       :     2.701692  s :     2.701692
      pz      :     0.942350  p :     2.868683
      px      :     0.956084
      py      :     0.970250
      dz2     :     0.049935  d :     0.389995
      dxz     :     0.053059
      dyz     :     0.094408
      dx2y2   :     0.089357
      dxy     :     0.103236
      f0      :     0.005128  f :     0.040262
      f+1     :     0.004639
      f-1     :     0.003435
      f+2     :     0.005635
      f-2     :     0.006416
      f+3     :     0.007505
      f-3     :     0.007503
 17 C s       :     2.701635  s :     2.701635
      pz      :     0.830379  p :     2.680881
      px      :     0.816121
      py      :     1.034381
      dz2     :     0.134704  d :     0.708932
      dxz     :     0.109753
      dyz     :     0.145287
      dx2y2   :     0.160243
      dxy     :     0.158944
      f0      :     0.011212  f :     0.099264
      f+1     :     0.015762
      f-1     :     0.010027
      f+2     :     0.014692
      f-2     :     0.016934
      f+3     :     0.013533
      f-3     :     0.017103
 18 O s       :     3.177266  s :     3.177266
      pz      :     1.430267  p :     4.345552
      px      :     1.443342
      py      :     1.471943
      dz2     :     0.009725  d :     0.075501
      dxz     :     0.018041
      dyz     :     0.017626
      dx2y2   :     0.016998
      dxy     :     0.013110
      f0      :     0.000622  f :     0.005066
      f+1     :     0.000802
      f-1     :     0.000343
      f+2     :     0.000908
      f-2     :     0.000931
      f+3     :     0.000627
      f-3     :     0.000831
 19 C s       :     2.695576  s :     2.695576
      pz      :     0.935062  p :     2.845564
      px      :     0.941822
      py      :     0.968680
      dz2     :     0.077274  d :     0.387208
      dxz     :     0.062465
      dyz     :     0.068800
      dx2y2   :     0.088465
      dxy     :     0.090204
      f0      :     0.003410  f :     0.040709
      f+1     :     0.005213
      f-1     :     0.006002
      f+2     :     0.006654
      f-2     :     0.007556
      f+3     :     0.006062
      f-3     :     0.005813
 20 H s       :     0.840508  s :     0.840508
      pz      :     0.051940  p :     0.151593
      px      :     0.041682
      py      :     0.057972
      dz2     :     0.006628  d :     0.027778
      dxz     :     0.003881
      dyz     :     0.006596
      dx2y2   :     0.006112
      dxy     :     0.004561
 21 H s       :     0.846772  s :     0.846772
      pz      :     0.038926  p :     0.152391
      px      :     0.071894
      py      :     0.041572
      dz2     :     0.002300  d :     0.027534
      dxz     :     0.008847
      dyz     :     0.000291
      dx2y2   :     0.006921
      dxy     :     0.009175
 22 H s       :     0.848231  s :     0.848231
      pz      :     0.046787  p :     0.159637
      px      :     0.044244
      py      :     0.068606
      dz2     :     0.004664  d :     0.028148
      dxz     :     0.002039
      dyz     :     0.007837
      dx2y2   :     0.006771
      dxy     :     0.006836
 23 H s       :     0.848433  s :     0.848433
      pz      :     0.050720  p :     0.143728
      px      :     0.031222
      py      :     0.061785
      dz2     :     0.005611  d :     0.026991
      dxz     :     0.003042
      dyz     :     0.006960
      dx2y2   :     0.005811
      dxy     :     0.005566
 24 H s       :     0.861458  s :     0.861458
      pz      :     0.053597  p :     0.148256
      px      :     0.026639
      py      :     0.068020
      dz2     :     0.006438  d :     0.027079
      dxz     :     0.002254
      dyz     :     0.007867
      dx2y2   :     0.005904
      dxy     :     0.004616
 25 H s       :     0.829471  s :     0.829471
      pz      :     0.051003  p :     0.150699
      px      :     0.045365
      py      :     0.054330
      dz2     :     0.007040  d :     0.027562
      dxz     :     0.004454
      dyz     :     0.006010
      dx2y2   :     0.005879
      dxy     :     0.004180
 26 H s       :     0.834293  s :     0.834293
      pz      :     0.037944  p :     0.149854
      px      :     0.043973
      py      :     0.067936
      dz2     :     0.003280  d :     0.027679
      dxz     :     0.001311
      dyz     :     0.007887
      dx2y2   :     0.007895
      dxy     :     0.007305
 27 H s       :     0.837054  s :     0.837054
      pz      :     0.038792  p :     0.153707
      px      :     0.073664
      py      :     0.041251
      dz2     :     0.002709  d :     0.027692
      dxz     :     0.008712
      dyz     :     0.000084
      dx2y2   :     0.006662
      dxy     :     0.009526
 28 H s       :     0.743396  s :     0.743396
      pz      :     0.055939  p :     0.253665
      px      :     0.091675
      py      :     0.106051
      dz2     :     0.007909  d :     0.061668
      dxz     :     0.003838
      dyz     :     0.015657
      dx2y2   :     0.015750
      dxy     :     0.018514
 29 H s       :     0.747743  s :     0.747743
      pz      :     0.118833  p :     0.255089
      px      :     0.092922
      py      :     0.043334
      dz2     :     0.022502  d :     0.061414
      dxz     :     0.018713
      dyz     :     0.012755
      dx2y2   :     0.004486
      dxy     :     0.002957
 30 H s       :     0.819508  s :     0.819508
      pz      :     0.038305  p :     0.154479
      px      :     0.078453
      py      :     0.037721
      dz2     :     0.002782  d :     0.029380
      dxz     :     0.008984
      dyz     :     0.001235
      dx2y2   :     0.008633
      dxy     :     0.007747
 31 H s       :     0.839242  s :     0.839242
      pz      :     0.058514  p :     0.156802
      px      :     0.064240
      py      :     0.034047
      dz2     :     0.006104  d :     0.027385
      dxz     :     0.007147
      dyz     :     0.003876
      dx2y2   :     0.004986
      dxy     :     0.005272
 32 H s       :     0.841105  s :     0.841105
      pz      :     0.036422  p :     0.150791
      px      :     0.040752
      py      :     0.073617
      dz2     :     0.002650  d :     0.026411
      dxz     :     0.001000
      dyz     :     0.007014
      dx2y2   :     0.007900
      dxy     :     0.007846
 33 H s       :     0.847891  s :     0.847891
      pz      :     0.054893  p :     0.158851
      px      :     0.046831
      py      :     0.057128
      dz2     :     0.005642  d :     0.027743
      dxz     :     0.003953
      dyz     :     0.006477
      dx2y2   :     0.006021
      dxy     :     0.005650
 34 H s       :     0.706033  s :     0.706033
      pz      :     0.103953  p :     0.347498
      px      :     0.085802
      py      :     0.157743
      dz2     :     0.019945  d :     0.099500
      dxz     :     0.008941
      dyz     :     0.025406
      dx2y2   :     0.022356
      dxy     :     0.022852
 35 H s       :     0.836761  s :     0.836761
      pz      :     0.040251  p :     0.158748
      px      :     0.043365
      py      :     0.075132
      dz2     :     0.002642  d :     0.027980
      dxz     :     0.001163
      dyz     :     0.007641
      dx2y2   :     0.008154
      dxy     :     0.008379


                      *****************************
                      * MAYER POPULATION ANALYSIS *
                      *****************************

  NA   - Mulliken gross atomic population
  ZA   - Total nuclear charge
  QA   - Mulliken gross atomic charge
  VA   - Mayer's total valence
  BVA  - Mayer's bonded valence
  FA   - Mayer's free valence

  ATOM       NA         ZA         QA         VA         BVA        FA
  0 C      6.3146     6.0000    -0.3146     3.8482     3.8482    -0.0000
  1 C      5.9752     6.0000     0.0248     3.8845     3.8845     0.0000
  2 O      8.3207     8.0000    -0.3207     2.0395     2.0395     0.0000
  3 C      5.5899     6.0000     0.4101     4.2667     4.2667     0.0000
  4 O      8.3709     8.0000    -0.3709     2.1456     2.1456     0.0000
  5 C      6.1987     6.0000    -0.1987     3.5694     3.5694     0.0000
  6 C      5.8464     6.0000     0.1536     3.7974     3.7974     0.0000
  7 C      6.3359     6.0000    -0.3359     3.8676     3.8676     0.0000
  8 N      7.1394     7.0000    -0.1394     3.2713     3.2713     0.0000
  9 C      5.7849     6.0000     0.2151     4.1413     4.1413     0.0000
 10 S     16.4447    16.0000    -0.4447     1.7482     1.7482    -0.0000
 11 N      7.2361     7.0000    -0.2361     3.2386     3.2386     0.0000
 12 C      5.9364     6.0000     0.0636     3.9178     3.9178    -0.0000
 13 C      5.9762     6.0000     0.0238     3.7338     3.7338     0.0000
 14 C      6.2148     6.0000    -0.2148     3.8839     3.8839     0.0000
 15 C      6.1332     6.0000    -0.1332     3.8112     3.8112     0.0000
 16 C      6.2786     6.0000    -0.2786     3.7922     3.7922     0.0000
 17 C      5.6828     6.0000     0.3172     3.8656     3.8656     0.0000
 18 O      8.3558     8.0000    -0.3558     2.1202     2.1202    -0.0000
 19 C      6.2471     6.0000    -0.2471     3.8196     3.8196     0.0000
 20 H      0.8791     1.0000     0.1209     0.9774     0.9774    -0.0000
 21 H      0.8880     1.0000     0.1120     0.9820     0.9820    -0.0000
 22 H      0.8941     1.0000     0.1059     0.9769     0.9769    -0.0000
 23 H      0.8722     1.0000     0.1278     0.9746     0.9746    -0.0000
 24 H      0.9151     1.0000     0.0849     0.9701     0.9701     0.0000
 25 H      0.8696     1.0000     0.1304     0.9870     0.9870    -0.0000
 26 H      0.8752     1.0000     0.1248     0.9856     0.9856    -0.0000
 27 H      0.8761     1.0000     0.1239     0.9672     0.9672    -0.0000
 28 H      0.8033     1.0000     0.1967     1.0215     1.0215    -0.0000
 29 H      0.7948     1.0000     0.2052     1.0115     1.0115     0.0000
 30 H      0.8297     1.0000     0.1703     0.9840     0.9840    -0.0000
 31 H      0.8376     1.0000     0.1624     0.9876     0.9876     0.0000
 32 H      0.8358     1.0000     0.1642     0.9768     0.9768     0.0000
 33 H      0.8671     1.0000     0.1329     0.9912     0.9912     0.0000
 34 H      0.7586     1.0000     0.2414     1.0101     1.0101     0.0000
 35 H      0.8215     1.0000     0.1785     0.9863     0.9863     0.0000

  Mayer bond orders larger than 0.100000
B(  0-C ,  1-C ) :   0.9579 B(  0-C , 20-H ) :   0.9694 B(  0-C , 21-H ) :   0.9768 
B(  0-C , 22-H ) :   0.9712 B(  1-C ,  2-O ) :   0.9057 B(  1-C , 23-H ) :   0.9847 
B(  1-C , 24-H ) :   0.9780 B(  2-O ,  3-C ) :   1.1508 B(  3-C ,  4-O ) :   2.1235 
B(  3-C ,  5-C ) :   0.9022 B(  5-C ,  6-C ) :   1.7278 B(  5-C , 12-C ) :   0.9358 
B(  6-C ,  7-C ) :   0.9252 B(  6-C ,  8-N ) :   1.1032 B(  7-C , 25-H ) :   0.9763 
B(  7-C , 26-H ) :   0.9793 B(  7-C , 27-H ) :   0.9683 B(  8-N ,  9-C ) :   1.2048 
B(  8-N , 28-H ) :   0.9519 B(  9-C , 10-S ) :   1.6062 B(  9-C , 11-N ) :   1.2845 
B( 11-N , 12-C ) :   0.9722 B( 11-N , 29-H ) :   0.9458 B( 12-C , 13-C ) :   0.9660 
B( 12-C , 30-H ) :   0.9908 B( 13-C , 14-C ) :   1.3798 B( 13-C , 19-C ) :   1.3454 
B( 14-C , 15-C ) :   1.4022 B( 14-C , 31-H ) :   0.9675 B( 15-C , 16-C ) :   1.3584 
B( 15-C , 32-H ) :   0.9697 B( 16-C , 17-C ) :   1.3316 B( 16-C , 33-H ) :   0.9846 
B( 17-C , 18-O ) :   1.1106 B( 17-C , 19-C ) :   1.3644 B( 18-O , 34-H ) :   0.9792 
B( 19-C , 35-H ) :   0.9554 

-------
TIMINGS
-------

Total SCF time: 0 days 1 hours 33 min 6 sec 

Total time                  ....    5586.315 sec
Sum of individual times     ....    5578.948 sec  ( 99.9%)

Fock matrix formation       ....    5556.612 sec  ( 99.5%)
Diagonalization             ....       4.418 sec  (  0.1%)
Density matrix formation    ....       0.175 sec  (  0.0%)
Population analysis         ....       0.690 sec  (  0.0%)
Initial guess               ....       5.226 sec  (  0.1%)
Orbital Transformation      ....       0.000 sec  (  0.0%)
Orbital Orthonormalization  ....       0.000 sec  (  0.0%)
DIIS solution               ....       5.675 sec  (  0.1%)
SOSCF solution              ....       4.781 sec  (  0.1%)

------------------------------------------------------------------------------
                                ORCA  MP2 
------------------------------------------------------------------------------

Freezing NCore=48 chemical core electrons

-------------
RI-MP2 ENERGY
-------------
Dimension of the basis                    ...  828
Memory devoted to MP2                     ...  256 MB   
Data format for buffers                   ... DOUBLE
Compression type for matrix containers    ... UNCOMPRESSED
Overall scaling of the MP2 energy         ...   1.000e+00
Calculating two index integrals           ... done (    0.037 sec)
Cholesky decomposition of V**-1           ... done (    1.647 sec)

-----------------
RI-TRANSFORMATION (AUX index driven)
-----------------

Dimension of the orbital-basis         ... 828
Dimension of the aux-basis             ... 2141
Transformation of internal/external MOs...   24-  76 to   77- 827
Number Format for Storage              ... Double (8 Byte)
Integral mode                          ... Direct

First Phase: integral generation and transformation of MO indices
  Aux angular momentum 0               ... done (    8.746 sec)
  Aux angular momentum 1               ... done (   17.185 sec)
  Aux angular momentum 2               ... done (   21.367 sec)
  Aux angular momentum 3               ... done (   16.480 sec)
  Aux angular momentum 4               ... done (    5.740 sec)
Closing buffer VIA ( 0.63 GB; CompressionRatio= 1.00)
  Phase 1 completed in    69.972 sec
Second Phase: sorting and transformation of aux index

IA-Transformation
Memory available                       ... 167 MB 
Max. # MO pairs treated in a batch     ... 12    
# of internal orbitals                 ... 53
# batches for internal orbitals        ... 5
Closing buffer IAV ( 0.63 GB; CompressionRatio= 1.00)
(ia|v) transformation done in    74.799 sec

  Phase 2 completed in    74.807 sec
RI-Integral transformation completed in   144.784 sec
Opening buffers                              ... done

Starting loop over batches of integrals:

Operator 0  - window                       ... ( 24- 76)x( 77-827)
Operator 0  - Memory available             ...   256 MB
Operator 0  - Memory needed per MO         ...  12.3 MB
Operator 0  - Number of orbitals per batch ... 13
Operator 0  - Number of batches            ... 5

OPERATOR  0   PASS   0:  MOs    24 ...   36
  Reading integrals       ... ok
  Internal MO  26
  Internal MO  29
  Internal MO  32
  Internal MO  35
OPERATOR  0   PASS   1:  MOs    37 ...   49
  Reading integrals       ... ok
  Internal MO  38
  Internal MO  41
  Internal MO  44
  Internal MO  47
OPERATOR  0   PASS   2:  MOs    50 ...   62
  Reading integrals       ... ok
  Internal MO  50
  Internal MO  53
  Internal MO  56
  Internal MO  59
  Internal MO  62
OPERATOR  0   PASS   3:  MOs    63 ...   75
  Reading integrals       ... ok
  Internal MO  65
  Internal MO  68
  Internal MO  71
  Internal MO  74
OPERATOR  0   PASS   4:  MOs    76 ...   76
  Reading integrals       ... ok
Time spent in pair loops =   493.400 sec
Deleting buffer (Ka|jb)[aa] ...done

-----------------------------------------------
 RI-MP2 CORRELATION ENERGY:     -3.539505950 Eh
-----------------------------------------------


-------
TIMINGS
-------

Total time                :  640.228 sec
Integral trafo            :  144.806 sec ( 22.6%)
I/O of integrals          :    6.297 sec (  1.0%)
K(i,j) Operators          :  407.399 sec ( 63.6%)
T(i,j) pair energies      :    3.481 sec (  0.5%)
V-calculation             :    0.037 sec (  0.0%)
V**(-1/2)                 :    1.647 sec (  0.3%)
Gamma(ia|P)               :    0.000 sec (  0.0%)
Gamma-Trafo               :    0.000 sec (  0.0%)
D(virtual)                :    0.000 sec (  0.0%)
D(internal)               :    0.000 sec (  0.0%)
W(virtual)                :    0.000 sec (  0.0%)
W(internal)               :    0.000 sec (  0.0%)
L(virtual)                :    0.000 sec (  0.0%)
L(internal)               :    0.000 sec (  0.0%)
G(D)                      :    0.000 sec (  0.0%)
G(Z)                      :    0.000 sec (  0.0%)
Z-Vector Solution         :    0.000 sec (  0.0%)
3-Index Derivative        :    0.000 sec (  0.0%)
2-Index Derivative        :    0.000 sec (  0.0%)
Separable Gradient        :    0.000 sec (  0.0%)


---------------------------------------
MP2 TOTAL ENERGY:    -1274.320448873 Eh
---------------------------------------

-------------------------   --------------------
FINAL SINGLE POINT ENERGY     -1274.320448873088
-------------------------   --------------------


                            ***************************************
                            *     ORCA property calculations      *
                            ***************************************


  WARNING: The energy has been calculated at the MP2 level but the densities
           used in the property calculations are still SCF densities
           MP2 response densities have not been calculated 
           use %mp2 Density relaxed end
           or  %mp2 Density unrelaxed end

                                    ---------------------
                                    Active property flags
                                    ---------------------
   (+) Dipole Moment


------------------------------------------------------------------------------
                       ORCA ELECTRIC PROPERTIES CALCULATION
------------------------------------------------------------------------------

Dipole Moment Calculation                       ... on
Quadrupole Moment Calculation                   ... off
Polarizability Calculation                      ... off
GBWName                                         ... CONFS/Conf268.orca.gbw
Electron density file                           ... CONFS/Conf268.orca.scfp
The origin for moment calculation is the CENTER OF MASS  = (31.770598, 32.937285 33.327869)

-------------
DIPOLE MOMENT
-------------
                                X             Y             Z
Electronic contribution:      8.72866       7.09538       6.67012
Nuclear contribution   :    -10.36100      -8.58516      -7.16634
                        -----------------------------------------
Total Dipole Moment    :     -1.63234      -1.48978      -0.49622
                        -----------------------------------------
Magnitude (a.u.)       :      2.26499
Magnitude (Debye)      :      5.75716



--------------------
Rotational spectrum 
--------------------
 
Rotational constants in cm-1:     0.011953     0.009223     0.006448 
Rotational constants in MHz :   358.338988   276.495741   193.293760 

 Dipole components along the rotational axes: 
x,y,z [a.u.] :    -1.502757    -1.087962     1.299330 
x,y,z [Debye]:    -3.819705    -2.765381     3.302635 

 

Timings for individual modules:

Sum of individual times         ...     6228.583 sec (= 103.810 min)
GTO integral calculation        ...        1.157 sec (=   0.019 min)   0.0 %
SCF iterations                  ...     5586.359 sec (=  93.106 min)  89.7 %
MP2 module                      ...      641.066 sec (=  10.684 min)  10.3 %
                             ****ORCA TERMINATED NORMALLY****
TOTAL RUN TIME: 0 days 1 hours 43 minutes 49 seconds 764 msec
