
                                 *****************
                                 * O   R   C   A *
                                 *****************

           --- An Ab Initio, DFT and Semiempirical electronic structure package ---

                  #######################################################
                  #                        -***-                        #
                  #          Department of theory and spectroscopy      #
                  #               Directorship: Frank Neese             #
                  #        Max Planck Institute fuer Kohlenforschung    #
                  #                Kaiser Wilhelm Platz 1               #
                  #                 D-45470 Muelheim/Ruhr               #
                  #                      Germany                        #
                  #                                                     #
                  #                  All rights reserved                #
                  #                        -***-                        #
                  #######################################################


                         Program Version 4.2.0 -  RELEASE  -


 With contributions from (in alphabetic order):
   Daniel Aravena         : Magnetic Suceptibility
   Michael Atanasov       : Ab Initio Ligand Field Theory (pilot matlab implementation)
   Alexander A. Auer      : GIAO ZORA, VPT2
   Ute Becker             : Parallelization
   Giovanni Bistoni       : ED, misc. LED, open-shell LED, HFLED
   Martin Brehm           : Molecular dynamics
   Dmytro Bykov           : SCF Hessian
   Vijay G. Chilkuri      : MRCI spin determinant printing, contributions to CSF-ICE
   Dipayan Datta          : RHF DLPNO-CCSD density
   Achintya Kumar Dutta   : EOM-CC, STEOM-CC
   Dmitry Ganyushin       : Spin-Orbit,Spin-Spin,Magnetic field MRCI
   Miquel Garcia          : C-PCM Hessian, Gaussian charge scheme
   Yang Guo               : DLPNO-NEVPT2, CIM, IAO-localization
   Andreas Hansen         : Spin unrestricted coupled pair/coupled cluster methods
   Benjamin Helmich-Paris : CASSCF linear response (MC-RPA)
   Lee Huntington         : MR-EOM, pCC
   Robert Izsak           : Overlap fitted RIJCOSX, COSX-SCS-MP3, EOM
   Christian Kollmar      : KDIIS, OOCD, Brueckner-CCSD(T), CCSD density
   Simone Kossmann        : Meta GGA functionals, TD-DFT gradient, OOMP2, MP2 Hessian
   Martin Krupicka        : AUTO-CI
   Lucas Lang             : DCDCAS
   Dagmar Lenk            : GEPOL surface, SMD
   Dimitrios Liakos       : Extrapolation schemes; Compound Job, initial MDCI parallelization
   Dimitrios Manganas     : Further ROCIS development; embedding schemes
   Dimitrios Pantazis     : SARC Basis sets
   Taras Petrenko         : DFT Hessian,TD-DFT gradient, ASA, ECA, R-Raman, ABS, FL, XAS/XES, NRVS
   Peter Pinski           : DLPNO-MP2, DLPNO-MP2 Gradient
   Christoph Reimann      : Effective Core Potentials
   Marius Retegan         : Local ZFS, SOC
   Christoph Riplinger    : Optimizer, TS searches, QM/MM, DLPNO-CCSD(T), (RO)-DLPNO pert. Triples
   Tobias Risthaus        : Range-separated hybrids, TD-DFT gradient, RPA, STAB
   Michael Roemelt        : Original ROCIS implementation
   Masaaki Saitow         : Open-shell DLPNO-CCSD energy and density
   Barbara Sandhoefer     : DKH picture change effects
   Avijit Sen             : IP-ROCIS
   Kantharuban Sivalingam : CASSCF convergence, NEVPT2, FIC-MRCI
   Bernardo de Souza      : ESD, SOC TD-DFT
   Georgi Stoychev        : AutoAux, RI-MP2 NMR
   Willem Van den Heuvel  : Paramagnetic NMR
   Boris Wezisla          : Elementary symmetry handling
   Frank Wennmohs         : Technical directorship


 We gratefully acknowledge several colleagues who have allowed us to
 interface, adapt or use parts of their codes:
   Stefan Grimme, W. Hujo, H. Kruse,             : VdW corrections, initial TS optimization,
                  C. Bannwarth                     DFT functionals, gCP, sTDA/sTD-DF
   Ed Valeev, F. Pavosevic, A. Kumar             : LibInt (2-el integral package), F12 methods
   Garnet Chan, S. Sharma, J. Yang, R. Olivares  : DMRG
   Ulf Ekstrom                                   : XCFun DFT Library
   Mihaly Kallay                                 : mrcc  (arbitrary order and MRCC methods)
   Andreas Klamt, Michael Diedenhofen            : otool_cosmo (COSMO solvation model)
   Jiri Pittner, Ondrej Demel                    : Mk-CCSD
   Frank Weinhold                                : gennbo (NPA and NBO analysis)
   Christopher J. Cramer and Donald G. Truhlar   : smd solvation model
   Lars Goerigk                                  : TD-DFT with DH, B97 family of functionals
   V. Asgeirsson, H. Jonsson                     : NEB implementation
   FAccTs GmbH                                   : IRC, NEB, NEB-TS, Multilevel, MM, QM/MM, CI optimization
   S Lehtola, MJT Oliveira, MAL Marques          : LibXC Library


 Your calculation uses the libint2 library for the computation of 2-el integrals
 For citations please refer to: http://libint.valeyev.net

 Your ORCA version has been built with support for libXC version: 4.2.3
 For citations please refer to: https://tddft.org/programs/libxc/

 This ORCA versions uses:
   CBLAS   interface :  Fast vector & matrix operations
   LAPACKE interface :  Fast linear algebra routines
   SCALAPACK package :  Parallel linear algebra routines


----- Orbital basis set information -----
Your calculation utilizes the basis: cc-pVTZ 
       H, B-Ne : Obtained from the ccRepo (grant-hill.group.shef.ac.uk/ccrepo) Feb. 2017
                 T. H. Dunning, Jr., J. Chem. Phys. 90, 1007 (1989)
            He : Obtained from the ccRepo (grant-hill.group.shef.ac.uk/ccrepo) Feb. 2017
                 D. E. Woon, T. H. Dunning, Jr., J. Chem. Phys. 100, 2975 (1994)
  Li-Be, Na-Mg : Obtained from the ccRepo (grant-hill.group.shef.ac.uk/ccrepo) Feb. 2017
                 B. P. Prascher, D. E. Woon, K. A. Peterson, T. H. Dunning, Jr., A. K. Wilson, Theor. Chem. Acc. 128, 69 (2011)
         Al-Ar : Obtained from the ccRepo (grant-hill.group.shef.ac.uk/ccrepo) Feb. 2017
                 D. E. Woon, T. H. Dunning, Jr., J. Chem. Phys. 98, 1358 (1993)
            Ca : Obtained from the Peterson Research Group Website (tyr0.chem.wsu.edu/~kipeters) Feb. 2017
                 J. Koput, K. A. Peterson, J. Phys. Chem. 106, 9595 (2002)
         Sc-Zn : Obtained from the ccRepo (grant-hill.group.shef.ac.uk/ccrepo) Feb. 2017
                 N. B. Balabanov, K. A. Peterson, J. Chem. Phys. 123, 064107 (2005)
                 N. B. Balabanov, K. A. Peterson, J. Chem. Phys. 125, 074110 (2006)
         Ga-Kr : Obtained from the ccRepo (grant-hill.group.shef.ac.uk/ccrepo) Feb. 2017
                 A. K. Wilson, D. E. Woon, K. A. Peterson, T. H. Dunning, Jr., J. Chem. Phys. 110, 7667 (1999)
             Y : Obtained from the ccRepo (grant-hill.group.shef.ac.uk/ccrepo) Feb. 2017
                 K. A. Peterson, D. Figgen, M. Dolg, H. Stoll, J. Chem. Phys. 126, 124101 (2007)
        Ag, Au : Obtained from the Peterson Research Group Website (tyr0.chem.wsu.edu/~kipeters) Feb. 2017
                 K. A. Peterson, C. Puzzarini, Theor. Chem. Acc. 114, 283 (2005)

----- AuxC basis set information -----
Your calculation utilizes the auxiliary basis: cc-pVTZ/C 
  Obtained from the EMSL Basis Set Exchange (bse.pnl.gov) Feb. 2017
  H-He, B-F, Al-Ar, Ga-Kr : F. Weigend, A. Kohn, C. Hattig, J. Chem. Phys. 116, 3175 (2002)
             Li-Be, Na-Mg : C. Haettig, Phys. Chem. Chem. Phys. 7, 59 (2005)
                       Ne : C. Haettig, Phys. Chem. Chem. Phys. 7, 59 (2005)
                            F. Weigend, A. Kohn, C. Hattig, J. Chem. Phys. 116, 3175 (2002)
                    Sc-Zn : J. G. Hill, J. A. Platts, J. Chem. Phys. 128, 044104 (2008)

================================================================================
                                        WARNINGS
                       Please study these warnings very carefully!
================================================================================


WARNING: No MP2 level density has been requested!
         To caclulate MP2 level properties use
         %mp2 Density relaxed end
         or
         %mp2 Density unrelaxed end

WARNING: Post HF methods need fully converged wavefunctions
  ===> : Setting SCFConvForced true
         You can overwrite this default with %scf ConvForced false 


INFO   : the flag for use of LIBINT has been found!

================================================================================
                                       INPUT FILE
================================================================================
NAME = CONFS/Conf149.orca
|  1> ! ri-mp2 cc-pvtz cc-pvtz/c TightSCF NoKeepInts
|  2> 
|  3> %scf
|  4>   MaxCore 4096
|  5> end
|  6> *xyz  0  1
|  7>     C       15.1763786   14.3224137   16.4769428
|  8>     C       15.5704500   15.1202572   15.2246992
|  9>     O       16.7763098   15.8651566   15.4872223
| 10>     C       16.7610519   17.1900243   15.1648129
| 11>     O       16.4396860   17.5451309   14.0442054
| 12>     C       16.9916452   18.1126839   16.3335145
| 13>     C       16.9732041   19.4596209   16.1481273
| 14>     C       16.4081984   20.2199446   14.9652863
| 15>     N       17.5048130   20.3285691   17.1034086
| 16>     C       18.2846455   19.9345576   18.1554944
| 17>     S       18.9919135   21.0232624   19.1802147
| 18>     N       18.4734601   18.5841503   18.2983629
| 19>     C       17.7778612   17.5371556   17.5262624
| 20>     C       17.0183789   16.5827321   18.4350307
| 21>     C       17.5452946   15.3141747   18.7395960
| 22>     C       16.8738872   14.4582411   19.6293370
| 23>     C       15.6707497   14.8776457   20.2230873
| 24>     C       15.1502472   16.1457500   19.9290633
| 25>     O       13.9913960   16.5547532   20.5037434
| 26>     C       15.8204943   16.9954464   19.0431701
| 27>     H       16.0136894   13.7058469   16.8253932
| 28>     H       14.3313951   13.6589952   16.2572104
| 29>     H       14.8726777   14.9958829   17.2848997
| 30>     H       15.7419700   14.4354186   14.3840562
| 31>     H       14.7408697   15.7877391   14.9519165
| 32>     H       15.4174851   19.8346695   14.6926169
| 33>     H       17.0575880   20.1066031   14.0876161
| 34>     H       16.2944628   21.2929928   15.1594971
| 35>     H       17.3996670   21.3239528   16.9885441
| 36>     H       19.0313006   18.3211478   19.1009962
| 37>     H       18.6483570   17.0352976   17.0802547
| 38>     H       18.4779803   14.9911627   18.2846778
| 39>     H       17.2869096   13.4771133   19.8574874
| 40>     H       15.1493923   14.2203117   20.9112037
| 41>     H       13.7095260   15.8605182   21.1183755
| 42>     H       15.4136642   17.9806776   18.8416728
| 43> *
| 44> 
| 45>                          ****END OF INPUT****
================================================================================

                       ****************************
                       * Single Point Calculation *
                       ****************************

---------------------------------
CARTESIAN COORDINATES (ANGSTROEM)
---------------------------------
  C     15.176379   14.322414   16.476943
  C     15.570450   15.120257   15.224699
  O     16.776310   15.865157   15.487222
  C     16.761052   17.190024   15.164813
  O     16.439686   17.545131   14.044205
  C     16.991645   18.112684   16.333514
  C     16.973204   19.459621   16.148127
  C     16.408198   20.219945   14.965286
  N     17.504813   20.328569   17.103409
  C     18.284645   19.934558   18.155494
  S     18.991913   21.023262   19.180215
  N     18.473460   18.584150   18.298363
  C     17.777861   17.537156   17.526262
  C     17.018379   16.582732   18.435031
  C     17.545295   15.314175   18.739596
  C     16.873887   14.458241   19.629337
  C     15.670750   14.877646   20.223087
  C     15.150247   16.145750   19.929063
  O     13.991396   16.554753   20.503743
  C     15.820494   16.995446   19.043170
  H     16.013689   13.705847   16.825393
  H     14.331395   13.658995   16.257210
  H     14.872678   14.995883   17.284900
  H     15.741970   14.435419   14.384056
  H     14.740870   15.787739   14.951916
  H     15.417485   19.834669   14.692617
  H     17.057588   20.106603   14.087616
  H     16.294463   21.292993   15.159497
  H     17.399667   21.323953   16.988544
  H     19.031301   18.321148   19.100996
  H     18.648357   17.035298   17.080255
  H     18.477980   14.991163   18.284678
  H     17.286910   13.477113   19.857487
  H     15.149392   14.220312   20.911204
  H     13.709526   15.860518   21.118375
  H     15.413664   17.980678   18.841673

----------------------------
CARTESIAN COORDINATES (A.U.)
----------------------------
  NO LB      ZA    FRAG     MASS         X           Y           Z
   0 C     6.0000    0    12.011   28.679199   27.065439   31.136909
   1 C     6.0000    0    12.011   29.423886   28.573145   28.770512
   2 O     8.0000    0    15.999   31.702631   29.980801   29.266609
   3 C     6.0000    0    12.011   31.673798   32.484438   28.657343
   4 O     8.0000    0    15.999   31.066504   33.155492   26.539702
   5 C     6.0000    0    12.011   32.109556   34.228012   30.865869
   6 C     6.0000    0    12.011   32.074707   36.773354   30.515538
   7 C     6.0000    0    12.011   31.007001   38.210158   28.280293
   8 N     7.0000    0    14.007   33.079303   38.415428   32.320758
   9 C     6.0000    0    12.011   34.552972   37.670854   34.308912
  10 S    16.0000    0    32.060   35.889515   39.728208   36.245353
  11 N     7.0000    0    14.007   34.909780   35.118954   34.578895
  12 C     6.0000    0    12.011   33.595289   33.140421   33.119836
  13 C     6.0000    0    12.011   32.160075   31.336822   34.837159
  14 C     6.0000    0    12.011   33.155802   28.939596   35.412704
  15 C     6.0000    0    12.011   31.887026   27.322116   37.094071
  16 C     6.0000    0    12.011   29.613425   28.114676   38.216097
  17 C     6.0000    0    12.011   28.629818   30.511046   37.660472
  18 O     8.0000    0    15.999   26.439907   31.283950   38.746460
  19 C     6.0000    0    12.011   29.896402   32.116739   35.986376
  20 H     1.0000    0     1.008   30.261487   25.900297   31.795385
  21 H     1.0000    0     1.008   27.082412   25.811760   30.721675
  22 H     1.0000    0     1.008   28.105288   28.338112   32.663727
  23 H     1.0000    0     1.008   29.748012   27.278988   27.181927
  24 H     1.0000    0     1.008   27.856207   29.834503   28.255027
  25 H     1.0000    0     1.008   29.134825   37.482093   27.765022
  26 H     1.0000    0     1.008   32.234170   37.995973   26.621736
  27 H     1.0000    0     1.008   30.792072   40.237925   28.647298
  28 H     1.0000    0     1.008   32.880605   40.296431   32.103696
  29 H     1.0000    0     1.008   35.963946   34.621952   36.095652
  30 H     1.0000    0     1.008   35.240288   32.192047   32.277004
  31 H     1.0000    0     1.008   34.918322   28.329192   34.553033
  32 H     1.0000    0     1.008   32.667525   25.468053   37.525213
  33 H     1.0000    0     1.008   28.628203   26.872495   39.516448
  34 H     1.0000    0     1.008   25.907250   29.972036   39.907946
  35 H     1.0000    0     1.008   29.127604   33.978556   35.605601

--------------------------------
INTERNAL COORDINATES (ANGSTROEM)
--------------------------------
 C      0   0   0     0.000000000000     0.00000000     0.00000000
 C      1   0   0     1.536216310463     0.00000000     0.00000000
 O      2   1   0     1.441489282447   109.54310170     0.00000000
 C      3   2   1     1.363618365682   116.72135321   229.73486422
 O      4   3   2     1.218662343762   120.23005703   306.94705514
 C      4   3   2     1.506763895678   114.19493764   119.51861048
 C      6   4   3     1.359760188438   119.91707404   181.32076874
 C      7   6   4     1.515399749602   127.47929826    16.72757012
 N      7   6   4     1.396510422078   121.19388461   196.32775953
 C      9   7   6     1.367577537381   124.33580439    12.29858659
 S     10   9   7     1.653952193565   122.06135700   174.65523474
 N     10   9   7     1.371007745186   116.26214233   356.04392085
 C     12  10   9     1.475193178404   125.42170032   351.90032693
 C     13  12  10     1.521051414138   111.59716100   238.29475875
 C     14  13  12     1.406996110146   120.53566050   258.25569007
 C     15  14  13     1.405364462147   120.48093215   176.97082368
 C     16  15  14     1.405695372816   119.64362875   359.68193788
 C     17  16  15     1.401949171961   119.93795550   359.79083367
 O     18  17  16     1.356641787167   120.06620117   180.19944198
 C     18  17  16     1.398578531595   120.29549018     0.21490162
 H      1   2   3     1.096659325369   110.80209363   306.56679311
 H      1   2   3     1.096541631232   110.39822551   186.75096171
 H      1   2   3     1.094801056022   110.68629169    67.42886382
 H      2   1   3     1.097772140245   109.89514313   120.14171565
 H      2   1   3     1.099156932560   108.90983428   238.09622198
 H      8   7   6     1.097405279363   110.75592072    45.80651639
 H      8   7   6     1.097660297259   110.59293152   286.84818020
 H      8   7   6     1.096396853820   113.04544928   165.99556316
 H      9   7   6     1.007491064428   119.80394589   186.01079821
 H     12  10   9     1.012213689255   114.48494787   181.75108861
 H     13  12  10     1.099339464606    99.37914379   121.65667216
 H     15  14  13     1.086825623465   119.91670566   356.95128036
 H     16  15  14     1.088692733444   120.02005212   179.82597854
 H     17  16  15     1.085083271477   119.89148287   180.04489564
 H     19  18  17     0.969115860192   107.52591149     3.34903475
 H     20  18  17     1.084800631281   119.32144153   181.16959383

---------------------------
INTERNAL COORDINATES (A.U.)
---------------------------
 C      0   0   0     0.000000000000     0.00000000     0.00000000
 C      1   0   0     2.903028109237     0.00000000     0.00000000
 O      2   1   0     2.724019968808   109.54310170     0.00000000
 C      3   2   1     2.576865262323   116.72135321   229.73486422
 O      4   3   2     2.302938079432   120.23005703   306.94705514
 C      4   3   2     2.847371111312   114.19493764   119.51861048
 C      6   4   3     2.569574363958   119.91707404   181.32076874
 C      7   6   4     2.863690510161   127.47929826    16.72757012
 N      7   6   4     2.639022240894   121.19388461   196.32775953
 C      9   7   6     2.584347012553   124.33580439    12.29858659
 S     10   9   7     3.125516684437   122.06135700   174.65523474
 N     10   9   7     2.590829165886   116.26214233   356.04392085
 C     12  10   9     2.787711101812   125.42170032   351.90032693
 C     13  12  10     2.874370608334   111.59716100   238.29475875
 C     14  13  12     2.658837319668   120.53566050   258.25569007
 C     15  14  13     2.655753951803   120.48093215   176.97082368
 C     16  15  14     2.656379282343   119.64362875   359.68193788
 C     17  16  15     2.649299988683   119.93795550   359.79083367
 O     18  17  16     2.563681439579   120.06620117   180.19944198
 C     18  17  16     2.642930401496   120.29549018     0.21490162
 H      1   2   3     2.072385787158   110.80209363   306.56679311
 H      1   2   3     2.072163377471   110.39822551   186.75096171
 H      1   2   3     2.068874167010   110.68629169    67.42886382
 H      2   1   3     2.074488702512   109.89514313   120.14171565
 H      2   1   3     2.077105580740   108.90983428   238.09622198
 H      8   7   6     2.073795435915   110.75592072    45.80651639
 H      8   7   6     2.074277349898   110.59293152   286.84818020
 H      8   7   6     2.071889787813   113.04544928   165.99556316
 H      9   7   6     1.903882194141   119.80394589   186.01079821
 H     12  10   9     1.912806661698   114.48494787   181.75108861
 H     13  12  10     2.077450516318    99.37914379   121.65667216
 H     15  14  13     2.053802783677   119.91670566   356.95128036
 H     16  15  14     2.057331110200   120.02005212   179.82597854
 H     17  16  15     2.050510215591   119.89148287   180.04489564
 H     19  18  17     1.831363567802   107.52591149     3.34903475
 H     20  18  17     2.049976103025   119.32144153   181.16959383

---------------------
BASIS SET INFORMATION
---------------------
There are 5 groups of distinct atoms

 Group   1 Type C   : 18s5p2d1f contracted to 4s3p2d1f pattern {8811/311/11/1}
 Group   2 Type O   : 18s5p2d1f contracted to 4s3p2d1f pattern {8811/311/11/1}
 Group   3 Type N   : 18s5p2d1f contracted to 4s3p2d1f pattern {8811/311/11/1}
 Group   4 Type S   : 41s16p2d1f contracted to 5s4p2d1f pattern {13131311/7711/11/1}
 Group   5 Type H   : 5s2p1d contracted to 3s2p1d pattern {311/11/1}

Atom   0C    basis set group =>   1
Atom   1C    basis set group =>   1
Atom   2O    basis set group =>   2
Atom   3C    basis set group =>   1
Atom   4O    basis set group =>   2
Atom   5C    basis set group =>   1
Atom   6C    basis set group =>   1
Atom   7C    basis set group =>   1
Atom   8N    basis set group =>   3
Atom   9C    basis set group =>   1
Atom  10S    basis set group =>   4
Atom  11N    basis set group =>   3
Atom  12C    basis set group =>   1
Atom  13C    basis set group =>   1
Atom  14C    basis set group =>   1
Atom  15C    basis set group =>   1
Atom  16C    basis set group =>   1
Atom  17C    basis set group =>   1
Atom  18O    basis set group =>   2
Atom  19C    basis set group =>   1
Atom  20H    basis set group =>   5
Atom  21H    basis set group =>   5
Atom  22H    basis set group =>   5
Atom  23H    basis set group =>   5
Atom  24H    basis set group =>   5
Atom  25H    basis set group =>   5
Atom  26H    basis set group =>   5
Atom  27H    basis set group =>   5
Atom  28H    basis set group =>   5
Atom  29H    basis set group =>   5
Atom  30H    basis set group =>   5
Atom  31H    basis set group =>   5
Atom  32H    basis set group =>   5
Atom  33H    basis set group =>   5
Atom  34H    basis set group =>   5
Atom  35H    basis set group =>   5
---------------------------------
AUXILIARY/C BASIS SET INFORMATION
---------------------------------
There are 5 groups of distinct atoms

 Group   1 Type C   : 8s6p5d3f1g contracted to 8s6p5d3f1g pattern {11111111/111111/11111/111/1}
 Group   2 Type O   : 8s6p5d3f1g contracted to 8s6p5d3f1g pattern {11111111/111111/11111/111/1}
 Group   3 Type N   : 8s6p5d3f1g contracted to 8s6p5d3f1g pattern {11111111/111111/11111/111/1}
 Group   4 Type S   : 10s8p7d5f2g contracted to 10s8p7d5f2g pattern {1111111111/11111111/1111111/11111/11}
 Group   5 Type H   : 4s3p2d1f contracted to 4s3p2d1f pattern {1111/111/11/1}

Atom   0C    basis set group =>   1
Atom   1C    basis set group =>   1
Atom   2O    basis set group =>   2
Atom   3C    basis set group =>   1
Atom   4O    basis set group =>   2
Atom   5C    basis set group =>   1
Atom   6C    basis set group =>   1
Atom   7C    basis set group =>   1
Atom   8N    basis set group =>   3
Atom   9C    basis set group =>   1
Atom  10S    basis set group =>   4
Atom  11N    basis set group =>   3
Atom  12C    basis set group =>   1
Atom  13C    basis set group =>   1
Atom  14C    basis set group =>   1
Atom  15C    basis set group =>   1
Atom  16C    basis set group =>   1
Atom  17C    basis set group =>   1
Atom  18O    basis set group =>   2
Atom  19C    basis set group =>   1
Atom  20H    basis set group =>   5
Atom  21H    basis set group =>   5
Atom  22H    basis set group =>   5
Atom  23H    basis set group =>   5
Atom  24H    basis set group =>   5
Atom  25H    basis set group =>   5
Atom  26H    basis set group =>   5
Atom  27H    basis set group =>   5
Atom  28H    basis set group =>   5
Atom  29H    basis set group =>   5
Atom  30H    basis set group =>   5
Atom  31H    basis set group =>   5
Atom  32H    basis set group =>   5
Atom  33H    basis set group =>   5
Atom  34H    basis set group =>   5
Atom  35H    basis set group =>   5
------------------------------------------------------------------------------
                           ORCA GTO INTEGRAL CALCULATION
------------------------------------------------------------------------------

                         BASIS SET STATISTICS AND STARTUP INFO

 # of primitive gaussian shells          ...  682
 # of primitive gaussian functions       ... 1312
 # of contracted shells                  ...  298
 # of contracted basis functions         ...  828
 Highest angular momentum                ...    3
 Maximum contraction depth               ...   13
 Integral package used                   ... LIBINT
 Integral threshhold            Thresh   ...  2.500e-11
 Primitive cut-off              TCut     ...  2.500e-12


------------------------------ INTEGRAL EVALUATION ----------------------------


 * One electron integrals 
 Pre-screening matrix                    ... done
 Shell pair data                         ... done (   0.012 sec)

-------------------------------------------------------------------------------
                                 ORCA SCF
-------------------------------------------------------------------------------

------------
SCF SETTINGS
------------
Hamiltonian:
 Ab initio Hamiltonian  Method          .... Hartree-Fock(GTOs)


General Settings:
 Integral files         IntName         .... CONFS/Conf149.orca
 Hartree-Fock type      HFTyp           .... RHF
 Total Charge           Charge          ....    0
 Multiplicity           Mult            ....    1
 Number of Electrons    NEL             ....  154
 Basis Dimension        Dim             ....  828
 Nuclear Repulsion      ENuc            ....   1709.7255615489 Eh

Convergence Acceleration:
 DIIS                   CNVDIIS         .... on
   Start iteration      DIISMaxIt       ....    12
   Startup error        DIISStart       ....  0.200000
   # of expansion vecs  DIISMaxEq       ....     5
   Bias factor          DIISBfac        ....   1.050
   Max. coefficient     DIISMaxC        ....  10.000
 Newton-Raphson         CNVNR           .... off
 SOSCF                  CNVSOSCF        .... on
   Start iteration      SOSCFMaxIt      ....   150
   Startup grad/error   SOSCFStart      ....  0.003300
 Level Shifting         CNVShift        .... on
   Level shift para.    LevelShift      ....    0.2500
   Turn off err/grad.   ShiftErr        ....    0.0010
 Zerner damping         CNVZerner       .... off
 Static damping         CNVDamp         .... on
   Fraction old density DampFac         ....    0.7000
   Max. Damping (<1)    DampMax         ....    0.9800
   Min. Damping (>=0)   DampMin         ....    0.0000
   Turn off err/grad.   DampErr         ....    0.1000
 Fernandez-Rico         CNVRico         .... off

SCF Procedure:
 Maximum # iterations   MaxIter         ....   125
 SCF integral mode      SCFMode         .... Direct
   Integral package                     .... LIBINT
 Reset frequency        DirectResetFreq ....    20
 Integral Threshold     Thresh          ....  2.500e-11 Eh
 Primitive CutOff       TCut            ....  2.500e-12 Eh

Convergence Tolerance:
 Convergence Check Mode ConvCheckMode   .... Total+1el-Energy
 Convergence forced     ConvForced      .... 1
 Energy Change          TolE            ....  1.000e-08 Eh
 1-El. energy change                    ....  1.000e-05 Eh
 Orbital Gradient       TolG            ....  1.000e-05
 Orbital Rotation angle TolX            ....  1.000e-05
 DIIS Error             TolErr          ....  5.000e-07


Diagonalization of the overlap matrix:
Smallest eigenvalue                        ... 3.368e-05
Time for diagonalization                   ...    0.281 sec
Threshold for overlap eigenvalues          ... 1.000e-08
Number of eigenvalues below threshold      ... 0
Time for construction of square roots      ...    0.329 sec
Total time needed                          ...    0.611 sec

-------------------
DFT GRID GENERATION
-------------------

General Integration Accuracy     IntAcc      ...  4.340
Radial Grid Type                 RadialGrid  ... Gauss-Chebyshev
Angular Grid (max. acc.)         AngularGrid ... Lebedev-110
Angular grid pruning method      GridPruning ... 3 (G Style)
Weight generation scheme         WeightScheme... Becke
Basis function cutoff            BFCut       ...    1.0000e-11
Integration weight cutoff        WCut        ...    1.0000e-14
Grids for H and He will be reduced by one unit

# of grid points (after initial pruning)     ...  46246 (   0.0 sec)
# of grid points (after weights+screening)   ...  41258 (   0.3 sec)
nearest neighbour list constructed           ...    0.0 sec
Grid point re-assignment to atoms done       ...    0.0 sec
Grid point division into batches done        ...    0.0 sec
Reduced shell lists constructed in    0.8 sec

Total number of grid points                  ...    41258
Total number of batches                      ...      661
Average number of points per batch           ...       62
Average number of grid points per atom       ...     1146
Average number of shells per batch           ...   151.10 (50.71%)
Average number of basis functions per batch  ...   384.16 (46.40%)
Average number of large shells per batch     ...    96.82 (64.08%)
Average number of large basis fcns per batch ...   248.28 (64.63%)
Maximum spatial batch extension              ...  21.69, 20.30, 21.86 au
Average spatial batch extension              ...   3.53,  3.28,  3.43 au

Time for grid setup =    1.092 sec

------------------------------
INITIAL GUESS: MODEL POTENTIAL
------------------------------
Loading Hartree-Fock densities                     ... done
Calculating cut-offs                               ... done
Setting up the integral package                    ... done
Initializing the effective Hamiltonian             ... done
Starting the Coulomb interaction                   ... done (   2.9 sec)
Reading the grid                                   ... done
Mapping shells                                     ... done
Starting the XC term evaluation                    ... done (   1.0 sec)
Transforming the Hamiltonian                       ... done (   0.2 sec)
Diagonalizing the Hamiltonian                      ... done (   0.3 sec)
Back transforming the eigenvectors                 ... done (   0.1 sec)
Now organizing SCF variables                       ... done
                      ------------------
                      INITIAL GUESS DONE (   5.9 sec)
                      ------------------
--------------
SCF ITERATIONS
--------------
ITER       Energy         Delta-E        Max-DP      RMS-DP      [F,P]     Damp
               ***  Starting incremental Fock matrix formation  ***
  0  -1270.0001675108   0.000000000000 0.04933852  0.00042907  0.3270593 0.7000
  1  -1270.2676796850  -0.267512174218 0.03609064  0.00034458  0.1966980 0.7000
                               ***Turning on DIIS***
  2  -1270.4343169350  -0.166637249987 0.02583992  0.00023139  0.1104880 0.7000
  3  -1272.5681321479  -2.133815212874 0.06312066  0.00050207  0.0828589 0.0000
  4  -1270.7439394598   1.824192688110 0.00994304  0.00009470  0.0070758 0.0000
  5  -1270.8001022314  -0.056162771594 0.00329289  0.00004905  0.0049334 0.0000
  6  -1270.7816237564   0.018478475000 0.00170906  0.00002524  0.0033538 0.0000
                      *** Initiating the SOSCF procedure ***
                           *** Shutting down DIIS ***
                      *** Re-Reading the Fockian *** 
                      *** Removing any level shift *** 
ITER      Energy       Delta-E        Grad      Rot      Max-DP    RMS-DP
  7  -1270.79658424  -0.0149604801  0.001190  0.001190  0.001085  0.000013
               *** Restarting incremental Fock matrix formation ***
  8  -1270.79636785   0.0002163896  0.000641  0.001636  0.000563  0.000007
  9  -1270.79638141  -0.0000135593  0.000299  0.001890  0.000712  0.000009
 10  -1270.79638680  -0.0000053956  0.000067  0.000114  0.000181  0.000002
 11  -1270.79638736  -0.0000005558  0.000034  0.000073  0.000063  0.000001
 12  -1270.79638746  -0.0000001032  0.000012  0.000048  0.000031  0.000000
 13  -1270.79638747  -0.0000000138  0.000008  0.000039  0.000018  0.000000
                  ***Gradient check signals convergence***
              ***Rediagonalizing the Fockian in SOSCF/NRSCF***

               *****************************************************
               *                     SUCCESS                       *
               *           SCF CONVERGED AFTER  14 CYCLES          *
               *****************************************************


----------------
TOTAL SCF ENERGY
----------------

Total Energy       :        -1270.79638749 Eh          -34580.12772 eV

Components:
Nuclear Repulsion  :         1709.72556155 Eh           46523.99776 eV
Electronic Energy  :        -2980.52194903 Eh          -81104.12549 eV
One Electron Energy:        -5140.54437801 Eh         -139881.32395 eV
Two Electron Energy:         2160.02242898 Eh           58777.19847 eV

Virial components:
Potential Energy   :        -2539.81756702 Eh          -69111.94958 eV
Kinetic Energy     :         1269.02117954 Eh           34531.82186 eV
Virial Ratio       :            2.00139888


---------------
SCF CONVERGENCE
---------------

  Last Energy change         ...   -1.1059e-08  Tolerance :   1.0000e-08
  Last MAX-Density change    ...    2.4423e-06  Tolerance :   1.0000e-07
  Last RMS-Density change    ...    3.9811e-08  Tolerance :   5.0000e-09
  Last Orbital Gradient      ...    1.9311e-06  Tolerance :   1.0000e-05
  Last Orbital Rotation      ...    5.3484e-06  Tolerance :   1.0000e-05

             **** THE GBW FILE WAS UPDATED (CONFS/Conf149.orca.gbw) ****
             **** DENSITY FILE WAS UPDATED (CONFS/Conf149.orca.scfp) ****
             **** ENERGY FILE WAS UPDATED (CONFS/Conf149.orca.en.tmp) ****
             **** THE GBW FILE WAS UPDATED (CONFS/Conf149.orca.gbw) ****
             **** DENSITY FILE WAS UPDATED (CONFS/Conf149.orca.scfp) ****
----------------
ORBITAL ENERGIES
----------------

  NO   OCC          E(Eh)            E(eV) 
   0   2.0000     -91.890510     -2500.4679 
   1   2.0000     -20.600281      -560.5622 
   2   2.0000     -20.587215      -560.2066 
   3   2.0000     -20.543959      -559.0296 
   4   2.0000     -15.631001      -425.3412 
   5   2.0000     -15.608285      -424.7230 
   6   2.0000     -11.392388      -310.0026 
   7   2.0000     -11.384640      -309.7918 
   8   2.0000     -11.339867      -308.5735 
   9   2.0000     -11.317636      -307.9685 
  10   2.0000     -11.310333      -307.7698 
  11   2.0000     -11.295072      -307.3545 
  12   2.0000     -11.264108      -306.5120 
  13   2.0000     -11.260036      -306.4012 
  14   2.0000     -11.258511      -306.3597 
  15   2.0000     -11.252983      -306.2092 
  16   2.0000     -11.247231      -306.0527 
  17   2.0000     -11.242033      -305.9113 
  18   2.0000     -11.241526      -305.8975 
  19   2.0000     -11.220842      -305.3346 
  20   2.0000      -8.895556      -242.0604 
  21   2.0000      -6.577122      -178.9726 
  22   2.0000      -6.575130      -178.9184 
  23   2.0000      -6.574534      -178.9022 
  24   2.0000      -1.448763       -39.4229 
  25   2.0000      -1.420001       -38.6402 
  26   2.0000      -1.351469       -36.7754 
  27   2.0000      -1.342679       -36.5362 
  28   2.0000      -1.240554       -33.7572 
  29   2.0000      -1.160704       -31.5844 
  30   2.0000      -1.122421       -30.5426 
  31   2.0000      -1.045310       -28.4443 
  32   2.0000      -1.033714       -28.1288 
  33   2.0000      -1.018721       -27.7208 
  34   2.0000      -0.998819       -27.1792 
  35   2.0000      -0.986428       -26.8421 
  36   2.0000      -0.924163       -25.1478 
  37   2.0000      -0.883125       -24.0310 
  38   2.0000      -0.848230       -23.0815 
  39   2.0000      -0.841171       -22.8894 
  40   2.0000      -0.837322       -22.7847 
  41   2.0000      -0.820077       -22.3154 
  42   2.0000      -0.762660       -20.7530 
  43   2.0000      -0.736271       -20.0349 
  44   2.0000      -0.721510       -19.6333 
  45   2.0000      -0.698528       -19.0079 
  46   2.0000      -0.688199       -18.7269 
  47   2.0000      -0.676894       -18.4192 
  48   2.0000      -0.673859       -18.3366 
  49   2.0000      -0.667143       -18.1539 
  50   2.0000      -0.647411       -17.6169 
  51   2.0000      -0.643186       -17.5020 
  52   2.0000      -0.636616       -17.3232 
  53   2.0000      -0.610298       -16.6071 
  54   2.0000      -0.604312       -16.4442 
  55   2.0000      -0.602056       -16.3828 
  56   2.0000      -0.590480       -16.0678 
  57   2.0000      -0.579371       -15.7655 
  58   2.0000      -0.571820       -15.5600 
  59   2.0000      -0.567025       -15.4295 
  60   2.0000      -0.561348       -15.2751 
  61   2.0000      -0.548347       -14.9213 
  62   2.0000      -0.541113       -14.7244 
  63   2.0000      -0.526942       -14.3388 
  64   2.0000      -0.516765       -14.0619 
  65   2.0000      -0.513557       -13.9746 
  66   2.0000      -0.502268       -13.6674 
  67   2.0000      -0.499525       -13.5928 
  68   2.0000      -0.482757       -13.1365 
  69   2.0000      -0.463734       -12.6188 
  70   2.0000      -0.452084       -12.3018 
  71   2.0000      -0.446382       -12.1467 
  72   2.0000      -0.354572        -9.6484 
  73   2.0000      -0.353410        -9.6168 
  74   2.0000      -0.329762        -8.9733 
  75   2.0000      -0.324932        -8.8418 
  76   2.0000      -0.320153        -8.7118 
  77   0.0000       0.071906         1.9567 
  78   0.0000       0.100795         2.7428 
  79   0.0000       0.122554         3.3349 
  80   0.0000       0.129955         3.5363 
  81   0.0000       0.132434         3.6037 
  82   0.0000       0.141575         3.8525 
  83   0.0000       0.148242         4.0339 
  84   0.0000       0.154264         4.1977 
  85   0.0000       0.159663         4.3446 
  86   0.0000       0.170423         4.6375 
  87   0.0000       0.182268         4.9598 
  88   0.0000       0.189718         5.1625 
  89   0.0000       0.191617         5.2142 
  90   0.0000       0.199811         5.4371 
  91   0.0000       0.202666         5.5148 
  92   0.0000       0.214819         5.8455 
  93   0.0000       0.220254         5.9934 
  94   0.0000       0.227899         6.2014 
  95   0.0000       0.231151         6.2900 
  96   0.0000       0.245709         6.6861 
  97   0.0000       0.258203         7.0261 
  98   0.0000       0.267460         7.2780 
  99   0.0000       0.281274         7.6539 
 100   0.0000       0.296518         8.0687 
 101   0.0000       0.304025         8.2729 
 102   0.0000       0.310211         8.4413 
 103   0.0000       0.317979         8.6527 
 104   0.0000       0.319510         8.6943 
 105   0.0000       0.333185         9.0664 
 106   0.0000       0.343145         9.3375 
 107   0.0000       0.344096         9.3633 
 108   0.0000       0.359817         9.7911 
 109   0.0000       0.364761         9.9257 
 110   0.0000       0.369519        10.0551 
 111   0.0000       0.372154        10.1268 
 112   0.0000       0.383897        10.4464 
 113   0.0000       0.388965        10.5843 
 114   0.0000       0.400857        10.9079 
 115   0.0000       0.407483        11.0882 
 116   0.0000       0.412992        11.2381 
 117   0.0000       0.424597        11.5539 
 118   0.0000       0.433580        11.7983 
 119   0.0000       0.438264        11.9258 
 120   0.0000       0.444238        12.0883 
 121   0.0000       0.445838        12.1319 
 122   0.0000       0.452300        12.3077 
 123   0.0000       0.457466        12.4483 
 124   0.0000       0.463150        12.6029 
 125   0.0000       0.472658        12.8617 
 126   0.0000       0.481403        13.0996 
 127   0.0000       0.485003        13.1976 
 128   0.0000       0.493901        13.4397 
 129   0.0000       0.498519        13.5654 
 130   0.0000       0.504583        13.7304 
 131   0.0000       0.509923        13.8757 
 132   0.0000       0.517738        14.0884 
 133   0.0000       0.518531        14.1099 
 134   0.0000       0.525564        14.3013 
 135   0.0000       0.531175        14.4540 
 136   0.0000       0.536758        14.6059 
 137   0.0000       0.542940        14.7741 
 138   0.0000       0.544145        14.8069 
 139   0.0000       0.555608        15.1189 
 140   0.0000       0.557220        15.1627 
 141   0.0000       0.560189        15.2435 
 142   0.0000       0.566473        15.4145 
 143   0.0000       0.567844        15.4518 
 144   0.0000       0.575247        15.6533 
 145   0.0000       0.582340        15.8463 
 146   0.0000       0.587649        15.9908 
 147   0.0000       0.591409        16.0931 
 148   0.0000       0.598160        16.2768 
 149   0.0000       0.602205        16.3868 
 150   0.0000       0.605224        16.4690 
 151   0.0000       0.609123        16.5751 
 152   0.0000       0.611155        16.6304 
 153   0.0000       0.619642        16.8613 
 154   0.0000       0.623619        16.9695 
 155   0.0000       0.625695        17.0260 
 156   0.0000       0.629417        17.1273 
 157   0.0000       0.630571        17.1587 
 158   0.0000       0.637317        17.3423 
 159   0.0000       0.640505        17.4290 
 160   0.0000       0.648477        17.6460 
 161   0.0000       0.655466        17.8361 
 162   0.0000       0.659705        17.9515 
 163   0.0000       0.661615        18.0035 
 164   0.0000       0.669135        18.2081 
 165   0.0000       0.673021        18.3138 
 166   0.0000       0.685135        18.6435 
 167   0.0000       0.685720        18.6594 
 168   0.0000       0.690191        18.7810 
 169   0.0000       0.697347        18.9758 
 170   0.0000       0.700585        19.0639 
 171   0.0000       0.707226        19.2446 
 172   0.0000       0.714098        19.4316 
 173   0.0000       0.721090        19.6219 
 174   0.0000       0.726764        19.7762 
 175   0.0000       0.733854        19.9692 
 176   0.0000       0.739885        20.1333 
 177   0.0000       0.744091        20.2477 
 178   0.0000       0.755247        20.5513 
 179   0.0000       0.759096        20.6561 
 180   0.0000       0.769046        20.9268 
 181   0.0000       0.777690        21.1620 
 182   0.0000       0.783500        21.3201 
 183   0.0000       0.792662        21.5694 
 184   0.0000       0.804522        21.8922 
 185   0.0000       0.811449        22.0807 
 186   0.0000       0.819083        22.2884 
 187   0.0000       0.824018        22.4227 
 188   0.0000       0.830590        22.6015 
 189   0.0000       0.837470        22.7887 
 190   0.0000       0.846732        23.0407 
 191   0.0000       0.853395        23.2221 
 192   0.0000       0.860563        23.4171 
 193   0.0000       0.867847        23.6153 
 194   0.0000       0.875341        23.8192 
 195   0.0000       0.876417        23.8485 
 196   0.0000       0.882683        24.0190 
 197   0.0000       0.891523        24.2596 
 198   0.0000       0.892858        24.2959 
 199   0.0000       0.897696        24.4275 
 200   0.0000       0.915831        24.9210 
 201   0.0000       0.916475        24.9386 
 202   0.0000       0.926463        25.2103 
 203   0.0000       0.937520        25.5112 
 204   0.0000       0.939584        25.5674 
 205   0.0000       0.944817        25.7098 
 206   0.0000       0.957623        26.0582 
 207   0.0000       0.960014        26.1233 
 208   0.0000       0.968246        26.3473 
 209   0.0000       0.972767        26.4703 
 210   0.0000       0.985341        26.8125 
 211   0.0000       0.993832        27.0435 
 212   0.0000       0.998816        27.1792 
 213   0.0000       1.003907        27.3177 
 214   0.0000       1.007586        27.4178 
 215   0.0000       1.018091        27.7037 
 216   0.0000       1.021090        27.7853 
 217   0.0000       1.027466        27.9588 
 218   0.0000       1.037141        28.2220 
 219   0.0000       1.054805        28.7027 
 220   0.0000       1.057361        28.7723 
 221   0.0000       1.058599        28.8060 
 222   0.0000       1.067936        29.0600 
 223   0.0000       1.077617        29.3234 
 224   0.0000       1.086692        29.5704 
 225   0.0000       1.093073        29.7440 
 226   0.0000       1.104762        30.0621 
 227   0.0000       1.115098        30.3434 
 228   0.0000       1.116510        30.3818 
 229   0.0000       1.119729        30.4694 
 230   0.0000       1.134718        30.8772 
 231   0.0000       1.135735        30.9049 
 232   0.0000       1.147879        31.2354 
 233   0.0000       1.154867        31.4255 
 234   0.0000       1.161605        31.6089 
 235   0.0000       1.165377        31.7115 
 236   0.0000       1.171703        31.8837 
 237   0.0000       1.180713        32.1288 
 238   0.0000       1.186009        32.2729 
 239   0.0000       1.189013        32.3547 
 240   0.0000       1.192851        32.4591 
 241   0.0000       1.208466        32.8840 
 242   0.0000       1.212140        32.9840 
 243   0.0000       1.214731        33.0545 
 244   0.0000       1.223086        33.2819 
 245   0.0000       1.225933        33.3593 
 246   0.0000       1.232257        33.5314 
 247   0.0000       1.241978        33.7959 
 248   0.0000       1.245171        33.8828 
 249   0.0000       1.257303        34.2130 
 250   0.0000       1.264461        34.4077 
 251   0.0000       1.268499        34.5176 
 252   0.0000       1.286028        34.9946 
 253   0.0000       1.293601        35.2007 
 254   0.0000       1.295468        35.2515 
 255   0.0000       1.308628        35.6096 
 256   0.0000       1.314487        35.7690 
 257   0.0000       1.320668        35.9372 
 258   0.0000       1.333327        36.2817 
 259   0.0000       1.344363        36.5820 
 260   0.0000       1.351628        36.7797 
 261   0.0000       1.357831        36.9485 
 262   0.0000       1.364391        37.1270 
 263   0.0000       1.369398        37.2632 
 264   0.0000       1.376213        37.4486 
 265   0.0000       1.383900        37.6578 
 266   0.0000       1.393575        37.9211 
 267   0.0000       1.401259        38.1302 
 268   0.0000       1.413400        38.4606 
 269   0.0000       1.419321        38.6217 
 270   0.0000       1.429486        38.8983 
 271   0.0000       1.433921        39.0190 
 272   0.0000       1.442198        39.2442 
 273   0.0000       1.459640        39.7188 
 274   0.0000       1.463929        39.8355 
 275   0.0000       1.465386        39.8752 
 276   0.0000       1.472338        40.0644 
 277   0.0000       1.473567        40.0978 
 278   0.0000       1.483634        40.3717 
 279   0.0000       1.491694        40.5911 
 280   0.0000       1.497184        40.7404 
 281   0.0000       1.508611        41.0514 
 282   0.0000       1.517725        41.2994 
 283   0.0000       1.523780        41.4642 
 284   0.0000       1.528434        41.5908 
 285   0.0000       1.533047        41.7163 
 286   0.0000       1.535405        41.7805 
 287   0.0000       1.536885        41.8208 
 288   0.0000       1.547161        42.1004 
 289   0.0000       1.555819        42.3360 
 290   0.0000       1.560047        42.4510 
 291   0.0000       1.562013        42.5045 
 292   0.0000       1.564159        42.5629 
 293   0.0000       1.577729        42.9322 
 294   0.0000       1.591364        43.3032 
 295   0.0000       1.596068        43.4312 
 296   0.0000       1.603067        43.6217 
 297   0.0000       1.608815        43.7781 
 298   0.0000       1.620049        44.0838 
 299   0.0000       1.620716        44.1019 
 300   0.0000       1.639023        44.6001 
 301   0.0000       1.654981        45.0343 
 302   0.0000       1.662526        45.2396 
 303   0.0000       1.665823        45.3294 
 304   0.0000       1.674660        45.5698 
 305   0.0000       1.688671        45.9511 
 306   0.0000       1.690664        46.0053 
 307   0.0000       1.698154        46.2091 
 308   0.0000       1.699939        46.2577 
 309   0.0000       1.714861        46.6637 
 310   0.0000       1.727626        47.0111 
 311   0.0000       1.732671        47.1484 
 312   0.0000       1.746832        47.5337 
 313   0.0000       1.764198        48.0063 
 314   0.0000       1.771699        48.2104 
 315   0.0000       1.778923        48.4070 
 316   0.0000       1.795758        48.8651 
 317   0.0000       1.800338        48.9897 
 318   0.0000       1.806082        49.1460 
 319   0.0000       1.818204        49.4758 
 320   0.0000       1.821858        49.5753 
 321   0.0000       1.827189        49.7203 
 322   0.0000       1.835185        49.9379 
 323   0.0000       1.837876        50.0111 
 324   0.0000       1.845428        50.2166 
 325   0.0000       1.862341        50.6769 
 326   0.0000       1.869807        50.8800 
 327   0.0000       1.889010        51.4026 
 328   0.0000       1.910085        51.9760 
 329   0.0000       1.917552        52.1793 
 330   0.0000       1.930427        52.5296 
 331   0.0000       1.932400        52.5833 
 332   0.0000       1.942097        52.8471 
 333   0.0000       1.951427        53.1010 
 334   0.0000       1.957902        53.2772 
 335   0.0000       1.961200        53.3670 
 336   0.0000       1.987813        54.0911 
 337   0.0000       2.007475        54.6262 
 338   0.0000       2.012312        54.7578 
 339   0.0000       2.018159        54.9169 
 340   0.0000       2.029704        55.2311 
 341   0.0000       2.036617        55.4192 
 342   0.0000       2.041069        55.5403 
 343   0.0000       2.065374        56.2017 
 344   0.0000       2.103170        57.2302 
 345   0.0000       2.112126        57.4739 
 346   0.0000       2.130109        57.9632 
 347   0.0000       2.135069        58.0982 
 348   0.0000       2.149013        58.4776 
 349   0.0000       2.159327        58.7583 
 350   0.0000       2.193401        59.6855 
 351   0.0000       2.197041        59.7845 
 352   0.0000       2.220731        60.4292 
 353   0.0000       2.222898        60.4881 
 354   0.0000       2.236426        60.8562 
 355   0.0000       2.256229        61.3951 
 356   0.0000       2.261167        61.5295 
 357   0.0000       2.284526        62.1651 
 358   0.0000       2.294322        62.4317 
 359   0.0000       2.302767        62.6615 
 360   0.0000       2.320016        63.1308 
 361   0.0000       2.330673        63.4208 
 362   0.0000       2.341610        63.7185 
 363   0.0000       2.353531        64.0428 
 364   0.0000       2.366154        64.3863 
 365   0.0000       2.369586        64.4797 
 366   0.0000       2.373699        64.5916 
 367   0.0000       2.390623        65.0522 
 368   0.0000       2.408637        65.5424 
 369   0.0000       2.420273        65.8590 
 370   0.0000       2.450591        66.6840 
 371   0.0000       2.464155        67.0531 
 372   0.0000       2.469496        67.1984 
 373   0.0000       2.481876        67.5353 
 374   0.0000       2.508246        68.2528 
 375   0.0000       2.510656        68.3184 
 376   0.0000       2.517580        68.5068 
 377   0.0000       2.540582        69.1327 
 378   0.0000       2.553133        69.4743 
 379   0.0000       2.563422        69.7543 
 380   0.0000       2.569737        69.9261 
 381   0.0000       2.577866        70.1473 
 382   0.0000       2.583742        70.3072 
 383   0.0000       2.604962        70.8846 
 384   0.0000       2.612119        71.0794 
 385   0.0000       2.615269        71.1651 
 386   0.0000       2.636063        71.7309 
 387   0.0000       2.643707        71.9389 
 388   0.0000       2.657703        72.3198 
 389   0.0000       2.678340        72.8813 
 390   0.0000       2.686237        73.0962 
 391   0.0000       2.696935        73.3873 
 392   0.0000       2.697724        73.4088 
 393   0.0000       2.719615        74.0045 
 394   0.0000       2.737883        74.5016 
 395   0.0000       2.742884        74.6377 
 396   0.0000       2.758188        75.0541 
 397   0.0000       2.761947        75.1564 
 398   0.0000       2.769319        75.3570 
 399   0.0000       2.772754        75.4505 
 400   0.0000       2.780422        75.6591 
 401   0.0000       2.792573        75.9898 
 402   0.0000       2.800311        76.2003 
 403   0.0000       2.804525        76.3150 
 404   0.0000       2.813532        76.5601 
 405   0.0000       2.825596        76.8884 
 406   0.0000       2.833420        77.1013 
 407   0.0000       2.845873        77.4401 
 408   0.0000       2.852303        77.6151 
 409   0.0000       2.881857        78.4193 
 410   0.0000       2.885896        78.5292 
 411   0.0000       2.889007        78.6139 
 412   0.0000       2.898385        78.8691 
 413   0.0000       2.905488        79.0624 
 414   0.0000       2.910192        79.1903 
 415   0.0000       2.920725        79.4770 
 416   0.0000       2.934055        79.8397 
 417   0.0000       2.943025        80.0838 
 418   0.0000       2.952507        80.3418 
 419   0.0000       2.959132        80.5221 
 420   0.0000       2.969116        80.7937 
 421   0.0000       2.975084        80.9562 
 422   0.0000       2.977626        81.0253 
 423   0.0000       2.994951        81.4968 
 424   0.0000       3.003731        81.7357 
 425   0.0000       3.014169        82.0197 
 426   0.0000       3.019069        82.1530 
 427   0.0000       3.030098        82.4532 
 428   0.0000       3.038147        82.6722 
 429   0.0000       3.044121        82.8347 
 430   0.0000       3.049869        82.9912 
 431   0.0000       3.052906        83.0738 
 432   0.0000       3.069011        83.5120 
 433   0.0000       3.075601        83.6913 
 434   0.0000       3.076927        83.7274 
 435   0.0000       3.083226        83.8988 
 436   0.0000       3.090667        84.1013 
 437   0.0000       3.098118        84.3041 
 438   0.0000       3.105390        84.5020 
 439   0.0000       3.114404        84.7472 
 440   0.0000       3.115935        84.7889 
 441   0.0000       3.123739        85.0012 
 442   0.0000       3.139508        85.4304 
 443   0.0000       3.141860        85.4943 
 444   0.0000       3.146497        85.6205 
 445   0.0000       3.155807        85.8739 
 446   0.0000       3.161260        86.0223 
 447   0.0000       3.175709        86.4154 
 448   0.0000       3.180634        86.5494 
 449   0.0000       3.188250        86.7567 
 450   0.0000       3.191532        86.8460 
 451   0.0000       3.193196        86.8913 
 452   0.0000       3.213399        87.4410 
 453   0.0000       3.229671        87.8838 
 454   0.0000       3.231809        87.9420 
 455   0.0000       3.237528        88.0976 
 456   0.0000       3.247236        88.3618 
 457   0.0000       3.252083        88.4937 
 458   0.0000       3.261485        88.7495 
 459   0.0000       3.268996        88.9539 
 460   0.0000       3.274908        89.1148 
 461   0.0000       3.284299        89.3703 
 462   0.0000       3.291815        89.5748 
 463   0.0000       3.296538        89.7034 
 464   0.0000       3.306024        89.9615 
 465   0.0000       3.313645        90.1689 
 466   0.0000       3.316956        90.2589 
 467   0.0000       3.319269        90.3219 
 468   0.0000       3.325772        90.4989 
 469   0.0000       3.328676        90.5779 
 470   0.0000       3.340659        90.9040 
 471   0.0000       3.342413        90.9517 
 472   0.0000       3.345930        91.0474 
 473   0.0000       3.360432        91.4420 
 474   0.0000       3.361450        91.4697 
 475   0.0000       3.372834        91.7795 
 476   0.0000       3.378527        91.9344 
 477   0.0000       3.385095        92.1131 
 478   0.0000       3.391558        92.2890 
 479   0.0000       3.395331        92.3917 
 480   0.0000       3.401048        92.5472 
 481   0.0000       3.407656        92.7270 
 482   0.0000       3.410677        92.8092 
 483   0.0000       3.415493        92.9403 
 484   0.0000       3.422787        93.1388 
 485   0.0000       3.430986        93.3619 
 486   0.0000       3.436868        93.5219 
 487   0.0000       3.438653        93.5705 
 488   0.0000       3.441831        93.6570 
 489   0.0000       3.444479        93.7290 
 490   0.0000       3.451358        93.9162 
 491   0.0000       3.459468        94.1369 
 492   0.0000       3.464408        94.2713 
 493   0.0000       3.469807        94.4183 
 494   0.0000       3.473723        94.5248 
 495   0.0000       3.483608        94.7938 
 496   0.0000       3.488947        94.9391 
 497   0.0000       3.496928        95.1562 
 498   0.0000       3.505913        95.4008 
 499   0.0000       3.511848        95.5622 
 500   0.0000       3.515834        95.6707 
 501   0.0000       3.520568        95.7995 
 502   0.0000       3.524860        95.9163 
 503   0.0000       3.540074        96.3303 
 504   0.0000       3.550129        96.6039 
 505   0.0000       3.555772        96.7575 
 506   0.0000       3.558738        96.8382 
 507   0.0000       3.562743        96.9472 
 508   0.0000       3.575833        97.3034 
 509   0.0000       3.581639        97.4614 
 510   0.0000       3.587794        97.6288 
 511   0.0000       3.591296        97.7241 
 512   0.0000       3.605772        98.1181 
 513   0.0000       3.613487        98.3280 
 514   0.0000       3.621157        98.5367 
 515   0.0000       3.626668        98.6867 
 516   0.0000       3.630758        98.7979 
 517   0.0000       3.638693        99.0139 
 518   0.0000       3.641111        99.0797 
 519   0.0000       3.649425        99.3059 
 520   0.0000       3.657283        99.5197 
 521   0.0000       3.660147        99.5977 
 522   0.0000       3.661526        99.6352 
 523   0.0000       3.670676        99.8842 
 524   0.0000       3.677296       100.0643 
 525   0.0000       3.686664       100.3192 
 526   0.0000       3.688374       100.3658 
 527   0.0000       3.699095       100.6575 
 528   0.0000       3.702942       100.7622 
 529   0.0000       3.713408       101.0470 
 530   0.0000       3.725600       101.3787 
 531   0.0000       3.730340       101.5077 
 532   0.0000       3.732237       101.5593 
 533   0.0000       3.735718       101.6541 
 534   0.0000       3.740015       101.7710 
 535   0.0000       3.751943       102.0956 
 536   0.0000       3.756368       102.2160 
 537   0.0000       3.760267       102.3221 
 538   0.0000       3.775070       102.7249 
 539   0.0000       3.779098       102.8345 
 540   0.0000       3.781347       102.8957 
 541   0.0000       3.786578       103.0380 
 542   0.0000       3.802486       103.4709 
 543   0.0000       3.805942       103.5650 
 544   0.0000       3.811860       103.7260 
 545   0.0000       3.819976       103.9468 
 546   0.0000       3.823414       104.0404 
 547   0.0000       3.831270       104.2542 
 548   0.0000       3.845086       104.6301 
 549   0.0000       3.853520       104.8596 
 550   0.0000       3.857761       104.9750 
 551   0.0000       3.863772       105.1386 
 552   0.0000       3.870173       105.3128 
 553   0.0000       3.877665       105.5166 
 554   0.0000       3.887564       105.7860 
 555   0.0000       3.901959       106.1777 
 556   0.0000       3.910787       106.4179 
 557   0.0000       3.918136       106.6179 
 558   0.0000       3.927819       106.8814 
 559   0.0000       3.934896       107.0740 
 560   0.0000       3.936871       107.1277 
 561   0.0000       3.948790       107.4521 
 562   0.0000       3.957811       107.6975 
 563   0.0000       3.960782       107.7784 
 564   0.0000       3.984354       108.4198 
 565   0.0000       3.994885       108.7064 
 566   0.0000       4.000881       108.8695 
 567   0.0000       4.008951       109.0891 
 568   0.0000       4.013390       109.2099 
 569   0.0000       4.020802       109.4116 
 570   0.0000       4.034025       109.7714 
 571   0.0000       4.037452       109.8647 
 572   0.0000       4.045157       110.0743 
 573   0.0000       4.055255       110.3491 
 574   0.0000       4.058658       110.4417 
 575   0.0000       4.069893       110.7474 
 576   0.0000       4.074335       110.8683 
 577   0.0000       4.081598       111.0659 
 578   0.0000       4.091130       111.3253 
 579   0.0000       4.105298       111.7108 
 580   0.0000       4.114681       111.9662 
 581   0.0000       4.120030       112.1117 
 582   0.0000       4.136097       112.5489 
 583   0.0000       4.144463       112.7766 
 584   0.0000       4.150084       112.9295 
 585   0.0000       4.157138       113.1215 
 586   0.0000       4.159826       113.1946 
 587   0.0000       4.162954       113.2797 
 588   0.0000       4.173744       113.5734 
 589   0.0000       4.177298       113.6701 
 590   0.0000       4.182080       113.8002 
 591   0.0000       4.189161       113.9929 
 592   0.0000       4.193174       114.1021 
 593   0.0000       4.203342       114.3787 
 594   0.0000       4.208942       114.5311 
 595   0.0000       4.215219       114.7019 
 596   0.0000       4.218492       114.7910 
 597   0.0000       4.229496       115.0904 
 598   0.0000       4.237397       115.3054 
 599   0.0000       4.242157       115.4350 
 600   0.0000       4.250824       115.6708 
 601   0.0000       4.259445       115.9054 
 602   0.0000       4.274501       116.3151 
 603   0.0000       4.279458       116.4500 
 604   0.0000       4.290008       116.7371 
 605   0.0000       4.301719       117.0557 
 606   0.0000       4.304151       117.1219 
 607   0.0000       4.322680       117.6261 
 608   0.0000       4.325627       117.7063 
 609   0.0000       4.333327       117.9158 
 610   0.0000       4.338841       118.0659 
 611   0.0000       4.348846       118.3381 
 612   0.0000       4.352065       118.4257 
 613   0.0000       4.355739       118.5257 
 614   0.0000       4.367400       118.8430 
 615   0.0000       4.378423       119.1429 
 616   0.0000       4.383165       119.2720 
 617   0.0000       4.395549       119.6090 
 618   0.0000       4.404584       119.8548 
 619   0.0000       4.411272       120.0368 
 620   0.0000       4.414306       120.1194 
 621   0.0000       4.419048       120.2484 
 622   0.0000       4.433320       120.6368 
 623   0.0000       4.438473       120.7770 
 624   0.0000       4.451824       121.1403 
 625   0.0000       4.458865       121.3319 
 626   0.0000       4.467040       121.5543 
 627   0.0000       4.479426       121.8914 
 628   0.0000       4.487729       122.1173 
 629   0.0000       4.496825       122.3648 
 630   0.0000       4.500598       122.4675 
 631   0.0000       4.508386       122.6794 
 632   0.0000       4.524599       123.1206 
 633   0.0000       4.525474       123.1444 
 634   0.0000       4.538354       123.4949 
 635   0.0000       4.549791       123.8061 
 636   0.0000       4.554982       123.9474 
 637   0.0000       4.565791       124.2415 
 638   0.0000       4.579294       124.6089 
 639   0.0000       4.583994       124.7368 
 640   0.0000       4.587736       124.8386 
 641   0.0000       4.599712       125.1645 
 642   0.0000       4.606170       125.3403 
 643   0.0000       4.612206       125.5045 
 644   0.0000       4.623864       125.8217 
 645   0.0000       4.629063       125.9632 
 646   0.0000       4.639576       126.2493 
 647   0.0000       4.644459       126.3821 
 648   0.0000       4.649452       126.5180 
 649   0.0000       4.656380       126.7065 
 650   0.0000       4.662129       126.8630 
 651   0.0000       4.672002       127.1316 
 652   0.0000       4.681688       127.3952 
 653   0.0000       4.690042       127.6225 
 654   0.0000       4.697134       127.8155 
 655   0.0000       4.707071       128.0859 
 656   0.0000       4.718234       128.3897 
 657   0.0000       4.726185       128.6060 
 658   0.0000       4.735659       128.8638 
 659   0.0000       4.738847       128.9506 
 660   0.0000       4.747027       129.1732 
 661   0.0000       4.760807       129.5481 
 662   0.0000       4.781011       130.0979 
 663   0.0000       4.796038       130.5068 
 664   0.0000       4.820747       131.1792 
 665   0.0000       4.829080       131.4059 
 666   0.0000       4.842082       131.7598 
 667   0.0000       4.856855       132.1618 
 668   0.0000       4.872088       132.5763 
 669   0.0000       4.877256       132.7169 
 670   0.0000       4.902908       133.4149 
 671   0.0000       4.923672       133.9799 
 672   0.0000       4.936842       134.3383 
 673   0.0000       4.946595       134.6037 
 674   0.0000       4.969742       135.2335 
 675   0.0000       4.982614       135.5838 
 676   0.0000       5.015099       136.4678 
 677   0.0000       5.023016       136.6832 
 678   0.0000       5.051351       137.4543 
 679   0.0000       5.057748       137.6283 
 680   0.0000       5.060967       137.7159 
 681   0.0000       5.080461       138.2464 
 682   0.0000       5.098478       138.7366 
 683   0.0000       5.105739       138.9342 
 684   0.0000       5.115852       139.2094 
 685   0.0000       5.122028       139.3775 
 686   0.0000       5.131156       139.6258 
 687   0.0000       5.135904       139.7550 
 688   0.0000       5.140464       139.8791 
 689   0.0000       5.158038       140.3573 
 690   0.0000       5.175065       140.8207 
 691   0.0000       5.183068       141.0385 
 692   0.0000       5.190303       141.2353 
 693   0.0000       5.195715       141.3826 
 694   0.0000       5.209404       141.7551 
 695   0.0000       5.215110       141.9104 
 696   0.0000       5.218167       141.9936 
 697   0.0000       5.225152       142.1836 
 698   0.0000       5.238627       142.5503 
 699   0.0000       5.252599       142.9305 
 700   0.0000       5.274621       143.5297 
 701   0.0000       5.286605       143.8558 
 702   0.0000       5.297967       144.1650 
 703   0.0000       5.319963       144.7635 
 704   0.0000       5.334223       145.1516 
 705   0.0000       5.339189       145.2867 
 706   0.0000       5.351520       145.6223 
 707   0.0000       5.361830       145.9028 
 708   0.0000       5.364796       145.9835 
 709   0.0000       5.377705       146.3348 
 710   0.0000       5.384955       146.5321 
 711   0.0000       5.395779       146.8266 
 712   0.0000       5.426902       147.6735 
 713   0.0000       5.454349       148.4204 
 714   0.0000       5.475670       149.0006 
 715   0.0000       5.487914       149.3337 
 716   0.0000       5.504554       149.7865 
 717   0.0000       5.510595       149.9509 
 718   0.0000       5.514804       150.0654 
 719   0.0000       5.521402       150.2450 
 720   0.0000       5.541785       150.7996 
 721   0.0000       5.563682       151.3955 
 722   0.0000       5.566924       151.4837 
 723   0.0000       5.577268       151.7652 
 724   0.0000       5.586260       152.0099 
 725   0.0000       5.605663       152.5378 
 726   0.0000       5.620196       152.9333 
 727   0.0000       5.624181       153.0418 
 728   0.0000       5.642006       153.5268 
 729   0.0000       5.649530       153.7315 
 730   0.0000       5.661063       154.0454 
 731   0.0000       5.671666       154.3339 
 732   0.0000       5.684518       154.6836 
 733   0.0000       5.703983       155.2133 
 734   0.0000       5.715376       155.5233 
 735   0.0000       5.721514       155.6903 
 736   0.0000       5.733333       156.0119 
 737   0.0000       5.735863       156.0808 
 738   0.0000       5.752292       156.5278 
 739   0.0000       5.756735       156.6487 
 740   0.0000       5.767545       156.9429 
 741   0.0000       5.784545       157.4055 
 742   0.0000       5.796956       157.7432 
 743   0.0000       5.814184       158.2120 
 744   0.0000       5.826562       158.5488 
 745   0.0000       5.838858       158.8834 
 746   0.0000       5.859745       159.4518 
 747   0.0000       5.884051       160.1132 
 748   0.0000       5.920755       161.1119 
 749   0.0000       5.936040       161.5278 
 750   0.0000       5.939911       161.6332 
 751   0.0000       5.970837       162.4747 
 752   0.0000       5.980181       162.7290 
 753   0.0000       5.999697       163.2600 
 754   0.0000       6.016137       163.7074 
 755   0.0000       6.040592       164.3729 
 756   0.0000       6.052693       164.7021 
 757   0.0000       6.060575       164.9166 
 758   0.0000       6.066211       165.0700 
 759   0.0000       6.092825       165.7942 
 760   0.0000       6.096552       165.8956 
 761   0.0000       6.156490       167.5266 
 762   0.0000       6.213650       169.0820 
 763   0.0000       6.231071       169.5561 
 764   0.0000       6.267898       170.5582 
 765   0.0000       6.298529       171.3917 
 766   0.0000       6.302182       171.4911 
 767   0.0000       6.336203       172.4169 
 768   0.0000       6.346495       172.6969 
 769   0.0000       6.360312       173.0729 
 770   0.0000       6.371682       173.3823 
 771   0.0000       6.384665       173.7356 
 772   0.0000       6.408261       174.3776 
 773   0.0000       6.455073       175.6515 
 774   0.0000       6.460631       175.8027 
 775   0.0000       6.468455       176.0156 
 776   0.0000       6.505829       177.0326 
 777   0.0000       6.554688       178.3621 
 778   0.0000       6.584692       179.1786 
 779   0.0000       6.630573       180.4271 
 780   0.0000       6.652248       181.0169 
 781   0.0000       6.669983       181.4995 
 782   0.0000       6.714188       182.7024 
 783   0.0000       6.772546       184.2903 
 784   0.0000       6.795508       184.9152 
 785   0.0000       6.880956       187.2403 
 786   0.0000       6.907921       187.9741 
 787   0.0000       6.920420       188.3142 
 788   0.0000       6.960984       189.4180 
 789   0.0000       7.029189       191.2739 
 790   0.0000       7.045836       191.7270 
 791   0.0000       7.057383       192.0411 
 792   0.0000       7.079895       192.6537 
 793   0.0000       7.111227       193.5063 
 794   0.0000       7.216113       196.3604 
 795   0.0000       7.255053       197.4200 
 796   0.0000       7.280996       198.1260 
 797   0.0000       7.298396       198.5994 
 798   0.0000       7.348075       199.9513 
 799   0.0000       7.382407       200.8855 
 800   0.0000       7.414515       201.7592 
 801   0.0000       7.574406       206.1101 
 802   0.0000       7.586177       206.4304 
 803   0.0000       7.607280       207.0046 
 804   0.0000       7.669465       208.6968 
 805   0.0000       7.817729       212.7312 
 806   0.0000       7.820760       212.8137 
 807   0.0000       7.898824       214.9379 
 808   0.0000       7.931410       215.8246 
 809   0.0000       9.383376       255.3346 
 810   0.0000       9.537514       259.5289 
 811   0.0000      10.659275       290.0536 
 812   0.0000      11.306925       307.6771 
 813   0.0000      11.928419       324.5888 
 814   0.0000      12.562453       341.8417 
 815   0.0000      12.907105       351.2202 
 816   0.0000      13.044518       354.9594 
 817   0.0000      13.103083       356.5530 
 818   0.0000      13.162347       358.1657 
 819   0.0000      13.361335       363.5804 
 820   0.0000      13.567168       369.1814 
 821   0.0000      13.684034       372.3615 
 822   0.0000      13.879174       377.6715 
 823   0.0000      14.080154       383.1405 
 824   0.0000      14.106709       383.8631 
 825   0.0000      14.510089       394.8396 
 826   0.0000      14.606084       397.4518 
 827   0.0000      15.996838       435.2961 

                    ********************************
                    * MULLIKEN POPULATION ANALYSIS *
                    ********************************

-----------------------
MULLIKEN ATOMIC CHARGES
-----------------------
   0 C :   -0.299259
   1 C :    0.049298
   2 O :   -0.367907
   3 C :    0.448063
   4 O :   -0.409675
   5 C :   -0.259227
   6 C :    0.182230
   7 C :   -0.264548
   8 N :   -0.126715
   9 C :    0.210240
  10 S :   -0.439489
  11 N :   -0.215511
  12 C :    0.056230
  13 C :    0.028195
  14 C :   -0.173546
  15 C :   -0.133999
  16 C :   -0.268031
  17 C :    0.303210
  18 O :   -0.359875
  19 C :   -0.234661
  20 H :    0.100005
  21 H :    0.111383
  22 H :    0.105111
  23 H :    0.105960
  24 H :    0.086479
  25 H :    0.128795
  26 H :    0.133832
  27 H :    0.094022
  28 H :    0.200235
  29 H :    0.201324
  30 H :    0.152326
  31 H :    0.152055
  32 H :    0.164644
  33 H :    0.133067
  34 H :    0.241341
  35 H :    0.164399
Sum of atomic charges:   -0.0000000

--------------------------------
MULLIKEN REDUCED ORBITAL CHARGES
--------------------------------
  0 C s       :     3.251362  s :     3.251362
      pz      :     0.946981  p :     2.967511
      px      :     1.025816
      py      :     0.994715
      dz2     :     0.014136  d :     0.075823
      dxz     :     0.013180
      dyz     :     0.023541
      dx2y2   :     0.004226
      dxy     :     0.020740
      f0      :     0.000346  f :     0.004562
      f+1     :     0.000418
      f-1     :     0.001336
      f+2     :     0.000428
      f-2     :     0.001174
      f+3     :     0.000130
      f-3     :     0.000730
  1 C s       :     3.164429  s :     3.164429
      pz      :     0.979964  p :     2.618819
      px      :     0.738816
      py      :     0.900039
      dz2     :     0.026305  d :     0.155730
      dxz     :     0.027732
      dyz     :     0.035250
      dx2y2   :     0.024851
      dxy     :     0.041592
      f0      :     0.001348  f :     0.011724
      f+1     :     0.001476
      f-1     :     0.001712
      f+2     :     0.000937
      f-2     :     0.002187
      f+3     :     0.001989
      f-3     :     0.002075
  2 O s       :     3.720013  s :     3.720013
      pz      :     1.817608  p :     4.612347
      px      :     1.517144
      py      :     1.277595
      dz2     :     0.003777  d :     0.033284
      dxz     :     0.003621
      dyz     :     0.006520
      dx2y2   :     0.012901
      dxy     :     0.006465
      f0      :     0.000298  f :     0.002263
      f+1     :     0.000203
      f-1     :     0.000435
      f+2     :     0.000306
      f-2     :     0.000167
      f+3     :     0.000276
      f-3     :     0.000578
  3 C s       :     3.041937  s :     3.041937
      pz      :     0.820385  p :     2.191733
      px      :     0.645062
      py      :     0.726286
      dz2     :     0.072531  d :     0.291636
      dxz     :     0.051937
      dyz     :     0.091623
      dx2y2   :     0.034214
      dxy     :     0.041330
      f0      :     0.005629  f :     0.026631
      f+1     :     0.003129
      f-1     :     0.006581
      f+2     :     0.004229
      f-2     :     0.002316
      f+3     :     0.002867
      f-3     :     0.001879
  4 O s       :     3.770622  s :     3.770622
      pz      :     1.388827  p :     4.601564
      px      :     1.425132
      py      :     1.787605
      dz2     :     0.013061  d :     0.035072
      dxz     :     0.011081
      dyz     :     0.008076
      dx2y2   :     0.001357
      dxy     :     0.001498
      f0      :     0.000717  f :     0.002417
      f+1     :     0.000555
      f-1     :     0.000656
      f+2     :     0.000200
      f-2     :     0.000247
      f+3     :     0.000016
      f-3     :     0.000026
  5 C s       :     3.201109  s :     3.201109
      pz      :     0.933802  p :     2.965056
      px      :     1.164116
      py      :     0.867138
      dz2     :     0.011748  d :     0.082997
      dxz     :     0.010633
      dyz     :     0.033865
      dx2y2   :     0.007423
      dxy     :     0.019327
      f0      :     0.000961  f :     0.010065
      f+1     :     0.001144
      f-1     :     0.002024
      f+2     :     0.002101
      f-2     :     0.000836
      f+3     :     0.001731
      f-3     :     0.001267
  6 C s       :     3.180521  s :     3.180521
      pz      :     0.831138  p :     2.444991
      px      :     0.789290
      py      :     0.824563
      dz2     :     0.034468  d :     0.177818
      dxz     :     0.020359
      dyz     :     0.047516
      dx2y2   :     0.017672
      dxy     :     0.057802
      f0      :     0.001939  f :     0.014440
      f+1     :     0.001162
      f-1     :     0.002754
      f+2     :     0.002804
      f-2     :     0.002040
      f+3     :     0.002445
      f-3     :     0.001296
  7 C s       :     3.267070  s :     3.267070
      pz      :     0.927932  p :     2.923991
      px      :     1.032279
      py      :     0.963780
      dz2     :     0.015178  d :     0.068833
      dxz     :     0.016097
      dyz     :     0.011396
      dx2y2   :     0.017974
      dxy     :     0.008188
      f0      :     0.000333  f :     0.004653
      f+1     :     0.001049
      f-1     :     0.000842
      f+2     :     0.000830
      f-2     :     0.000633
      f+3     :     0.000168
      f-3     :     0.000798
  8 N s       :     3.344869  s :     3.344869
      pz      :     1.206704  p :     3.717577
      px      :     1.436446
      py      :     1.074427
      dz2     :     0.014447  d :     0.059317
      dxz     :     0.010329
      dyz     :     0.014184
      dx2y2   :     0.012408
      dxy     :     0.007950
      f0      :     0.000621  f :     0.004953
      f+1     :     0.001099
      f-1     :     0.000601
      f+2     :     0.000930
      f-2     :     0.000933
      f+3     :     0.000302
      f-3     :     0.000466
  9 C s       :     3.156461  s :     3.156461
      pz      :     0.781937  p :     2.353458
      px      :     0.729969
      py      :     0.841552
      dz2     :     0.062216  d :     0.262228
      dxz     :     0.031915
      dyz     :     0.055515
      dx2y2   :     0.056413
      dxy     :     0.056169
      f0      :     0.002765  f :     0.017613
      f+1     :     0.002166
      f-1     :     0.002530
      f+2     :     0.003466
      f-2     :     0.001595
      f+3     :     0.002775
      f-3     :     0.002315
 10 S s       :     5.856245  s :     5.856245
      pz      :     3.441566  p :    10.488251
      px      :     3.545680
      py      :     3.501005
      dz2     :     0.011136  d :     0.084871
      dxz     :     0.012969
      dyz     :     0.032947
      dx2y2   :     0.007231
      dxy     :     0.020588
      f0      :     0.001078  f :     0.010123
      f+1     :     0.000622
      f-1     :     0.002079
      f+2     :     0.001469
      f-2     :     0.002993
      f+3     :     0.001118
      f-3     :     0.000765
 11 N s       :     3.388541  s :     3.388541
      pz      :     1.317189  p :     3.764491
      px      :     1.438673
      py      :     1.008629
      dz2     :     0.008538  d :     0.058035
      dxz     :     0.007623
      dyz     :     0.015290
      dx2y2   :     0.011629
      dxy     :     0.014955
      f0      :     0.000354  f :     0.004445
      f+1     :     0.000576
      f-1     :     0.000594
      f+2     :     0.000689
      f-2     :     0.000642
      f+3     :     0.000800
      f-3     :     0.000791
 12 C s       :     3.132098  s :     3.132098
      pz      :     0.832360  p :     2.615790
      px      :     0.933149
      py      :     0.850281
      dz2     :     0.033265  d :     0.184486
      dxz     :     0.035622
      dyz     :     0.038538
      dx2y2   :     0.027739
      dxy     :     0.049322
      f0      :     0.001188  f :     0.011396
      f+1     :     0.001274
      f-1     :     0.001818
      f+2     :     0.001977
      f-2     :     0.002655
      f+3     :     0.001141
      f-3     :     0.001342
 13 C s       :     3.121208  s :     3.121208
      pz      :     0.887153  p :     2.728414
      px      :     0.925684
      py      :     0.915576
      dz2     :     0.016407  d :     0.110787
      dxz     :     0.016639
      dyz     :     0.026342
      dx2y2   :     0.024281
      dxy     :     0.027118
      f0      :     0.000985  f :     0.011396
      f+1     :     0.001484
      f-1     :     0.001263
[...]
      f-1     :     0.004843
      f+2     :     0.007553
      f-2     :     0.005341
      f+3     :     0.006271
      f-3     :     0.008733
 15 C s       :     2.705444  s :     2.705444
      pz      :     0.890897  p :     2.792166
      px      :     0.949764
      py      :     0.951504
      dz2     :     0.083107  d :     0.416251
      dxz     :     0.078125
      dyz     :     0.054737
      dx2y2   :     0.101652
      dxy     :     0.098629
      f0      :     0.003665  f :     0.041086
      f+1     :     0.005407
      f-1     :     0.004966
      f+2     :     0.007572
      f-2     :     0.005571
      f+3     :     0.007575
      f-3     :     0.006329
 16 C s       :     2.701596  s :     2.701596
      pz      :     0.931535  p :     2.867550
      px      :     0.970378
      py      :     0.965637
      dz2     :     0.039546  d :     0.390314
      dxz     :     0.067472
      dyz     :     0.075852
      dx2y2   :     0.097125
      dxy     :     0.110320
      f0      :     0.003509  f :     0.040306
      f+1     :     0.005112
      f-1     :     0.003946
      f+2     :     0.005878
      f-2     :     0.004956
      f+3     :     0.008329
      f-3     :     0.008576
 17 C s       :     2.701449  s :     2.701449
      pz      :     0.863438  p :     2.682000
      px      :     0.820817
      py      :     0.997744
      dz2     :     0.119302  d :     0.708843
      dxz     :     0.121629
      dyz     :     0.120289
      dx2y2   :     0.174545
      dxy     :     0.173078
      f0      :     0.008147  f :     0.099252
      f+1     :     0.016662
      f-1     :     0.008156
      f+2     :     0.015911
      f-2     :     0.013048
      f+3     :     0.017466
      f-3     :     0.019861
 18 O s       :     3.177173  s :     3.177173
      pz      :     1.444958  p :     4.346087
      px      :     1.387637
      py      :     1.513492
      dz2     :     0.007587  d :     0.075506
      dxz     :     0.017208
      dyz     :     0.016399
      dx2y2   :     0.017706
      dxy     :     0.016605
      f0      :     0.000545  f :     0.005063
      f+1     :     0.000737
      f-1     :     0.000423
      f+2     :     0.000638
      f-2     :     0.000877
      f+3     :     0.000809
      f-3     :     0.001035
 19 C s       :     2.694983  s :     2.694983
      pz      :     0.927267  p :     2.844909
      px      :     0.960278
      py      :     0.957364
      dz2     :     0.069266  d :     0.388097
      dxz     :     0.073870
      dyz     :     0.056290
      dx2y2   :     0.090469
      dxy     :     0.098202
      f0      :     0.003573  f :     0.040817
      f+1     :     0.005428
      f-1     :     0.004773
      f+2     :     0.007525
      f-2     :     0.006141
      f+3     :     0.007273
      f-3     :     0.006103
 20 H s       :     0.848319  s :     0.848319
      pz      :     0.043692  p :     0.152379
      px      :     0.058985
      py      :     0.049702
      dz2     :     0.003427  d :     0.027710
      dxz     :     0.005691
      dyz     :     0.004100
      dx2y2   :     0.007503
      dxy     :     0.006988
 21 H s       :     0.847522  s :     0.847522
      pz      :     0.040068  p :     0.151504
      px      :     0.059177
      py      :     0.052258
      dz2     :     0.002684  d :     0.027462
      dxz     :     0.005139
      dyz     :     0.004107
      dx2y2   :     0.008540
      dxy     :     0.006994
 22 H s       :     0.843197  s :     0.843197
      pz      :     0.061154  p :     0.156058
      px      :     0.041658
      py      :     0.053246
      dz2     :     0.007941  d :     0.027937
      dxz     :     0.005341
      dyz     :     0.006744
      dx2y2   :     0.003273
      dxy     :     0.004638
 23 H s       :     0.856842  s :     0.856842
      pz      :     0.065007  p :     0.144789
      px      :     0.027718
      py      :     0.052064
      dz2     :     0.008913  d :     0.026870
      dxz     :     0.003645
      dyz     :     0.007792
      dx2y2   :     0.002827
      dxy     :     0.003694
 24 H s       :     0.855357  s :     0.855357
      pz      :     0.043242  p :     0.145994
      px      :     0.054507
      py      :     0.048246
      dz2     :     0.003264  d :     0.027231
      dxz     :     0.005519
      dyz     :     0.004796
      dx2y2   :     0.006265
      dxy     :     0.007387
 25 H s       :     0.827373  s :     0.827373
      pz      :     0.040549  p :     0.150205
      px      :     0.067038
      py      :     0.042618
      dz2     :     0.002942  d :     0.027784
      dxz     :     0.007953
      dyz     :     0.001697
      dx2y2   :     0.008272
      dxy     :     0.006921
 26 H s       :     0.824597  s :     0.824597
      pz      :     0.062413  p :     0.151775
      px      :     0.050833
      py      :     0.038529
      dz2     :     0.008411  d :     0.027762
      dxz     :     0.007040
      dyz     :     0.005907
      dx2y2   :     0.003564
      dxy     :     0.002840
 27 H s       :     0.845195  s :     0.845195
      pz      :     0.037356  p :     0.150529
      px      :     0.041726
      py      :     0.071447
      dz2     :     0.002705  d :     0.027727
      dxz     :     0.000667
      dyz     :     0.008309
      dx2y2   :     0.006799
      dxy     :     0.009248
 28 H s       :     0.741404  s :     0.741404
      pz      :     0.057246  p :     0.253387
      px      :     0.075926
      py      :     0.120215
      dz2     :     0.005933  d :     0.061792
      dxz     :     0.000606
      dyz     :     0.018320
      dx2y2   :     0.015534
      dxy     :     0.021400
 29 H s       :     0.748460  s :     0.748460
      pz      :     0.112771  p :     0.254081
      px      :     0.096040
      py      :     0.045269
      dz2     :     0.021041  d :     0.061447
      dxz     :     0.015171
      dyz     :     0.010984
      dx2y2   :     0.007782
      dxy     :     0.006468
 30 H s       :     0.829166  s :     0.829166
      pz      :     0.044142  p :     0.153641
      px      :     0.062860
      py      :     0.046639
      dz2     :     0.003857  d :     0.029361
      dxz     :     0.007263
      dyz     :     0.004044
      dx2y2   :     0.007022
      dxy     :     0.007175
 31 H s       :     0.843991  s :     0.843991
      pz      :     0.049171  p :     0.157272
      px      :     0.070075
      py      :     0.038026
      dz2     :     0.004279  d :     0.027524
      dxz     :     0.007172
      dyz     :     0.002355
      dx2y2   :     0.006752
      dxy     :     0.006966
 32 H s       :     0.842601  s :     0.842601
      pz      :     0.039143  p :     0.151450
      px      :     0.041153
      py      :     0.071154
      dz2     :     0.002939  d :     0.026471
      dxz     :     0.001488
      dyz     :     0.006766
      dx2y2   :     0.007546
      dxy     :     0.007732
 33 H s       :     0.848080  s :     0.848080
      pz      :     0.060011  p :     0.158963
      px      :     0.046718
      py      :     0.052233
      dz2     :     0.006393  d :     0.027745
      dxz     :     0.005032
      dyz     :     0.006050
      dx2y2   :     0.005355
      dxy     :     0.004915
 34 H s       :     0.706062  s :     0.706062
      pz      :     0.122871  p :     0.347506
      px      :     0.081144
      py      :     0.143491
      dz2     :     0.026060  d :     0.099511
      dxz     :     0.013182
      dyz     :     0.024045
      dx2y2   :     0.018650
      dxy     :     0.017573
 35 H s       :     0.838685  s :     0.838685
      pz      :     0.041429  p :     0.156975
      px      :     0.042149
      py      :     0.073397
      dz2     :     0.002987  d :     0.027937
      dxz     :     0.001547
      dyz     :     0.007379
      dx2y2   :     0.008061
      dxy     :     0.007963


                      *****************************
                      * MAYER POPULATION ANALYSIS *
                      *****************************

  NA   - Mulliken gross atomic population
  ZA   - Total nuclear charge
  QA   - Mulliken gross atomic charge
  VA   - Mayer's total valence
  BVA  - Mayer's bonded valence
  FA   - Mayer's free valence

  ATOM       NA         ZA         QA         VA         BVA        FA
  0 C      6.2993     6.0000    -0.2993     3.8756     3.8756    -0.0000
  1 C      5.9507     6.0000     0.0493     3.8689     3.8689     0.0000
  2 O      8.3679     8.0000    -0.3679     2.0177     2.0177     0.0000
  3 C      5.5519     6.0000     0.4481     4.2663     4.2663    -0.0000
  4 O      8.4097     8.0000    -0.4097     2.0992     2.0992     0.0000
  5 C      6.2592     6.0000    -0.2592     3.6542     3.6542    -0.0000
  6 C      5.8178     6.0000     0.1822     3.8246     3.8246    -0.0000
  7 C      6.2645     6.0000    -0.2645     3.9053     3.9053    -0.0000
  8 N      7.1267     7.0000    -0.1267     3.3092     3.3092    -0.0000
  9 C      5.7898     6.0000     0.2102     4.1545     4.1545     0.0000
 10 S     16.4395    16.0000    -0.4395     1.7568     1.7568    -0.0000
 11 N      7.2155     7.0000    -0.2155     3.2360     3.2360    -0.0000
 12 C      5.9438     6.0000     0.0562     3.9139     3.9139    -0.0000
 13 C      5.9718     6.0000     0.0282     3.7408     3.7408     0.0000
 14 C      6.1735     6.0000    -0.1735     3.8349     3.8349    -0.0000
 15 C      6.1340     6.0000    -0.1340     3.7915     3.7915    -0.0000
 16 C      6.2680     6.0000    -0.2680     3.7882     3.7882    -0.0000
 17 C      5.6968     6.0000     0.3032     3.8687     3.8687     0.0000
 18 O      8.3599     8.0000    -0.3599     2.1156     2.1156    -0.0000
 19 C      6.2347     6.0000    -0.2347     3.8333     3.8333    -0.0000
 20 H      0.9000     1.0000     0.1000     0.9858     0.9858     0.0000
 21 H      0.8886     1.0000     0.1114     0.9825     0.9825    -0.0000
 22 H      0.8949     1.0000     0.1051     0.9807     0.9807     0.0000
 23 H      0.8940     1.0000     0.1060     0.9803     0.9803     0.0000
 24 H      0.9135     1.0000     0.0865     0.9852     0.9852     0.0000
 25 H      0.8712     1.0000     0.1288     0.9807     0.9807     0.0000
 26 H      0.8662     1.0000     0.1338     0.9797     0.9797     0.0000
 27 H      0.9060     1.0000     0.0940     0.9848     0.9848     0.0000
 28 H      0.7998     1.0000     0.2002     1.0205     1.0205    -0.0000
 29 H      0.7987     1.0000     0.2013     1.0149     1.0149    -0.0000
 30 H      0.8477     1.0000     0.1523     0.9847     0.9847    -0.0000
 31 H      0.8479     1.0000     0.1521     0.9860     0.9860    -0.0000
 32 H      0.8354     1.0000     0.1646     0.9762     0.9762    -0.0000
 33 H      0.8669     1.0000     0.1331     0.9905     0.9905    -0.0000
 34 H      0.7587     1.0000     0.2413     1.0102     1.0102    -0.0000
 35 H      0.8356     1.0000     0.1644     0.9898     0.9898    -0.0000

  Mayer bond orders larger than 0.100000
B(  0-C ,  1-C ) :   0.9727 B(  0-C , 20-H ) :   0.9729 B(  0-C , 21-H ) :   0.9794 
B(  0-C , 22-H ) :   0.9740 B(  1-C ,  2-O ) :   0.8948 B(  1-C , 23-H ) :   0.9883 
B(  1-C , 24-H ) :   0.9720 B(  2-O ,  3-C ) :   1.1168 B(  3-C ,  4-O ) :   2.0178 
B(  3-C ,  5-C ) :   1.0696 B(  5-C ,  6-C ) :   1.6141 B(  5-C , 12-C ) :   0.9627 
B(  6-C ,  7-C ) :   0.9661 B(  6-C ,  8-N ) :   1.1541 B(  7-C , 25-H ) :   0.9645 
B(  7-C , 26-H ) :   0.9554 B(  7-C , 27-H ) :   0.9893 B(  8-N ,  9-C ) :   1.1858 
B(  8-N , 28-H ) :   0.9467 B(  9-C , 10-S ) :   1.6075 B(  9-C , 11-N ) :   1.3101 
B( 11-N , 12-C ) :   0.9603 B( 11-N , 29-H ) :   0.9485 B( 12-C , 13-C ) :   0.9620 
B( 12-C , 30-H ) :   1.0044 B( 13-C , 14-C ) :   1.3526 B( 13-C , 19-C ) :   1.3739 
B( 14-C , 15-C ) :   1.3860 B( 14-C , 31-H ) :   0.9734 B( 15-C , 16-C ) :   1.3591 
B( 15-C , 32-H ) :   0.9703 B( 16-C , 17-C ) :   1.3335 B( 16-C , 33-H ) :   0.9842 
B( 17-C , 18-O ) :   1.1052 B( 17-C , 19-C ) :   1.3646 B( 18-O , 34-H ) :   0.9791 
B( 19-C , 35-H ) :   0.9605 

-------
TIMINGS
-------

Total SCF time: 0 days 1 hours 33 min 20 sec 

Total time                  ....    5600.594 sec
Sum of individual times     ....    5592.347 sec  ( 99.9%)

Fock matrix formation       ....    5567.384 sec  ( 99.4%)
Diagonalization             ....       5.046 sec  (  0.1%)
Density matrix formation    ....       0.196 sec  (  0.0%)
Population analysis         ....       0.603 sec  (  0.0%)
Initial guess               ....       4.793 sec  (  0.1%)
Orbital Transformation      ....       0.000 sec  (  0.0%)
Orbital Orthonormalization  ....       0.000 sec  (  0.0%)
DIIS solution               ....       8.239 sec  (  0.1%)
SOSCF solution              ....       4.993 sec  (  0.1%)

------------------------------------------------------------------------------
                                ORCA  MP2 
------------------------------------------------------------------------------

Freezing NCore=48 chemical core electrons

-------------
RI-MP2 ENERGY
-------------
Dimension of the basis                    ...  828
Memory devoted to MP2                     ...  256 MB   
Data format for buffers                   ... DOUBLE
Compression type for matrix containers    ... UNCOMPRESSED
Overall scaling of the MP2 energy         ...   1.000e+00
Calculating two index integrals           ... done (    0.032 sec)
Cholesky decomposition of V**-1           ... done (    1.592 sec)

-----------------
RI-TRANSFORMATION (AUX index driven)
-----------------

Dimension of the orbital-basis         ... 828
Dimension of the aux-basis             ... 2141
Transformation of internal/external MOs...   24-  76 to   77- 827
Number Format for Storage              ... Double (8 Byte)
Integral mode                          ... Direct

First Phase: integral generation and transformation of MO indices
  Aux angular momentum 0               ... done (    9.117 sec)
  Aux angular momentum 1               ... done (   15.223 sec)
  Aux angular momentum 2               ... done (   19.468 sec)
  Aux angular momentum 3               ... done (   15.903 sec)
  Aux angular momentum 4               ... done (    5.529 sec)
Closing buffer VIA ( 0.63 GB; CompressionRatio= 1.00)
  Phase 1 completed in    65.521 sec
Second Phase: sorting and transformation of aux index

IA-Transformation
Memory available                       ... 167 MB 
Max. # MO pairs treated in a batch     ... 12    
# of internal orbitals                 ... 53
# batches for internal orbitals        ... 5
Closing buffer IAV ( 0.63 GB; CompressionRatio= 1.00)
(ia|v) transformation done in    63.106 sec

  Phase 2 completed in    63.111 sec
RI-Integral transformation completed in   128.688 sec
Opening buffers                              ... done

Starting loop over batches of integrals:

Operator 0  - window                       ... ( 24- 76)x( 77-827)
Operator 0  - Memory available             ...   256 MB
Operator 0  - Memory needed per MO         ...  12.3 MB
Operator 0  - Number of orbitals per batch ... 13
Operator 0  - Number of batches            ... 5

OPERATOR  0   PASS   0:  MOs    24 ...   36
  Reading integrals       ... ok
  Internal MO  26
  Internal MO  29
  Internal MO  32
  Internal MO  35
OPERATOR  0   PASS   1:  MOs    37 ...   49
  Reading integrals       ... ok
  Internal MO  38
  Internal MO  41
  Internal MO  44
  Internal MO  47
OPERATOR  0   PASS   2:  MOs    50 ...   62
  Reading integrals       ... ok
  Internal MO  50
  Internal MO  53
  Internal MO  56
  Internal MO  59
  Internal MO  62
OPERATOR  0   PASS   3:  MOs    63 ...   75
  Reading integrals       ... ok
  Internal MO  65
  Internal MO  68
  Internal MO  71
  Internal MO  74
OPERATOR  0   PASS   4:  MOs    76 ...   76
  Reading integrals       ... ok
Time spent in pair loops =   411.611 sec
Deleting buffer (Ka|jb)[aa] ...done

-----------------------------------------------
 RI-MP2 CORRELATION ENERGY:     -3.533463864 Eh
-----------------------------------------------


-------
TIMINGS
-------

Total time                :  542.036 sec
Integral trafo            :  128.709 sec ( 23.7%)
I/O of integrals          :    5.144 sec (  0.9%)
K(i,j) Operators          :  374.659 sec ( 69.1%)
T(i,j) pair energies      :    3.653 sec (  0.7%)
V-calculation             :    0.032 sec (  0.0%)
V**(-1/2)                 :    1.592 sec (  0.3%)
Gamma(ia|P)               :    0.000 sec (  0.0%)
Gamma-Trafo               :    0.000 sec (  0.0%)
D(virtual)                :    0.000 sec (  0.0%)
D(internal)               :    0.000 sec (  0.0%)
W(virtual)                :    0.000 sec (  0.0%)
W(internal)               :    0.000 sec (  0.0%)
L(virtual)                :    0.000 sec (  0.0%)
L(internal)               :    0.000 sec (  0.0%)
G(D)                      :    0.000 sec (  0.0%)
G(Z)                      :    0.000 sec (  0.0%)
Z-Vector Solution         :    0.000 sec (  0.0%)
3-Index Derivative        :    0.000 sec (  0.0%)
2-Index Derivative        :    0.000 sec (  0.0%)
Separable Gradient        :    0.000 sec (  0.0%)


---------------------------------------
MP2 TOTAL ENERGY:    -1274.329851349 Eh
---------------------------------------

-------------------------   --------------------
FINAL SINGLE POINT ENERGY     -1274.329851349139
-------------------------   --------------------


                            ***************************************
                            *     ORCA property calculations      *
                            ***************************************


  WARNING: The energy has been calculated at the MP2 level but the densities
           used in the property calculations are still SCF densities
           MP2 response densities have not been calculated 
           use %mp2 Density relaxed end
           or  %mp2 Density unrelaxed end

                                    ---------------------
                                    Active property flags
                                    ---------------------
   (+) Dipole Moment


------------------------------------------------------------------------------
                       ORCA ELECTRIC PROPERTIES CALCULATION
------------------------------------------------------------------------------

Dipole Moment Calculation                       ... on
Quadrupole Moment Calculation                   ... off
Polarizability Calculation                      ... off
GBWName                                         ... CONFS/Conf149.orca.gbw
Electron density file                           ... CONFS/Conf149.orca.scfp
The origin for moment calculation is the CENTER OF MASS  = (31.780073, 33.130197 33.249887)

-------------
DIPOLE MOMENT
-------------
                                X             Y             Z
Electronic contribution:      7.93857      11.16610       5.45179
Nuclear contribution   :     -9.00105     -12.76501      -5.42821
                        -----------------------------------------
Total Dipole Moment    :     -1.06248      -1.59892       0.02358
                        -----------------------------------------
Magnitude (a.u.)       :      1.91988
Magnitude (Debye)      :      4.87996



--------------------
Rotational spectrum 
--------------------
 
Rotational constants in cm-1:     0.012337     0.008708     0.006071 
Rotational constants in MHz :   369.841774   261.052346   182.010384 

 Dipole components along the rotational axes: 
x,y,z [a.u.] :    -1.886745    -0.246342     0.255854 
x,y,z [Debye]:    -4.795724    -0.626153     0.650329 

 

Timings for individual modules:

Sum of individual times         ...     6144.930 sec (= 102.416 min)
GTO integral calculation        ...        1.100 sec (=   0.018 min)   0.0 %
SCF iterations                  ...     5600.727 sec (=  93.345 min)  91.1 %
MP2 module                      ...      543.103 sec (=   9.052 min)   8.8 %
                             ****ORCA TERMINATED NORMALLY****
TOTAL RUN TIME: 0 days 1 hours 42 minutes 26 seconds 451 msec
