
                                 *****************
                                 * O   R   C   A *
                                 *****************

           --- An Ab Initio, DFT and Semiempirical electronic structure package ---

                  #######################################################
                  #                        -***-                        #
                  #          Department of theory and spectroscopy      #
                  #               Directorship: Frank Neese             #
                  #        Max Planck Institute fuer Kohlenforschung    #
                  #                Kaiser Wilhelm Platz 1               #
                  #                 D-45470 Muelheim/Ruhr               #
                  #                      Germany                        #
                  #                                                     #
                  #                  All rights reserved                #
                  #                        -***-                        #
                  #######################################################


                         Program Version 4.2.0 -  RELEASE  -


 With contributions from (in alphabetic order):
   Daniel Aravena         : Magnetic Suceptibility
   Michael Atanasov       : Ab Initio Ligand Field Theory (pilot matlab implementation)
   Alexander A. Auer      : GIAO ZORA, VPT2
   Ute Becker             : Parallelization
   Giovanni Bistoni       : ED, misc. LED, open-shell LED, HFLED
   Martin Brehm           : Molecular dynamics
   Dmytro Bykov           : SCF Hessian
   Vijay G. Chilkuri      : MRCI spin determinant printing, contributions to CSF-ICE
   Dipayan Datta          : RHF DLPNO-CCSD density
   Achintya Kumar Dutta   : EOM-CC, STEOM-CC
   Dmitry Ganyushin       : Spin-Orbit,Spin-Spin,Magnetic field MRCI
   Miquel Garcia          : C-PCM Hessian, Gaussian charge scheme
   Yang Guo               : DLPNO-NEVPT2, CIM, IAO-localization
   Andreas Hansen         : Spin unrestricted coupled pair/coupled cluster methods
   Benjamin Helmich-Paris : CASSCF linear response (MC-RPA)
   Lee Huntington         : MR-EOM, pCC
   Robert Izsak           : Overlap fitted RIJCOSX, COSX-SCS-MP3, EOM
   Christian Kollmar      : KDIIS, OOCD, Brueckner-CCSD(T), CCSD density
   Simone Kossmann        : Meta GGA functionals, TD-DFT gradient, OOMP2, MP2 Hessian
   Martin Krupicka        : AUTO-CI
   Lucas Lang             : DCDCAS
   Dagmar Lenk            : GEPOL surface, SMD
   Dimitrios Liakos       : Extrapolation schemes; Compound Job, initial MDCI parallelization
   Dimitrios Manganas     : Further ROCIS development; embedding schemes
   Dimitrios Pantazis     : SARC Basis sets
   Taras Petrenko         : DFT Hessian,TD-DFT gradient, ASA, ECA, R-Raman, ABS, FL, XAS/XES, NRVS
   Peter Pinski           : DLPNO-MP2, DLPNO-MP2 Gradient
   Christoph Reimann      : Effective Core Potentials
   Marius Retegan         : Local ZFS, SOC
   Christoph Riplinger    : Optimizer, TS searches, QM/MM, DLPNO-CCSD(T), (RO)-DLPNO pert. Triples
   Tobias Risthaus        : Range-separated hybrids, TD-DFT gradient, RPA, STAB
   Michael Roemelt        : Original ROCIS implementation
   Masaaki Saitow         : Open-shell DLPNO-CCSD energy and density
   Barbara Sandhoefer     : DKH picture change effects
   Avijit Sen             : IP-ROCIS
   Kantharuban Sivalingam : CASSCF convergence, NEVPT2, FIC-MRCI
   Bernardo de Souza      : ESD, SOC TD-DFT
   Georgi Stoychev        : AutoAux, RI-MP2 NMR
   Willem Van den Heuvel  : Paramagnetic NMR
   Boris Wezisla          : Elementary symmetry handling
   Frank Wennmohs         : Technical directorship


 We gratefully acknowledge several colleagues who have allowed us to
 interface, adapt or use parts of their codes:
   Stefan Grimme, W. Hujo, H. Kruse,             : VdW corrections, initial TS optimization,
                  C. Bannwarth                     DFT functionals, gCP, sTDA/sTD-DF
   Ed Valeev, F. Pavosevic, A. Kumar             : LibInt (2-el integral package), F12 methods
   Garnet Chan, S. Sharma, J. Yang, R. Olivares  : DMRG
   Ulf Ekstrom                                   : XCFun DFT Library
   Mihaly Kallay                                 : mrcc  (arbitrary order and MRCC methods)
   Andreas Klamt, Michael Diedenhofen            : otool_cosmo (COSMO solvation model)
   Jiri Pittner, Ondrej Demel                    : Mk-CCSD
   Frank Weinhold                                : gennbo (NPA and NBO analysis)
   Christopher J. Cramer and Donald G. Truhlar   : smd solvation model
   Lars Goerigk                                  : TD-DFT with DH, B97 family of functionals
   V. Asgeirsson, H. Jonsson                     : NEB implementation
   FAccTs GmbH                                   : IRC, NEB, NEB-TS, Multilevel, MM, QM/MM, CI optimization
   S Lehtola, MJT Oliveira, MAL Marques          : LibXC Library


 Your calculation uses the libint2 library for the computation of 2-el integrals
 For citations please refer to: http://libint.valeyev.net

 Your ORCA version has been built with support for libXC version: 4.2.3
 For citations please refer to: https://tddft.org/programs/libxc/

 This ORCA versions uses:
   CBLAS   interface :  Fast vector & matrix operations
   LAPACKE interface :  Fast linear algebra routines
   SCALAPACK package :  Parallel linear algebra routines


----- Orbital basis set information -----
Your calculation utilizes the basis: cc-pVTZ 
       H, B-Ne : Obtained from the ccRepo (grant-hill.group.shef.ac.uk/ccrepo) Feb. 2017
                 T. H. Dunning, Jr., J. Chem. Phys. 90, 1007 (1989)
            He : Obtained from the ccRepo (grant-hill.group.shef.ac.uk/ccrepo) Feb. 2017
                 D. E. Woon, T. H. Dunning, Jr., J. Chem. Phys. 100, 2975 (1994)
  Li-Be, Na-Mg : Obtained from the ccRepo (grant-hill.group.shef.ac.uk/ccrepo) Feb. 2017
                 B. P. Prascher, D. E. Woon, K. A. Peterson, T. H. Dunning, Jr., A. K. Wilson, Theor. Chem. Acc. 128, 69 (2011)
         Al-Ar : Obtained from the ccRepo (grant-hill.group.shef.ac.uk/ccrepo) Feb. 2017
                 D. E. Woon, T. H. Dunning, Jr., J. Chem. Phys. 98, 1358 (1993)
            Ca : Obtained from the Peterson Research Group Website (tyr0.chem.wsu.edu/~kipeters) Feb. 2017
                 J. Koput, K. A. Peterson, J. Phys. Chem. 106, 9595 (2002)
         Sc-Zn : Obtained from the ccRepo (grant-hill.group.shef.ac.uk/ccrepo) Feb. 2017
                 N. B. Balabanov, K. A. Peterson, J. Chem. Phys. 123, 064107 (2005)
                 N. B. Balabanov, K. A. Peterson, J. Chem. Phys. 125, 074110 (2006)
         Ga-Kr : Obtained from the ccRepo (grant-hill.group.shef.ac.uk/ccrepo) Feb. 2017
                 A. K. Wilson, D. E. Woon, K. A. Peterson, T. H. Dunning, Jr., J. Chem. Phys. 110, 7667 (1999)
             Y : Obtained from the ccRepo (grant-hill.group.shef.ac.uk/ccrepo) Feb. 2017
                 K. A. Peterson, D. Figgen, M. Dolg, H. Stoll, J. Chem. Phys. 126, 124101 (2007)
        Ag, Au : Obtained from the Peterson Research Group Website (tyr0.chem.wsu.edu/~kipeters) Feb. 2017
                 K. A. Peterson, C. Puzzarini, Theor. Chem. Acc. 114, 283 (2005)

----- AuxC basis set information -----
Your calculation utilizes the auxiliary basis: cc-pVTZ/C 
  Obtained from the EMSL Basis Set Exchange (bse.pnl.gov) Feb. 2017
  H-He, B-F, Al-Ar, Ga-Kr : F. Weigend, A. Kohn, C. Hattig, J. Chem. Phys. 116, 3175 (2002)
             Li-Be, Na-Mg : C. Haettig, Phys. Chem. Chem. Phys. 7, 59 (2005)
                       Ne : C. Haettig, Phys. Chem. Chem. Phys. 7, 59 (2005)
                            F. Weigend, A. Kohn, C. Hattig, J. Chem. Phys. 116, 3175 (2002)
                    Sc-Zn : J. G. Hill, J. A. Platts, J. Chem. Phys. 128, 044104 (2008)

================================================================================
                                        WARNINGS
                       Please study these warnings very carefully!
================================================================================


WARNING: No MP2 level density has been requested!
         To caclulate MP2 level properties use
         %mp2 Density relaxed end
         or
         %mp2 Density unrelaxed end

WARNING: Post HF methods need fully converged wavefunctions
  ===> : Setting SCFConvForced true
         You can overwrite this default with %scf ConvForced false 


INFO   : the flag for use of LIBINT has been found!

================================================================================
                                       INPUT FILE
================================================================================
NAME = CONFS/Conf770.orca
|  1> ! ri-mp2 cc-pvtz cc-pvtz/c TightSCF NoKeepInts
|  2> 
|  3> %scf
|  4>   MaxCore 4096
|  5> end
|  6> *xyz  0  1
|  7>     C       14.9430098   14.5938602   14.3907212
|  8>     C       15.1856427   15.2158090   15.7771724
|  9>     O       16.3075538   16.1080257   15.6745194
| 10>     C       16.0579848   17.4473073   15.6046415
| 11>     O       15.2348975   17.9027447   14.8298468
| 12>     C       16.7838360   18.2338609   16.6626277
| 13>     C       16.8393396   19.5892721   16.6051193
| 14>     C       16.0304762   20.5008425   15.7055646
| 15>     N       17.7193045   20.3085458   17.4170235
| 16>     C       18.7079256   19.7442951   18.1769297
| 17>     S       19.7775068   20.6607733   19.0439055
| 18>     N       18.7802929   18.3743222   18.1657644
| 19>     C       17.8123527   17.4713842   17.5150314
| 20>     C       17.1986332   16.4717459   18.4867146
| 21>     C       17.5883067   15.1199092   18.4626768
| 22>     C       17.0159555   14.1965290   19.3536768
| 23>     C       16.0496113   14.6298995   20.2777214
| 24>     C       15.6646292   15.9775278   20.3073632
| 25>     O       14.7325484   16.3987609   21.1986867
| 26>     C       16.2349864   16.8938144   19.4182126
| 27>     H       14.6867323   15.3706080   13.6588621
| 28>     H       14.1156438   13.8752329   14.4302443
| 29>     H       15.8396613   14.0691319   14.0386404
| 30>     H       14.2867360   15.7405153   16.1298464
| 31>     H       15.4187862   14.4172816   16.4933868
| 32>     H       14.9570194   20.3023214   15.8196280
| 33>     H       16.2848033   20.3295509   14.6517373
| 34>     H       16.1897335   21.5650261   15.9156416
| 35>     H       17.6917006   21.3156817   17.4162205
| 36>     H       19.5009008   17.9862289   18.7612276
| 37>     H       18.4702426   16.9594942   16.7981963
| 38>     H       18.3317610   14.7833049   17.7447318
| 39>     H       17.3222995   13.1520764   19.3274865
| 40>     H       15.6056800   13.9208780   20.9689168
| 41>     H       14.4911214   15.6394030   21.7502051
| 42>     H       15.9293849   17.9340351   19.4591093
| 43> *
| 44> 
| 45>                          ****END OF INPUT****
================================================================================

                       ****************************
                       * Single Point Calculation *
                       ****************************

---------------------------------
CARTESIAN COORDINATES (ANGSTROEM)
---------------------------------
  C     14.943010   14.593860   14.390721
  C     15.185643   15.215809   15.777172
  O     16.307554   16.108026   15.674519
  C     16.057985   17.447307   15.604641
  O     15.234897   17.902745   14.829847
  C     16.783836   18.233861   16.662628
  C     16.839340   19.589272   16.605119
  C     16.030476   20.500843   15.705565
  N     17.719304   20.308546   17.417023
  C     18.707926   19.744295   18.176930
  S     19.777507   20.660773   19.043905
  N     18.780293   18.374322   18.165764
  C     17.812353   17.471384   17.515031
  C     17.198633   16.471746   18.486715
  C     17.588307   15.119909   18.462677
  C     17.015956   14.196529   19.353677
  C     16.049611   14.629900   20.277721
  C     15.664629   15.977528   20.307363
  O     14.732548   16.398761   21.198687
  C     16.234986   16.893814   19.418213
  H     14.686732   15.370608   13.658862
  H     14.115644   13.875233   14.430244
  H     15.839661   14.069132   14.038640
  H     14.286736   15.740515   16.129846
  H     15.418786   14.417282   16.493387
  H     14.957019   20.302321   15.819628
  H     16.284803   20.329551   14.651737
  H     16.189733   21.565026   15.915642
  H     17.691701   21.315682   17.416220
  H     19.500901   17.986229   18.761228
  H     18.470243   16.959494   16.798196
  H     18.331761   14.783305   17.744732
  H     17.322299   13.152076   19.327486
  H     15.605680   13.920878   20.968917
  H     14.491121   15.639403   21.750205
  H     15.929385   17.934035   19.459109

----------------------------
CARTESIAN COORDINATES (A.U.)
----------------------------
  NO LB      ZA    FRAG     MASS         X           Y           Z
   0 C     6.0000    0    12.011   28.238196   27.578399   27.194522
   1 C     6.0000    0    12.011   28.696706   28.753712   29.814535
   2 O     8.0000    0    15.999   30.816811   30.439757   29.620549
   3 C     6.0000    0    12.011   30.345194   32.970633   29.488499
   4 O     8.0000    0    15.999   28.789784   33.831285   28.024349
   5 C     6.0000    0    12.011   31.716854   34.457003   31.487803
   6 C     6.0000    0    12.011   31.821740   37.018359   31.379128
   7 C     6.0000    0    12.011   30.293210   38.740978   29.679216
   8 N     7.0000    0    14.007   33.484633   38.377590   32.913404
   9 C     6.0000    0    12.011   35.352856   37.311310   34.349419
  10 S    16.0000    0    32.060   37.374071   39.043203   35.987766
  11 N     7.0000    0    14.007   35.489610   34.722437   34.328320
  12 C     6.0000    0    12.011   33.660468   33.016131   33.098613
  13 C     6.0000    0    12.011   32.500707   31.127089   34.934828
  14 C     6.0000    0    12.011   33.237083   28.572488   34.889403
  15 C     6.0000    0    12.011   32.155496   26.827552   36.573149
  16 C     6.0000    0    12.011   30.329370   27.646503   38.319340
  17 C     6.0000    0    12.011   29.601859   30.193152   38.375355
  18 O     8.0000    0    15.999   27.840482   30.989167   40.059712
  19 C     6.0000    0    12.011   30.679678   31.924683   36.695104
  20 H     1.0000    0     1.008   27.753902   29.046240   25.811509
  21 H     1.0000    0     1.008   26.674701   26.220390   27.269210
  22 H     1.0000    0     1.008   29.932622   26.586806   26.529186
  23 H     1.0000    0     1.008   26.998018   29.745263   30.480992
  24 H     1.0000    0     1.008   29.137283   27.244714   31.167984
  25 H     1.0000    0     1.008   28.264670   38.365827   29.894764
  26 H     1.0000    0     1.008   30.773818   38.417284   27.687771
  27 H     1.0000    0     1.008   30.594162   40.751993   30.076204
  28 H     1.0000    0     1.008   33.432469   40.280801   32.911887
  29 H     1.0000    0     1.008   36.851362   33.989047   35.453582
  30 H     1.0000    0     1.008   34.903700   32.048799   31.743991
  31 H     1.0000    0     1.008   34.642008   27.936398   33.532683
  32 H     1.0000    0     1.008   32.734402   24.853822   36.523656
  33 H     1.0000    0     1.008   29.490461   26.306647   39.625510
  34 H     1.0000    0     1.008   27.384251   29.554189   41.101931
  35 H     1.0000    0     1.008   30.102175   33.890415   36.772387

--------------------------------
INTERNAL COORDINATES (ANGSTROEM)
--------------------------------
 C      0   0   0     0.000000000000     0.00000000     0.00000000
 C      1   0   0     1.538810567927     0.00000000     0.00000000
 O      2   1   0     1.437105700521   108.03900863     0.00000000
 C      3   2   1     1.364127124123   118.05823130   102.11866132
 O      4   3   2     1.218688949605   121.53602389   311.24273342
 C      4   3   2     1.504945623471   112.88454760   125.13375280
 C      6   4   3     1.357765586089   120.77578712   168.54914469
 C      7   6   4     1.514734053327   127.16289358    12.04794764
 N      7   6   4     1.396739528588   121.01128750   192.81328302
 C      9   7   6     1.368651878534   124.43825636     9.62642670
 S     10   9   7     1.653959876253   121.98602182   176.10025771
 N     10   9   7     1.371928364299   116.44018388   357.11878556
 C     12  10   9     1.475011423654   125.46879893   353.78586979
 C     13  12  10     1.523186330253   112.62613217   237.34163501
 C     14  13  12     1.407084118274   120.53283550   254.05005072
 C     15  14  13     1.405025939224   120.51390453   180.39191028
 C     16  15  14     1.405521086976   119.62713315   359.81966554
 C     17  16  15     1.401853019610   119.94195844   359.88301302
 O     18  17  16     1.356712763969   120.06836232   180.03156159
 C     18  17  16     1.398383802256   120.29460103     0.19276155
 H      1   2   3     1.097557763429   110.58310429   297.68604372
 H      1   2   3     1.096595536055   110.57035214   177.91771397
 H      1   2   3     1.096943294342   110.71010805    57.82732408
 H      2   1   3     1.098967200075   110.67969231   122.22852586
 H      2   1   3     1.097708962754   109.10703714   241.13047249
 H      8   7   6     1.097602199265   110.59059052    54.10537302
 H      8   7   6     1.097531350008   110.64380354   295.29398564
 H      8   7   6     1.096349382287   113.12774435   174.52202335
 H      9   7   6     1.007514437203   119.80491127   185.12543249
 H     12  10   9     1.012160351724   114.56029569   181.96487204
 H     13  12  10     1.099410320678   100.36902009   119.73665262
 H     15  14  13     1.086955276905   119.88230364   359.88945796
 H     16  15  14     1.088767106317   120.03814938   179.92275269
 H     17  16  15     1.085144030792   119.90549889   180.08909340
 H     19  18  17     0.969063445890   107.56370609     2.89310228
 H     20  18  17     1.084953419084   119.29969899   180.35289357

---------------------------
INTERNAL COORDINATES (A.U.)
---------------------------
 C      0   0   0     0.000000000000     0.00000000     0.00000000
 C      1   0   0     2.907930545367     0.00000000     0.00000000
 O      2   1   0     2.715736199482   108.03900863     0.00000000
 C      3   2   1     2.577826676446   118.05823130   102.11866132
 O      4   3   2     2.302988357189   121.53602389   311.24273342
 C      4   3   2     2.843935074804   112.88454760   125.13375280
 C      6   4   3     2.565805111772   120.77578712   168.54914469
 C      7   6   4     2.862432526512   127.16289358    12.04794764
 N      7   6   4     2.639455189454   121.01128750   192.81328302
 C      9   7   6     2.586377223106   124.43825636     9.62642670
 S     10   9   7     3.125531202612   121.98602182   176.10025771
 N     10   9   7     2.592568883883   116.44018388   357.11878556
 C     12  10   9     2.787367635111   125.46879893   353.78586979
 C     13  12  10     2.878405015111   112.62613217   237.34163501
 C     14  13  12     2.659003630927   120.53283550   254.05005072
 C     15  14  13     2.655114236190   120.51390453   180.39191028
 C     16  15  14     2.656049929835   119.62713315   359.81966554
 C     17  16  15     2.649118287073   119.94195844   359.88301302
 O     18  17  16     2.563815566297   120.06836232   180.03156159
 C     18  17  16     2.642562416375   120.29460103     0.19276155
 H      1   2   3     2.074083589040   110.58310429   297.68604372
 H      1   2   3     2.072265242824   110.57035214   177.91771397
 H      1   2   3     2.072922410748   110.71010805    57.82732408
 H      2   1   3     2.076747038304   110.67969231   122.22852586
 H      2   1   3     2.074369314356   109.10703714   241.13047249
 H      8   7   6     2.074167560600   110.59059052    54.10537302
 H      8   7   6     2.074033674908   110.64380354   295.29398564
 H      8   7   6     2.071800079616   113.12774435   174.52202335
 H      9   7   6     1.903926362286   119.80491127   185.12543249
 H     12  10   9     1.912705868371   114.56029569   181.96487204
 H     13  12  10     2.077584414889   100.36902009   119.73665262
 H     15  14  13     2.054047793171   119.88230364   359.88945796
 H     16  15  14     2.057471654560   120.03814938   179.92275269
 H     17  16  15     2.050625034056   119.90549889   180.08909340
 H     19  18  17     1.831264519126   107.56370609     2.89310228
 H     20  18  17     2.050264830130   119.29969899   180.35289357

---------------------
BASIS SET INFORMATION
---------------------
There are 5 groups of distinct atoms

 Group   1 Type C   : 18s5p2d1f contracted to 4s3p2d1f pattern {8811/311/11/1}
 Group   2 Type O   : 18s5p2d1f contracted to 4s3p2d1f pattern {8811/311/11/1}
 Group   3 Type N   : 18s5p2d1f contracted to 4s3p2d1f pattern {8811/311/11/1}
 Group   4 Type S   : 41s16p2d1f contracted to 5s4p2d1f pattern {13131311/7711/11/1}
 Group   5 Type H   : 5s2p1d contracted to 3s2p1d pattern {311/11/1}

Atom   0C    basis set group =>   1
Atom   1C    basis set group =>   1
Atom   2O    basis set group =>   2
Atom   3C    basis set group =>   1
Atom   4O    basis set group =>   2
Atom   5C    basis set group =>   1
Atom   6C    basis set group =>   1
Atom   7C    basis set group =>   1
Atom   8N    basis set group =>   3
Atom   9C    basis set group =>   1
Atom  10S    basis set group =>   4
Atom  11N    basis set group =>   3
Atom  12C    basis set group =>   1
Atom  13C    basis set group =>   1
Atom  14C    basis set group =>   1
Atom  15C    basis set group =>   1
Atom  16C    basis set group =>   1
Atom  17C    basis set group =>   1
Atom  18O    basis set group =>   2
Atom  19C    basis set group =>   1
Atom  20H    basis set group =>   5
Atom  21H    basis set group =>   5
Atom  22H    basis set group =>   5
Atom  23H    basis set group =>   5
Atom  24H    basis set group =>   5
Atom  25H    basis set group =>   5
Atom  26H    basis set group =>   5
Atom  27H    basis set group =>   5
Atom  28H    basis set group =>   5
Atom  29H    basis set group =>   5
Atom  30H    basis set group =>   5
Atom  31H    basis set group =>   5
Atom  32H    basis set group =>   5
Atom  33H    basis set group =>   5
Atom  34H    basis set group =>   5
Atom  35H    basis set group =>   5
---------------------------------
AUXILIARY/C BASIS SET INFORMATION
---------------------------------
There are 5 groups of distinct atoms

 Group   1 Type C   : 8s6p5d3f1g contracted to 8s6p5d3f1g pattern {11111111/111111/11111/111/1}
 Group   2 Type O   : 8s6p5d3f1g contracted to 8s6p5d3f1g pattern {11111111/111111/11111/111/1}
 Group   3 Type N   : 8s6p5d3f1g contracted to 8s6p5d3f1g pattern {11111111/111111/11111/111/1}
 Group   4 Type S   : 10s8p7d5f2g contracted to 10s8p7d5f2g pattern {1111111111/11111111/1111111/11111/11}
 Group   5 Type H   : 4s3p2d1f contracted to 4s3p2d1f pattern {1111/111/11/1}

Atom   0C    basis set group =>   1
Atom   1C    basis set group =>   1
Atom   2O    basis set group =>   2
Atom   3C    basis set group =>   1
Atom   4O    basis set group =>   2
Atom   5C    basis set group =>   1
Atom   6C    basis set group =>   1
Atom   7C    basis set group =>   1
Atom   8N    basis set group =>   3
Atom   9C    basis set group =>   1
Atom  10S    basis set group =>   4
Atom  11N    basis set group =>   3
Atom  12C    basis set group =>   1
Atom  13C    basis set group =>   1
Atom  14C    basis set group =>   1
Atom  15C    basis set group =>   1
Atom  16C    basis set group =>   1
Atom  17C    basis set group =>   1
Atom  18O    basis set group =>   2
Atom  19C    basis set group =>   1
Atom  20H    basis set group =>   5
Atom  21H    basis set group =>   5
Atom  22H    basis set group =>   5
Atom  23H    basis set group =>   5
Atom  24H    basis set group =>   5
Atom  25H    basis set group =>   5
Atom  26H    basis set group =>   5
Atom  27H    basis set group =>   5
Atom  28H    basis set group =>   5
Atom  29H    basis set group =>   5
Atom  30H    basis set group =>   5
Atom  31H    basis set group =>   5
Atom  32H    basis set group =>   5
Atom  33H    basis set group =>   5
Atom  34H    basis set group =>   5
Atom  35H    basis set group =>   5
------------------------------------------------------------------------------
                           ORCA GTO INTEGRAL CALCULATION
------------------------------------------------------------------------------

                         BASIS SET STATISTICS AND STARTUP INFO

 # of primitive gaussian shells          ...  682
 # of primitive gaussian functions       ... 1312
 # of contracted shells                  ...  298
 # of contracted basis functions         ...  828
 Highest angular momentum                ...    3
 Maximum contraction depth               ...   13
 Integral package used                   ... LIBINT
 Integral threshhold            Thresh   ...  2.500e-11
 Primitive cut-off              TCut     ...  2.500e-12


------------------------------ INTEGRAL EVALUATION ----------------------------


 * One electron integrals 
 Pre-screening matrix                    ... done
 Shell pair data                         ... done (   0.014 sec)

-------------------------------------------------------------------------------
                                 ORCA SCF
-------------------------------------------------------------------------------

------------
SCF SETTINGS
------------
Hamiltonian:
 Ab initio Hamiltonian  Method          .... Hartree-Fock(GTOs)


General Settings:
 Integral files         IntName         .... CONFS/Conf770.orca
 Hartree-Fock type      HFTyp           .... RHF
 Total Charge           Charge          ....    0
 Multiplicity           Mult            ....    1
 Number of Electrons    NEL             ....  154
 Basis Dimension        Dim             ....  828
 Nuclear Repulsion      ENuc            ....   1694.4518718571 Eh

Convergence Acceleration:
 DIIS                   CNVDIIS         .... on
   Start iteration      DIISMaxIt       ....    12
   Startup error        DIISStart       ....  0.200000
   # of expansion vecs  DIISMaxEq       ....     5
   Bias factor          DIISBfac        ....   1.050
   Max. coefficient     DIISMaxC        ....  10.000
 Newton-Raphson         CNVNR           .... off
 SOSCF                  CNVSOSCF        .... on
   Start iteration      SOSCFMaxIt      ....   150
   Startup grad/error   SOSCFStart      ....  0.003300
 Level Shifting         CNVShift        .... on
   Level shift para.    LevelShift      ....    0.2500
   Turn off err/grad.   ShiftErr        ....    0.0010
 Zerner damping         CNVZerner       .... off
 Static damping         CNVDamp         .... on
   Fraction old density DampFac         ....    0.7000
   Max. Damping (<1)    DampMax         ....    0.9800
   Min. Damping (>=0)   DampMin         ....    0.0000
   Turn off err/grad.   DampErr         ....    0.1000
 Fernandez-Rico         CNVRico         .... off

SCF Procedure:
 Maximum # iterations   MaxIter         ....   125
 SCF integral mode      SCFMode         .... Direct
   Integral package                     .... LIBINT
 Reset frequency        DirectResetFreq ....    20
 Integral Threshold     Thresh          ....  2.500e-11 Eh
 Primitive CutOff       TCut            ....  2.500e-12 Eh

Convergence Tolerance:
 Convergence Check Mode ConvCheckMode   .... Total+1el-Energy
 Convergence forced     ConvForced      .... 1
 Energy Change          TolE            ....  1.000e-08 Eh
 1-El. energy change                    ....  1.000e-05 Eh
 Orbital Gradient       TolG            ....  1.000e-05
 Orbital Rotation angle TolX            ....  1.000e-05
 DIIS Error             TolErr          ....  5.000e-07


Diagonalization of the overlap matrix:
Smallest eigenvalue                        ... 3.402e-05
Time for diagonalization                   ...    0.523 sec
Threshold for overlap eigenvalues          ... 1.000e-08
Number of eigenvalues below threshold      ... 0
Time for construction of square roots      ...    0.397 sec
Total time needed                          ...    0.922 sec

-------------------
DFT GRID GENERATION
-------------------

General Integration Accuracy     IntAcc      ...  4.340
Radial Grid Type                 RadialGrid  ... Gauss-Chebyshev
Angular Grid (max. acc.)         AngularGrid ... Lebedev-110
Angular grid pruning method      GridPruning ... 3 (G Style)
Weight generation scheme         WeightScheme... Becke
Basis function cutoff            BFCut       ...    1.0000e-11
Integration weight cutoff        WCut        ...    1.0000e-14
Grids for H and He will be reduced by one unit

# of grid points (after initial pruning)     ...  46246 (   0.0 sec)
# of grid points (after weights+screening)   ...  41352 (   0.3 sec)
nearest neighbour list constructed           ...    0.0 sec
Grid point re-assignment to atoms done       ...    0.0 sec
Grid point division into batches done        ...    0.0 sec
Reduced shell lists constructed in    0.9 sec

Total number of grid points                  ...    41352
Total number of batches                      ...      662
Average number of points per batch           ...       62
Average number of grid points per atom       ...     1149
Average number of shells per batch           ...   146.84 (49.28%)
Average number of basis functions per batch  ...   373.23 (45.08%)
Average number of large shells per batch     ...    93.98 (64.00%)
Average number of large basis fcns per batch ...   241.99 (64.84%)
Maximum spatial batch extension              ...  19.19, 18.97, 20.02 au
Average spatial batch extension              ...   3.56,  3.34,  3.47 au

Time for grid setup =    1.141 sec

------------------------------
INITIAL GUESS: MODEL POTENTIAL
------------------------------
Loading Hartree-Fock densities                     ... done
Calculating cut-offs                               ... done
Setting up the integral package                    ... done
Initializing the effective Hamiltonian             ... done
Starting the Coulomb interaction                   ... done (   2.8 sec)
Reading the grid                                   ... done
Mapping shells                                     ... done
Starting the XC term evaluation                    ... done (   1.0 sec)
Transforming the Hamiltonian                       ... done (   0.2 sec)
Diagonalizing the Hamiltonian                      ... done (   0.3 sec)
Back transforming the eigenvectors                 ... done (   0.2 sec)
Now organizing SCF variables                       ... done
                      ------------------
                      INITIAL GUESS DONE (   5.8 sec)
                      ------------------
--------------
SCF ITERATIONS
--------------
ITER       Energy         Delta-E        Max-DP      RMS-DP      [F,P]     Damp
               ***  Starting incremental Fock matrix formation  ***
  0  -1270.0080893960   0.000000000000 0.04932621  0.00042295  0.3011482 0.7000
  1  -1270.2756650166  -0.267575620585 0.03608210  0.00033870  0.1771992 0.7000
                               ***Turning on DIIS***
  2  -1270.4425990182  -0.166934001649 0.02583373  0.00022937  0.1096322 0.7000
  3  -1272.5771602101  -2.134561191900 0.06310484  0.00050730  0.0828570 0.0000
  4  -1270.7497210975   1.827439112649 0.00710714  0.00009306  0.0072593 0.0000
  5  -1270.8099986835  -0.060277586077 0.00317663  0.00004865  0.0049277 0.0000
                      *** Initiating the SOSCF procedure ***
                           *** Shutting down DIIS ***
                      *** Re-Reading the Fockian *** 
                      *** Removing any level shift *** 
ITER      Energy       Delta-E        Grad      Rot      Max-DP    RMS-DP
  6  -1270.79037096   0.0196277203  0.001785  0.001785  0.001691  0.000025
               *** Restarting incremental Fock matrix formation ***
  7  -1270.80518191  -0.0148109473  0.001049  0.002679  0.001229  0.000015
  8  -1270.80522827  -0.0000463571  0.000458  0.003050  0.001380  0.000016
  9  -1270.80524587  -0.0000175978  0.000150  0.000305  0.000348  0.000004
 10  -1270.80524808  -0.0000022110  0.000046  0.000127  0.000120  0.000001
 11  -1270.80524830  -0.0000002272  0.000027  0.000135  0.000061  0.000001
 12  -1270.80524837  -0.0000000684  0.000010  0.000043  0.000034  0.000000
 13  -1270.80524838  -0.0000000031  0.000003  0.000012  0.000006  0.000000
                  ***Gradient check signals convergence***
              ***Rediagonalizing the Fockian in SOSCF/NRSCF***

               *****************************************************
               *                     SUCCESS                       *
               *           SCF CONVERGED AFTER  14 CYCLES          *
               *****************************************************


----------------
TOTAL SCF ENERGY
----------------

Total Energy       :        -1270.80524836 Eh          -34580.36884 eV

Components:
Nuclear Repulsion  :         1694.45187186 Eh           46108.37954 eV
Electronic Energy  :        -2965.25712022 Eh          -80688.74838 eV
One Electron Energy:        -5110.04883641 Eh         -139051.49808 eV
Two Electron Energy:         2144.79171618 Eh           58362.74970 eV

Virial components:
Potential Energy   :        -2539.80510783 Eh          -69111.61055 eV
Kinetic Energy     :         1268.99985947 Eh           34531.24171 eV
Virial Ratio       :            2.00142269


---------------
SCF CONVERGENCE
---------------

  Last Energy change         ...    1.1357e-08  Tolerance :   1.0000e-08
  Last MAX-Density change    ...    1.7379e-06  Tolerance :   1.0000e-07
  Last RMS-Density change    ...    2.8942e-08  Tolerance :   5.0000e-09
  Last Orbital Gradient      ...    1.1614e-06  Tolerance :   1.0000e-05
  Last Orbital Rotation      ...    2.7538e-06  Tolerance :   1.0000e-05

             **** THE GBW FILE WAS UPDATED (CONFS/Conf770.orca.gbw) ****
             **** DENSITY FILE WAS UPDATED (CONFS/Conf770.orca.scfp) ****
             **** ENERGY FILE WAS UPDATED (CONFS/Conf770.orca.en.tmp) ****
             **** THE GBW FILE WAS UPDATED (CONFS/Conf770.orca.gbw) ****
             **** DENSITY FILE WAS UPDATED (CONFS/Conf770.orca.scfp) ****
----------------
ORBITAL ENERGIES
----------------

  NO   OCC          E(Eh)            E(eV) 
   0   2.0000     -91.890060     -2500.4556 
   1   2.0000     -20.599349      -560.5368 
   2   2.0000     -20.589215      -560.2610 
   3   2.0000     -20.544661      -559.0486 
   4   2.0000     -15.630619      -425.3308 
   5   2.0000     -15.608132      -424.7189 
   6   2.0000     -11.393728      -310.0391 
   7   2.0000     -11.384730      -309.7943 
   8   2.0000     -11.338665      -308.5408 
   9   2.0000     -11.316903      -307.9486 
  10   2.0000     -11.308803      -307.7282 
  11   2.0000     -11.295908      -307.3773 
  12   2.0000     -11.263554      -306.4969 
  13   2.0000     -11.258622      -306.3627 
  14   2.0000     -11.258239      -306.3522 
  15   2.0000     -11.252880      -306.2064 
  16   2.0000     -11.246577      -306.0349 
  17   2.0000     -11.241807      -305.9051 
  18   2.0000     -11.241410      -305.8943 
  19   2.0000     -11.219628      -305.3016 
  20   2.0000      -8.895119      -242.0485 
  21   2.0000      -6.576688      -178.9608 
  22   2.0000      -6.574693      -178.9065 
  23   2.0000      -6.574099      -178.8903 
  24   2.0000      -1.449903       -39.4539 
  25   2.0000      -1.419015       -38.6134 
  26   2.0000      -1.354092       -36.8467 
  27   2.0000      -1.341582       -36.5063 
  28   2.0000      -1.239482       -33.7280 
  29   2.0000      -1.160327       -31.5741 
  30   2.0000      -1.122243       -30.5378 
  31   2.0000      -1.044989       -28.4356 
  32   2.0000      -1.033813       -28.1315 
  33   2.0000      -1.018035       -27.7021 
  34   2.0000      -0.996953       -27.1285 
  35   2.0000      -0.985514       -26.8172 
  36   2.0000      -0.923480       -25.1292 
  37   2.0000      -0.884378       -24.0651 
  38   2.0000      -0.848228       -23.0814 
  39   2.0000      -0.840461       -22.8701 
  40   2.0000      -0.836949       -22.7745 
  41   2.0000      -0.824019       -22.4227 
  42   2.0000      -0.759580       -20.6692 
  43   2.0000      -0.735471       -20.0132 
  44   2.0000      -0.723197       -19.6792 
  45   2.0000      -0.698036       -18.9945 
  46   2.0000      -0.689899       -18.7731 
  47   2.0000      -0.678839       -18.4722 
  48   2.0000      -0.671967       -18.2852 
  49   2.0000      -0.652491       -17.7552 
  50   2.0000      -0.648249       -17.6398 
  51   2.0000      -0.643670       -17.5152 
  52   2.0000      -0.633856       -17.2481 
  53   2.0000      -0.609842       -16.5946 
  54   2.0000      -0.606105       -16.4930 
  55   2.0000      -0.601296       -16.3621 
  56   2.0000      -0.599807       -16.3216 
  57   2.0000      -0.580912       -15.8074 
  58   2.0000      -0.573944       -15.6178 
  59   2.0000      -0.569916       -15.5082 
  60   2.0000      -0.565220       -15.3804 
  61   2.0000      -0.541608       -14.7379 
  62   2.0000      -0.534670       -14.5491 
  63   2.0000      -0.526532       -14.3277 
  64   2.0000      -0.515739       -14.0340 
  65   2.0000      -0.513364       -13.9693 
  66   2.0000      -0.501615       -13.6496 
  67   2.0000      -0.497367       -13.5340 
  68   2.0000      -0.488227       -13.2853 
  69   2.0000      -0.464289       -12.6339 
  70   2.0000      -0.454277       -12.3615 
  71   2.0000      -0.445487       -12.1223 
  72   2.0000      -0.354404        -9.6438 
  73   2.0000      -0.352280        -9.5860 
  74   2.0000      -0.329365        -8.9625 
  75   2.0000      -0.324241        -8.8230 
  76   2.0000      -0.319384        -8.6909 
  77   0.0000       0.073044         1.9876 
  78   0.0000       0.101800         2.7701 
  79   0.0000       0.124368         3.3842 
  80   0.0000       0.131200         3.5701 
  81   0.0000       0.134753         3.6668 
  82   0.0000       0.141242         3.8434 
  83   0.0000       0.151639         4.1263 
  84   0.0000       0.159556         4.3417 
  85   0.0000       0.160436         4.3657 
  86   0.0000       0.168579         4.5873 
  87   0.0000       0.178157         4.8479 
  88   0.0000       0.190827         5.1927 
  89   0.0000       0.192541         5.2393 
  90   0.0000       0.198463         5.4005 
  91   0.0000       0.211106         5.7445 
  92   0.0000       0.214886         5.8473 
  93   0.0000       0.218312         5.9406 
  94   0.0000       0.222635         6.0582 
  95   0.0000       0.232541         6.3278 
  96   0.0000       0.245351         6.6764 
  97   0.0000       0.247068         6.7231 
  98   0.0000       0.264381         7.1942 
  99   0.0000       0.274256         7.4629 
 100   0.0000       0.296979         8.0812 
 101   0.0000       0.303931         8.2704 
 102   0.0000       0.306780         8.3479 
 103   0.0000       0.315685         8.5902 
 104   0.0000       0.320523         8.7219 
 105   0.0000       0.324838         8.8393 
 106   0.0000       0.338857         9.2208 
 107   0.0000       0.345096         9.3905 
 108   0.0000       0.356401         9.6982 
 109   0.0000       0.365599         9.9484 
 110   0.0000       0.369611        10.0576 
 111   0.0000       0.375598        10.2205 
 112   0.0000       0.380085        10.3426 
 113   0.0000       0.390667        10.6306 
 114   0.0000       0.391829        10.6622 
 115   0.0000       0.398657        10.8480 
 116   0.0000       0.412990        11.2380 
 117   0.0000       0.429580        11.6895 
 118   0.0000       0.433590        11.7986 
 119   0.0000       0.440791        11.9945 
 120   0.0000       0.444885        12.1059 
 121   0.0000       0.450447        12.2573 
 122   0.0000       0.455000        12.3812 
 123   0.0000       0.464940        12.6517 
 124   0.0000       0.468413        12.7462 
 125   0.0000       0.474217        12.9041 
 126   0.0000       0.481853        13.1119 
 127   0.0000       0.485309        13.2059 
 128   0.0000       0.491288        13.3686 
 129   0.0000       0.494036        13.4434 
 130   0.0000       0.500966        13.6320 
 131   0.0000       0.501596        13.6491 
 132   0.0000       0.510932        13.9032 
 133   0.0000       0.513939        13.9850 
 134   0.0000       0.519798        14.1444 
 135   0.0000       0.531712        14.4686 
 136   0.0000       0.534049        14.5322 
 137   0.0000       0.535418        14.5695 
 138   0.0000       0.539526        14.6813 
 139   0.0000       0.546412        14.8686 
 140   0.0000       0.558737        15.2040 
 141   0.0000       0.563648        15.3376 
 142   0.0000       0.565232        15.3808 
 143   0.0000       0.567682        15.4474 
 144   0.0000       0.569326        15.4922 
 145   0.0000       0.577742        15.7212 
 146   0.0000       0.582600        15.8533 
 147   0.0000       0.592077        16.1112 
 148   0.0000       0.595452        16.2031 
 149   0.0000       0.602060        16.3829 
 150   0.0000       0.603190        16.4136 
 151   0.0000       0.608817        16.5668 
 152   0.0000       0.613138        16.6843 
 153   0.0000       0.615719        16.7546 
 154   0.0000       0.616361        16.7720 
 155   0.0000       0.621864        16.9218 
 156   0.0000       0.627511        17.0754 
 157   0.0000       0.628615        17.1055 
 158   0.0000       0.632439        17.2095 
 159   0.0000       0.637428        17.3453 
 160   0.0000       0.650613        17.7041 
 161   0.0000       0.654069        17.7981 
 162   0.0000       0.656496        17.8642 
 163   0.0000       0.660687        17.9782 
 164   0.0000       0.665213        18.1014 
 165   0.0000       0.673992        18.3402 
 166   0.0000       0.677846        18.4451 
 167   0.0000       0.679992        18.5035 
 168   0.0000       0.692564        18.8456 
 169   0.0000       0.696054        18.9406 
 170   0.0000       0.697594        18.9825 
 171   0.0000       0.706868        19.2349 
 172   0.0000       0.711602        19.3637 
 173   0.0000       0.715961        19.4823 
 174   0.0000       0.724303        19.7093 
 175   0.0000       0.727079        19.7848 
 176   0.0000       0.728829        19.8324 
 177   0.0000       0.744813        20.2674 
 178   0.0000       0.748896        20.3785 
 179   0.0000       0.755765        20.5654 
 180   0.0000       0.763768        20.7832 
 181   0.0000       0.768595        20.9145 
 182   0.0000       0.777519        21.1574 
 183   0.0000       0.780015        21.2253 
 184   0.0000       0.803156        21.8550 
 185   0.0000       0.804787        21.8994 
 186   0.0000       0.816593        22.2206 
 187   0.0000       0.824718        22.4417 
 188   0.0000       0.828441        22.5430 
 189   0.0000       0.834766        22.7151 
 190   0.0000       0.840450        22.8698 
 191   0.0000       0.848480        23.0883 
 192   0.0000       0.853524        23.2256 
 193   0.0000       0.861527        23.4433 
 194   0.0000       0.864757        23.5312 
 195   0.0000       0.873462        23.7681 
 196   0.0000       0.880733        23.9660 
 197   0.0000       0.889014        24.1913 
 198   0.0000       0.891017        24.2458 
 199   0.0000       0.897869        24.4322 
 200   0.0000       0.910361        24.7722 
 201   0.0000       0.914987        24.8981 
 202   0.0000       0.919057        25.0088 
 203   0.0000       0.931766        25.3546 
 204   0.0000       0.939459        25.5640 
 205   0.0000       0.942984        25.6599 
 206   0.0000       0.948737        25.8164 
 207   0.0000       0.958821        26.0908 
 208   0.0000       0.963513        26.2185 
 209   0.0000       0.977457        26.5980 
 210   0.0000       0.980102        26.6699 
 211   0.0000       0.991671        26.9847 
 212   0.0000       0.997511        27.1437 
 213   0.0000       1.009506        27.4701 
 214   0.0000       1.013518        27.5792 
 215   0.0000       1.016559        27.6620 
 216   0.0000       1.025392        27.9023 
 217   0.0000       1.030351        28.0373 
 218   0.0000       1.035316        28.1724 
 219   0.0000       1.039003        28.2727 
 220   0.0000       1.050540        28.5866 
 221   0.0000       1.059056        28.8184 
 222   0.0000       1.064681        28.9714 
 223   0.0000       1.069637        29.1063 
 224   0.0000       1.075814        29.2744 
 225   0.0000       1.084002        29.4972 
 226   0.0000       1.084925        29.5223 
 227   0.0000       1.095232        29.8028 
 228   0.0000       1.108727        30.1700 
 229   0.0000       1.118370        30.4324 
 230   0.0000       1.122300        30.5393 
 231   0.0000       1.132103        30.8061 
 232   0.0000       1.139108        30.9967 
 233   0.0000       1.147732        31.2314 
 234   0.0000       1.153540        31.3894 
 235   0.0000       1.161706        31.6116 
 236   0.0000       1.163569        31.6623 
 237   0.0000       1.172513        31.9057 
 238   0.0000       1.176104        32.0034 
 239   0.0000       1.180463        32.1220 
 240   0.0000       1.187078        32.3020 
 241   0.0000       1.197748        32.5924 
 242   0.0000       1.199531        32.6409 
 243   0.0000       1.208767        32.8922 
 244   0.0000       1.221958        33.2512 
 245   0.0000       1.223609        33.2961 
 246   0.0000       1.227494        33.4018 
 247   0.0000       1.236396        33.6440 
 248   0.0000       1.239594        33.7311 
 249   0.0000       1.258209        34.2376 
 250   0.0000       1.261941        34.3392 
 251   0.0000       1.266935        34.4751 
 252   0.0000       1.280118        34.8338 
 253   0.0000       1.283619        34.9291 
 254   0.0000       1.290148        35.1067 
 255   0.0000       1.299561        35.3629 
 256   0.0000       1.313067        35.7304 
 257   0.0000       1.314702        35.7749 
 258   0.0000       1.324956        36.0539 
 259   0.0000       1.331498        36.2319 
 260   0.0000       1.337952        36.4075 
 261   0.0000       1.349106        36.7110 
 262   0.0000       1.359211        36.9860 
 263   0.0000       1.361575        37.0503 
 264   0.0000       1.367698        37.2169 
 265   0.0000       1.377228        37.4763 
 266   0.0000       1.387719        37.7618 
 267   0.0000       1.400950        38.1218 
 268   0.0000       1.409672        38.3591 
 269   0.0000       1.418504        38.5995 
 270   0.0000       1.424880        38.7730 
 271   0.0000       1.431614        38.9562 
 272   0.0000       1.441900        39.2361 
 273   0.0000       1.452666        39.5291 
 274   0.0000       1.457884        39.6710 
 275   0.0000       1.462988        39.8099 
 276   0.0000       1.468584        39.9622 
 277   0.0000       1.473842        40.1053 
 278   0.0000       1.480024        40.2735 
 279   0.0000       1.489672        40.5360 
 280   0.0000       1.496715        40.7277 
 281   0.0000       1.501085        40.8466 
 282   0.0000       1.507708        41.0268 
 283   0.0000       1.512524        41.1579 
 284   0.0000       1.518858        41.3302 
 285   0.0000       1.527204        41.5573 
 286   0.0000       1.532918        41.7128 
 287   0.0000       1.535676        41.7879 
 288   0.0000       1.538192        41.8563 
 289   0.0000       1.545360        42.0514 
 290   0.0000       1.557966        42.3944 
 291   0.0000       1.561835        42.4997 
 292   0.0000       1.564456        42.5710 
 293   0.0000       1.581946        43.0469 
 294   0.0000       1.586850        43.1804 
 295   0.0000       1.596486        43.4426 
 296   0.0000       1.598395        43.4945 
 297   0.0000       1.607263        43.7358 
 298   0.0000       1.617845        44.0238 
 299   0.0000       1.631601        44.3981 
 300   0.0000       1.634864        44.4869 
 301   0.0000       1.643214        44.7141 
 302   0.0000       1.646783        44.8112 
 303   0.0000       1.652629        44.9703 
 304   0.0000       1.663587        45.2685 
 305   0.0000       1.678064        45.6625 
 306   0.0000       1.685080        45.8534 
 307   0.0000       1.690692        46.0061 
 308   0.0000       1.698022        46.2055 
 309   0.0000       1.708295        46.4851 
 310   0.0000       1.716458        46.7072 
 311   0.0000       1.722529        46.8724 
 312   0.0000       1.739390        47.3312 
 313   0.0000       1.744619        47.4735 
 314   0.0000       1.760524        47.9063 
 315   0.0000       1.770433        48.1759 
 316   0.0000       1.772098        48.2212 
 317   0.0000       1.785795        48.5940 
 318   0.0000       1.797507        48.9127 
 319   0.0000       1.806519        49.1579 
 320   0.0000       1.812085        49.3093 
 321   0.0000       1.821507        49.5657 
 322   0.0000       1.825326        49.6697 
 323   0.0000       1.837455        49.9997 
 324   0.0000       1.845507        50.2188 
 325   0.0000       1.857208        50.5372 
 326   0.0000       1.872566        50.9551 
 327   0.0000       1.891343        51.4660 
 328   0.0000       1.905879        51.8616 
 329   0.0000       1.911101        52.0037 
 330   0.0000       1.916786        52.1584 
 331   0.0000       1.928432        52.4753 
 332   0.0000       1.937023        52.7091 
 333   0.0000       1.950368        53.0722 
 334   0.0000       1.961986        53.3883 
 335   0.0000       1.974879        53.7392 
 336   0.0000       1.989558        54.1386 
 337   0.0000       2.002720        54.4968 
 338   0.0000       2.014631        54.8209 
 339   0.0000       2.017111        54.8884 
 340   0.0000       2.029719        55.2315 
 341   0.0000       2.034199        55.3534 
 342   0.0000       2.039843        55.5070 
 343   0.0000       2.070503        56.3413 
 344   0.0000       2.096847        57.0581 
 345   0.0000       2.114322        57.5336 
 346   0.0000       2.129501        57.9467 
 347   0.0000       2.130202        57.9657 
 348   0.0000       2.148481        58.4631 
 349   0.0000       2.161285        58.8116 
 350   0.0000       2.168236        59.0007 
 351   0.0000       2.186587        59.5001 
 352   0.0000       2.211113        60.1674 
 353   0.0000       2.220143        60.4132 
 354   0.0000       2.223225        60.4970 
 355   0.0000       2.250913        61.2504 
 356   0.0000       2.260192        61.5029 
 357   0.0000       2.279280        62.0224 
 358   0.0000       2.289498        62.3004 
 359   0.0000       2.304930        62.7203 
 360   0.0000       2.320267        63.1377 
 361   0.0000       2.323863        63.2355 
 362   0.0000       2.341462        63.7144 
 363   0.0000       2.355354        64.0924 
 364   0.0000       2.362615        64.2900 
 365   0.0000       2.370587        64.5070 
 366   0.0000       2.379243        64.7425 
 367   0.0000       2.392137        65.0934 
 368   0.0000       2.410102        65.5822 
 369   0.0000       2.429739        66.1166 
 370   0.0000       2.452007        66.7225 
 371   0.0000       2.458915        66.9105 
 372   0.0000       2.471525        67.2536 
 373   0.0000       2.474033        67.3219 
 374   0.0000       2.487996        67.7018 
 375   0.0000       2.500777        68.0496 
 376   0.0000       2.521643        68.6174 
 377   0.0000       2.525270        68.7161 
 378   0.0000       2.539791        69.1112 
 379   0.0000       2.555328        69.5340 
 380   0.0000       2.570638        69.9506 
 381   0.0000       2.574353        70.0517 
 382   0.0000       2.584532        70.3287 
 383   0.0000       2.595910        70.6383 
 384   0.0000       2.603306        70.8395 
 385   0.0000       2.611507        71.0627 
 386   0.0000       2.631641        71.6106 
 387   0.0000       2.641367        71.8752 
 388   0.0000       2.658040        72.3289 
 389   0.0000       2.673285        72.7438 
 390   0.0000       2.681257        72.9607 
 391   0.0000       2.683210        73.0139 
 392   0.0000       2.697856        73.4124 
 393   0.0000       2.709329        73.7246 
 394   0.0000       2.724810        74.1459 
 395   0.0000       2.735687        74.4418 
 396   0.0000       2.744971        74.6945 
 397   0.0000       2.753371        74.9230 
 398   0.0000       2.754569        74.9556 
 399   0.0000       2.763288        75.1929 
 400   0.0000       2.772760        75.4506 
 401   0.0000       2.782391        75.7127 
 402   0.0000       2.793258        76.0084 
 403   0.0000       2.803952        76.2994 
 404   0.0000       2.812154        76.5226 
 405   0.0000       2.829450        76.9933 
 406   0.0000       2.834618        77.1339 
 407   0.0000       2.843031        77.3628 
 408   0.0000       2.852456        77.6193 
 409   0.0000       2.860766        77.8454 
 410   0.0000       2.863270        77.9135 
 411   0.0000       2.876741        78.2801 
 412   0.0000       2.892629        78.7124 
 413   0.0000       2.896985        78.8310 
 414   0.0000       2.904129        79.0254 
 415   0.0000       2.919115        79.4331 
 416   0.0000       2.935282        79.8731 
 417   0.0000       2.939891        79.9985 
 418   0.0000       2.949032        80.2472 
 419   0.0000       2.950962        80.2998 
 420   0.0000       2.965616        80.6985 
 421   0.0000       2.969593        80.8067 
 422   0.0000       2.982107        81.1473 
 423   0.0000       2.986080        81.2554 
 424   0.0000       2.988950        81.3335 
 425   0.0000       3.012813        81.9828 
 426   0.0000       3.020994        82.2054 
 427   0.0000       3.023451        82.2723 
 428   0.0000       3.028908        82.4208 
 429   0.0000       3.037209        82.6467 
 430   0.0000       3.039047        82.6967 
 431   0.0000       3.056858        83.1813 
 432   0.0000       3.070275        83.5464 
 433   0.0000       3.076365        83.7121 
 434   0.0000       3.079275        83.7913 
 435   0.0000       3.084441        83.9319 
 436   0.0000       3.087712        84.0209 
 437   0.0000       3.094517        84.2061 
 438   0.0000       3.102194        84.4150 
 439   0.0000       3.106906        84.5432 
 440   0.0000       3.109918        84.6252 
 441   0.0000       3.119416        84.8836 
 442   0.0000       3.128790        85.1387 
 443   0.0000       3.131965        85.2251 
 444   0.0000       3.138307        85.3977 
 445   0.0000       3.145111        85.5828 
 446   0.0000       3.159713        85.9802 
 447   0.0000       3.162950        86.0682 
 448   0.0000       3.172745        86.3348 
 449   0.0000       3.188237        86.7563 
 450   0.0000       3.197076        86.9969 
 451   0.0000       3.200723        87.0961 
 452   0.0000       3.210777        87.3697 
 453   0.0000       3.223251        87.7091 
 454   0.0000       3.228066        87.8402 
 455   0.0000       3.230962        87.9189 
 456   0.0000       3.241751        88.2125 
 457   0.0000       3.246082        88.3304 
 458   0.0000       3.254312        88.5543 
 459   0.0000       3.260067        88.7109 
 460   0.0000       3.268106        88.9297 
 461   0.0000       3.271808        89.0304 
 462   0.0000       3.281917        89.3055 
 463   0.0000       3.287914        89.4687 
 464   0.0000       3.293300        89.6152 
 465   0.0000       3.303490        89.8925 
 466   0.0000       3.309132        90.0460 
 467   0.0000       3.316201        90.2384 
 468   0.0000       3.318983        90.3141 
 469   0.0000       3.331004        90.6412 
 470   0.0000       3.332776        90.6894 
 471   0.0000       3.345288        91.0299 
 472   0.0000       3.351253        91.1922 
 473   0.0000       3.352563        91.2279 
 474   0.0000       3.360661        91.4482 
 475   0.0000       3.364206        91.5447 
 476   0.0000       3.370629        91.7195 
 477   0.0000       3.376273        91.8731 
 478   0.0000       3.385637        92.1279 
 479   0.0000       3.389750        92.2398 
 480   0.0000       3.392055        92.3025 
 481   0.0000       3.401587        92.5619 
 482   0.0000       3.406246        92.6887 
 483   0.0000       3.407690        92.7280 
 484   0.0000       3.413870        92.8961 
 485   0.0000       3.421620        93.1070 
 486   0.0000       3.429480        93.3209 
 487   0.0000       3.434055        93.4454 
 488   0.0000       3.438159        93.5571 
 489   0.0000       3.441282        93.6420 
 490   0.0000       3.443034        93.6897 
 491   0.0000       3.447609        93.8142 
 492   0.0000       3.461785        94.2000 
 493   0.0000       3.464944        94.2859 
 494   0.0000       3.466787        94.3361 
 495   0.0000       3.471022        94.4513 
 496   0.0000       3.473687        94.5238 
 497   0.0000       3.484110        94.8075 
 498   0.0000       3.497278        95.1658 
 499   0.0000       3.504180        95.3536 
 500   0.0000       3.513156        95.5978 
 501   0.0000       3.521237        95.8177 
 502   0.0000       3.525302        95.9284 
 503   0.0000       3.531387        96.0939 
 504   0.0000       3.537957        96.2727 
 505   0.0000       3.539830        96.3237 
 506   0.0000       3.548596        96.5622 
 507   0.0000       3.566790        97.0573 
 508   0.0000       3.573644        97.2438 
 509   0.0000       3.575858        97.3041 
 510   0.0000       3.588728        97.6543 
 511   0.0000       3.591554        97.7312 
 512   0.0000       3.604982        98.0965 
 513   0.0000       3.612363        98.2974 
 514   0.0000       3.618616        98.4676 
 515   0.0000       3.622746        98.5799 
 516   0.0000       3.631932        98.8299 
 517   0.0000       3.633104        98.8618 
 518   0.0000       3.640310        99.0579 
 519   0.0000       3.642114        99.1069 
 520   0.0000       3.644710        99.1776 
 521   0.0000       3.648289        99.2750 
 522   0.0000       3.657214        99.5179 
 523   0.0000       3.664446        99.7146 
 524   0.0000       3.667845        99.8072 
 525   0.0000       3.675674       100.0202 
 526   0.0000       3.684418       100.2581 
 527   0.0000       3.688172       100.3603 
 528   0.0000       3.694783       100.5401 
 529   0.0000       3.699247       100.6616 
 530   0.0000       3.711655       100.9993 
 531   0.0000       3.724386       101.3457 
 532   0.0000       3.731872       101.5494 
 533   0.0000       3.733429       101.5918 
 534   0.0000       3.741955       101.8238 
 535   0.0000       3.744951       101.9053 
 536   0.0000       3.754756       102.1721 
 537   0.0000       3.757756       102.2537 
 538   0.0000       3.761571       102.3576 
 539   0.0000       3.767566       102.5207 
 540   0.0000       3.779096       102.8344 
 541   0.0000       3.782915       102.9384 
 542   0.0000       3.795183       103.2722 
 543   0.0000       3.798124       103.3522 
 544   0.0000       3.803973       103.5114 
 545   0.0000       3.806944       103.5922 
 546   0.0000       3.817045       103.8671 
 547   0.0000       3.827727       104.1578 
 548   0.0000       3.832494       104.2875 
 549   0.0000       3.839436       104.4764 
 550   0.0000       3.848970       104.7358 
 551   0.0000       3.861063       105.0649 
 552   0.0000       3.866237       105.2056 
 553   0.0000       3.873741       105.4098 
 554   0.0000       3.896504       106.0293 
 555   0.0000       3.901877       106.1755 
 556   0.0000       3.915141       106.5364 
 557   0.0000       3.917662       106.6050 
 558   0.0000       3.921127       106.6993 
 559   0.0000       3.927468       106.8718 
 560   0.0000       3.938772       107.1794 
 561   0.0000       3.949015       107.4581 
 562   0.0000       3.960790       107.7786 
 563   0.0000       3.966510       107.9342 
 564   0.0000       3.979466       108.2868 
 565   0.0000       3.982455       108.3681 
 566   0.0000       3.994738       108.7024 
 567   0.0000       4.000880       108.8695 
 568   0.0000       4.013324       109.2081 
 569   0.0000       4.018255       109.3423 
 570   0.0000       4.025706       109.5450 
 571   0.0000       4.036858       109.8485 
 572   0.0000       4.043680       110.0341 
 573   0.0000       4.046568       110.1127 
 574   0.0000       4.061984       110.5322 
 575   0.0000       4.068402       110.7069 
 576   0.0000       4.077195       110.9461 
 577   0.0000       4.083228       111.1103 
 578   0.0000       4.105609       111.7193 
 579   0.0000       4.108413       111.7956 
 580   0.0000       4.116609       112.0186 
 581   0.0000       4.119373       112.0938 
 582   0.0000       4.133246       112.4713 
 583   0.0000       4.141255       112.6893 
 584   0.0000       4.143043       112.7379 
 585   0.0000       4.148245       112.8795 
 586   0.0000       4.155839       113.0861 
 587   0.0000       4.162115       113.2569 
 588   0.0000       4.168923       113.4422 
 589   0.0000       4.171844       113.5217 
 590   0.0000       4.178801       113.7110 
 591   0.0000       4.181332       113.7798 
 592   0.0000       4.184517       113.8665 
 593   0.0000       4.196010       114.1792 
 594   0.0000       4.199939       114.2862 
 595   0.0000       4.205632       114.4411 
 596   0.0000       4.212556       114.6295 
 597   0.0000       4.222745       114.9067 
 598   0.0000       4.231837       115.1541 
 599   0.0000       4.239310       115.3575 
 600   0.0000       4.243908       115.4826 
 601   0.0000       4.251521       115.6898 
 602   0.0000       4.266354       116.0934 
 603   0.0000       4.277720       116.4027 
 604   0.0000       4.288585       116.6983 
 605   0.0000       4.300429       117.0206 
 606   0.0000       4.309524       117.2681 
 607   0.0000       4.313885       117.3868 
 608   0.0000       4.318340       117.5080 
 609   0.0000       4.324616       117.6788 
 610   0.0000       4.340877       118.1213 
 611   0.0000       4.345547       118.2483 
 612   0.0000       4.349073       118.3443 
 613   0.0000       4.359218       118.6204 
 614   0.0000       4.365771       118.7987 
 615   0.0000       4.374591       119.0387 
 616   0.0000       4.386364       119.3590 
 617   0.0000       4.389907       119.4554 
 618   0.0000       4.396110       119.6242 
 619   0.0000       4.401985       119.7841 
 620   0.0000       4.411552       120.0444 
 621   0.0000       4.417657       120.2106 
 622   0.0000       4.421378       120.3118 
 623   0.0000       4.428431       120.5037 
 624   0.0000       4.441191       120.8510 
 625   0.0000       4.448973       121.0627 
 626   0.0000       4.454425       121.2111 
 627   0.0000       4.468153       121.5846 
 628   0.0000       4.477838       121.8482 
 629   0.0000       4.481890       121.9584 
 630   0.0000       4.490007       122.1793 
 631   0.0000       4.500534       122.4658 
 632   0.0000       4.504730       122.5799 
 633   0.0000       4.514180       122.8371 
 634   0.0000       4.529974       123.2669 
 635   0.0000       4.540259       123.5467 
 636   0.0000       4.544887       123.6727 
 637   0.0000       4.560652       124.1016 
 638   0.0000       4.578507       124.5875 
 639   0.0000       4.581302       124.6636 
 640   0.0000       4.594741       125.0292 
 641   0.0000       4.596742       125.0837 
 642   0.0000       4.604868       125.3048 
 643   0.0000       4.606435       125.3475 
 644   0.0000       4.610653       125.4622 
 645   0.0000       4.615388       125.5911 
 646   0.0000       4.631296       126.0240 
 647   0.0000       4.641461       126.3006 
 648   0.0000       4.645210       126.4026 
 649   0.0000       4.651345       126.5695 
 650   0.0000       4.657579       126.7392 
 651   0.0000       4.669570       127.0655 
 652   0.0000       4.679878       127.3460 
 653   0.0000       4.688884       127.5910 
 654   0.0000       4.699838       127.8891 
 655   0.0000       4.706133       128.0604 
 656   0.0000       4.714883       128.2985 
 657   0.0000       4.721501       128.4786 
 658   0.0000       4.731158       128.7414 
 659   0.0000       4.742175       129.0412 
 660   0.0000       4.744694       129.1097 
 661   0.0000       4.758392       129.4824 
 662   0.0000       4.772500       129.8663 
 663   0.0000       4.784933       130.2046 
 664   0.0000       4.822365       131.2232 
 665   0.0000       4.830457       131.4434 
 666   0.0000       4.845107       131.8421 
 667   0.0000       4.849060       131.9496 
 668   0.0000       4.861253       132.2814 
 669   0.0000       4.878545       132.7520 
 670   0.0000       4.901271       133.3704 
 671   0.0000       4.927485       134.0837 
 672   0.0000       4.936551       134.3304 
 673   0.0000       4.954295       134.8132 
 674   0.0000       4.966618       135.1485 
 675   0.0000       4.989160       135.7619 
 676   0.0000       5.014361       136.4477 
 677   0.0000       5.020398       136.6120 
 678   0.0000       5.029051       136.8474 
 679   0.0000       5.043487       137.2402 
 680   0.0000       5.048572       137.3786 
 681   0.0000       5.067563       137.8954 
 682   0.0000       5.088396       138.4623 
 683   0.0000       5.096183       138.6742 
 684   0.0000       5.105011       138.9144 
 685   0.0000       5.127740       139.5329 
 686   0.0000       5.130195       139.5997 
 687   0.0000       5.133094       139.6786 
 688   0.0000       5.146620       140.0467 
 689   0.0000       5.158695       140.3752 
 690   0.0000       5.169385       140.6661 
 691   0.0000       5.179396       140.9385 
 692   0.0000       5.182399       141.0203 
 693   0.0000       5.187102       141.1482 
 694   0.0000       5.201594       141.5426 
 695   0.0000       5.213166       141.8575 
 696   0.0000       5.214448       141.8923 
 697   0.0000       5.225238       142.1860 
 698   0.0000       5.235586       142.4676 
 699   0.0000       5.240144       142.5916 
 700   0.0000       5.270015       143.4044 
 701   0.0000       5.293279       144.0375 
 702   0.0000       5.298373       144.1761 
 703   0.0000       5.313170       144.5787 
 704   0.0000       5.326443       144.9399 
 705   0.0000       5.333445       145.1304 
 706   0.0000       5.342573       145.3788 
 707   0.0000       5.361133       145.8839 
 708   0.0000       5.366281       146.0239 
 709   0.0000       5.377307       146.3240 
 710   0.0000       5.388492       146.6283 
 711   0.0000       5.400991       146.9684 
 712   0.0000       5.425776       147.6429 
 713   0.0000       5.449952       148.3007 
 714   0.0000       5.472939       148.9262 
 715   0.0000       5.488690       149.3548 
 716   0.0000       5.503738       149.7643 
 717   0.0000       5.513960       150.0425 
 718   0.0000       5.522650       150.2789 
 719   0.0000       5.531788       150.5276 
 720   0.0000       5.542955       150.8315 
 721   0.0000       5.553483       151.1180 
 722   0.0000       5.561171       151.3272 
 723   0.0000       5.568488       151.5263 
 724   0.0000       5.586987       152.0296 
 725   0.0000       5.603797       152.4871 
 726   0.0000       5.606813       152.5691 
 727   0.0000       5.612399       152.7211 
 728   0.0000       5.630636       153.2174 
 729   0.0000       5.640321       153.4809 
 730   0.0000       5.659546       154.0041 
 731   0.0000       5.666544       154.1945 
 732   0.0000       5.674660       154.4153 
 733   0.0000       5.685709       154.7160 
 734   0.0000       5.710220       155.3830 
 735   0.0000       5.717613       155.5842 
 736   0.0000       5.724277       155.7655 
 737   0.0000       5.739176       156.1709 
 738   0.0000       5.746803       156.3785 
 739   0.0000       5.748968       156.4374 
 740   0.0000       5.774676       157.1369 
 741   0.0000       5.777294       157.2082 
 742   0.0000       5.801523       157.8675 
 743   0.0000       5.815855       158.2575 
 744   0.0000       5.819353       158.3526 
 745   0.0000       5.842417       158.9802 
 746   0.0000       5.852927       159.2663 
 747   0.0000       5.872227       159.7914 
 748   0.0000       5.908295       160.7729 
 749   0.0000       5.922859       161.1692 
 750   0.0000       5.938711       161.6005 
 751   0.0000       5.970380       162.4623 
 752   0.0000       5.979389       162.7075 
 753   0.0000       5.997046       163.1879 
 754   0.0000       6.011886       163.5917 
 755   0.0000       6.039247       164.3363 
 756   0.0000       6.055931       164.7903 
 757   0.0000       6.068795       165.1403 
 758   0.0000       6.071044       165.2015 
 759   0.0000       6.092122       165.7751 
 760   0.0000       6.102549       166.0588 
 761   0.0000       6.162918       167.7015 
 762   0.0000       6.214401       169.1025 
 763   0.0000       6.225178       169.3957 
 764   0.0000       6.242812       169.8755 
 765   0.0000       6.273504       170.7107 
 766   0.0000       6.299873       171.4283 
 767   0.0000       6.300804       171.4536 
 768   0.0000       6.341824       172.5698 
 769   0.0000       6.348429       172.7495 
 770   0.0000       6.362559       173.1340 
 771   0.0000       6.383406       173.7013 
 772   0.0000       6.406093       174.3187 
 773   0.0000       6.451813       175.5628 
 774   0.0000       6.457667       175.7221 
 775   0.0000       6.473142       176.1431 
 776   0.0000       6.507759       177.0851 
 777   0.0000       6.554112       178.3465 
 778   0.0000       6.598297       179.5488 
 779   0.0000       6.626315       180.3112 
 780   0.0000       6.666635       181.4084 
 781   0.0000       6.683410       181.8648 
 782   0.0000       6.714319       182.7059 
 783   0.0000       6.784368       184.6120 
 784   0.0000       6.804599       185.1626 
 785   0.0000       6.902121       187.8163 
 786   0.0000       6.909801       188.0252 
 787   0.0000       6.919680       188.2941 
 788   0.0000       6.955225       189.2613 
 789   0.0000       7.028450       191.2539 
 790   0.0000       7.044993       191.7040 
 791   0.0000       7.058394       192.0687 
 792   0.0000       7.078978       192.6288 
 793   0.0000       7.123197       193.8320 
 794   0.0000       7.234449       196.8594 
 795   0.0000       7.257305       197.4813 
 796   0.0000       7.279436       198.0835 
 797   0.0000       7.299479       198.6289 
 798   0.0000       7.339041       199.7055 
 799   0.0000       7.373850       200.6527 
 800   0.0000       7.415084       201.7747 
 801   0.0000       7.576694       206.1723 
 802   0.0000       7.583559       206.3591 
 803   0.0000       7.632433       207.6890 
 804   0.0000       7.690531       209.2700 
 805   0.0000       7.812488       212.5886 
 806   0.0000       7.824320       212.9106 
 807   0.0000       7.890535       214.7124 
 808   0.0000       7.931194       215.8187 
 809   0.0000       9.371941       255.0235 
 810   0.0000       9.417309       256.2580 
 811   0.0000      10.707776       291.3734 
 812   0.0000      11.414872       310.6144 
 813   0.0000      11.930768       324.6527 
 814   0.0000      12.530065       340.9604 
 815   0.0000      12.892691       350.8280 
 816   0.0000      13.042221       354.8969 
 817   0.0000      13.123348       357.1044 
 818   0.0000      13.217966       359.6791 
 819   0.0000      13.356239       363.4417 
 820   0.0000      13.558363       368.9418 
 821   0.0000      13.750705       374.1757 
 822   0.0000      13.894618       378.0918 
 823   0.0000      13.928021       379.0007 
 824   0.0000      14.090800       383.4302 
 825   0.0000      14.574635       396.5960 
 826   0.0000      14.664077       399.0298 
 827   0.0000      15.982681       434.9109 

                    ********************************
                    * MULLIKEN POPULATION ANALYSIS *
                    ********************************

-----------------------
MULLIKEN ATOMIC CHARGES
-----------------------
   0 C :   -0.269299
   1 C :    0.035587
   2 O :   -0.366867
   3 C :    0.443495
   4 O :   -0.422695
   5 C :   -0.246394
   6 C :    0.181471
   7 C :   -0.267052
   8 N :   -0.126215
   9 C :    0.211575
  10 S :   -0.440233
  11 N :   -0.217115
  12 C :    0.073413
  13 C :    0.035888
  14 C :   -0.195086
  15 C :   -0.128647
  16 C :   -0.277333
  17 C :    0.315461
  18 O :   -0.355930
  19 C :   -0.246577
  20 H :    0.113043
  21 H :    0.087591
  22 H :    0.089975
  23 H :    0.091108
  24 H :    0.111984
  25 H :    0.133341
  26 H :    0.129893
  27 H :    0.094988
  28 H :    0.199649
  29 H :    0.200923
  30 H :    0.152647
  31 H :    0.155520
  32 H :    0.164465
  33 H :    0.132081
  34 H :    0.241117
  35 H :    0.164225
Sum of atomic charges:   -0.0000000

--------------------------------
MULLIKEN REDUCED ORBITAL CHARGES
--------------------------------
  0 C s       :     3.257737  s :     3.257737
      pz      :     0.932600  p :     2.935176
      px      :     1.003294
      py      :     0.999282
      dz2     :     0.017035  d :     0.071878
      dxz     :     0.010418
      dyz     :     0.022067
      dx2y2   :     0.004722
      dxy     :     0.017636
      f0      :     0.000729  f :     0.004508
      f+1     :     0.000393
      f-1     :     0.001424
      f+2     :     0.000312
      f-2     :     0.000640
      f+3     :     0.000193
      f-3     :     0.000816
  1 C s       :     3.161342  s :     3.161342
      pz      :     0.984802  p :     2.635088
      px      :     0.778266
      py      :     0.872020
      dz2     :     0.023373  d :     0.156150
      dxz     :     0.031077
      dyz     :     0.038142
      dx2y2   :     0.023367
      dxy     :     0.040191
      f0      :     0.002144  f :     0.011834
      f+1     :     0.001123
      f-1     :     0.001649
      f+2     :     0.000465
      f-2     :     0.002269
      f+3     :     0.002014
      f-3     :     0.002170
  2 O s       :     3.721122  s :     3.721122
      pz      :     1.834562  p :     4.609975
      px      :     1.550297
      py      :     1.225116
      dz2     :     0.003860  d :     0.033491
      dxz     :     0.002895
      dyz     :     0.005027
      dx2y2   :     0.011628
      dxy     :     0.010080
      f0      :     0.000271  f :     0.002278
      f+1     :     0.000220
      f-1     :     0.000546
      f+2     :     0.000150
      f-2     :     0.000142
      f+3     :     0.000419
      f-3     :     0.000531
  3 C s       :     3.059180  s :     3.059180
      pz      :     0.762348  p :     2.175434
      px      :     0.701285
      py      :     0.711801
      dz2     :     0.065273  d :     0.295346
      dxz     :     0.031038
      dyz     :     0.070220
      dx2y2   :     0.066263
      dxy     :     0.062552
      f0      :     0.003278  f :     0.026546
      f+1     :     0.003502
      f-1     :     0.002863
      f+2     :     0.005518
      f-2     :     0.003176
      f+3     :     0.004621
      f-3     :     0.003589
  4 O s       :     3.772839  s :     3.772839
      pz      :     1.454629  p :     4.612481
      px      :     1.404385
      py      :     1.753466
      dz2     :     0.008334  d :     0.034972
      dxz     :     0.008946
      dyz     :     0.005802
      dx2y2   :     0.006400
      dxy     :     0.005490
      f0      :     0.000265  f :     0.002403
      f+1     :     0.000446
      f-1     :     0.000254
      f+2     :     0.000401
      f-2     :     0.000541
      f+3     :     0.000223
      f-3     :     0.000273
  5 C s       :     3.204774  s :     3.204774
      pz      :     1.025579  p :     2.948395
      px      :     1.050567
      py      :     0.872249
      dz2     :     0.012799  d :     0.083006
      dxz     :     0.007002
      dyz     :     0.028182
      dx2y2   :     0.009955
      dxy     :     0.025068
      f0      :     0.000836  f :     0.010219
      f+1     :     0.001143
      f-1     :     0.001293
      f+2     :     0.002056
      f-2     :     0.001660
      f+3     :     0.001790
      f-3     :     0.001442
  6 C s       :     3.175401  s :     3.175401
      pz      :     0.789653  p :     2.451918
      px      :     0.817229
      py      :     0.845037
      dz2     :     0.030269  d :     0.176798
      dxz     :     0.019156
      dyz     :     0.044627
      dx2y2   :     0.027140
      dxy     :     0.055607
      f0      :     0.001693  f :     0.014411
      f+1     :     0.001751
      f-1     :     0.001777
      f+2     :     0.002503
      f-2     :     0.002060
      f+3     :     0.002695
      f-3     :     0.001931
  7 C s       :     3.269774  s :     3.269774
      pz      :     0.979840  p :     2.923935
      px      :     1.002425
      py      :     0.941669
      dz2     :     0.019195  d :     0.068694
      dxz     :     0.008363
      dyz     :     0.011276
      dx2y2   :     0.019806
      dxy     :     0.010053
      f0      :     0.000850  f :     0.004649
      f+1     :     0.000618
      f-1     :     0.000566
      f+2     :     0.000336
      f-2     :     0.000828
      f+3     :     0.000728
      f-3     :     0.000721
  8 N s       :     3.343954  s :     3.343954
      pz      :     1.380624  p :     3.718118
      px      :     1.262611
      py      :     1.074882
      dz2     :     0.009909  d :     0.059196
      dxz     :     0.010908
      dyz     :     0.009417
      dx2y2   :     0.016963
      dxy     :     0.012000
      f0      :     0.000579  f :     0.004947
      f+1     :     0.000977
      f-1     :     0.000372
      f+2     :     0.000889
      f-2     :     0.001050
      f+3     :     0.000486
      f-3     :     0.000594
  9 C s       :     3.155173  s :     3.155173
      pz      :     0.743545  p :     2.353612
      px      :     0.792670
      py      :     0.817396
      dz2     :     0.047445  d :     0.262058
      dxz     :     0.028649
      dyz     :     0.060604
      dx2y2   :     0.069395
      dxy     :     0.055965
      f0      :     0.001834  f :     0.017581
      f+1     :     0.002704
      f-1     :     0.001980
      f+2     :     0.003389
      f-2     :     0.001729
      f+3     :     0.003150
      f-3     :     0.002796
 10 S s       :     5.856306  s :     5.856306
      pz      :     3.466791  p :    10.488932
      px      :     3.401901
      py      :     3.620240
      dz2     :     0.011893  d :     0.084867
      dxz     :     0.019451
      dyz     :     0.019405
      dx2y2   :     0.007779
      dxy     :     0.026338
      f0      :     0.001071  f :     0.010128
      f+1     :     0.001183
      f-1     :     0.001043
      f+2     :     0.000771
      f-2     :     0.003325
      f+3     :     0.000929
      f-3     :     0.001806
 11 N s       :     3.387033  s :     3.387033
      pz      :     1.461277  p :     3.767530
      px      :     1.296047
      py      :     1.010206
      dz2     :     0.004866  d :     0.058114
      dxz     :     0.007872
      dyz     :     0.013817
      dx2y2   :     0.014623
      dxy     :     0.016936
      f0      :     0.000603  f :     0.004438
      f+1     :     0.000377
      f-1     :     0.000614
      f+2     :     0.000673
      f-2     :     0.000611
      f+3     :     0.000740
      f-3     :     0.000819
 12 C s       :     3.122289  s :     3.122289
      pz      :     0.888521  p :     2.608547
      px      :     0.855135
      py      :     0.864890
      dz2     :     0.029913  d :     0.184415
      dxz     :     0.037861
      dyz     :     0.043086
      dx2y2   :     0.026245
      dxy     :     0.047310
      f0      :     0.000993  f :     0.011336
      f+1     :     0.001613
      f-1     :     0.001499
      f+2     :     0.001489
      f-2     :     0.002962
      f+3     :     0.001244
      f-3     :     0.001536
 13 C s       :     3.110267  s :     3.110267
      pz      :     0.891165  p :     2.732054
      px      :     0.923823
      py      :     0.917067
      dz2     :     0.020433  d :     0.110447
      dxz     :     0.009063
      dyz     :     0.033678
      dx2y2   :     0.020496
      dxy     :     0.026777
      f0      :     0.001250  f :     0.011344
      f+1     :     0.001583
      f-1     :     0.001236
[...]
      f-1     :     0.006062
      f+2     :     0.006810
      f-2     :     0.005212
      f+3     :     0.006184
      f-3     :     0.008022
 15 C s       :     2.705938  s :     2.705938
      pz      :     0.922152  p :     2.797302
      px      :     0.904737
      py      :     0.970412
      dz2     :     0.108514  d :     0.416763
      dxz     :     0.066928
      dyz     :     0.071194
      dx2y2   :     0.096741
      dxy     :     0.073386
      f0      :     0.003986  f :     0.041036
      f+1     :     0.005388
      f-1     :     0.007202
      f+2     :     0.007024
      f-2     :     0.006846
      f+3     :     0.005271
      f-3     :     0.005320
 16 C s       :     2.701972  s :     2.701972
      pz      :     0.947178  p :     2.868545
      px      :     0.948402
      py      :     0.972966
      dz2     :     0.055945  d :     0.390266
      dxz     :     0.051328
      dyz     :     0.103291
      dx2y2   :     0.085232
      dxy     :     0.094470
      f0      :     0.005445  f :     0.040248
      f+1     :     0.004738
      f-1     :     0.004252
      f+2     :     0.006055
      f-2     :     0.005791
      f+3     :     0.007619
      f-3     :     0.006349
 17 C s       :     2.701766  s :     2.701766
      pz      :     0.840469  p :     2.680957
      px      :     0.815601
      py      :     1.024886
      dz2     :     0.144277  d :     0.707884
      dxz     :     0.106642
      dyz     :     0.160671
      dx2y2   :     0.146275
      dxy     :     0.150018
      f0      :     0.013425  f :     0.099164
      f+1     :     0.014515
      f-1     :     0.011837
      f+2     :     0.016368
      f-2     :     0.016179
      f+3     :     0.013155
      f-3     :     0.013685
 18 O s       :     3.177218  s :     3.177218
      pz      :     1.384565  p :     4.346683
      px      :     1.472356
      py      :     1.489763
      dz2     :     0.010679  d :     0.075484
      dxz     :     0.017420
      dyz     :     0.021597
      dx2y2   :     0.013437
      dxy     :     0.012352
      f0      :     0.000690  f :     0.005060
      f+1     :     0.000715
      f-1     :     0.000506
      f+2     :     0.000921
      f-2     :     0.001034
      f+3     :     0.000525
      f-3     :     0.000669
 19 C s       :     2.695441  s :     2.695441
      pz      :     0.942969  p :     2.843306
      px      :     0.934583
      py      :     0.965754
      dz2     :     0.087479  d :     0.387851
      dxz     :     0.065007
      dyz     :     0.076556
      dx2y2   :     0.084229
      dxy     :     0.074580
      f0      :     0.003968  f :     0.040788
      f+1     :     0.005747
      f-1     :     0.006723
      f+2     :     0.007022
      f-2     :     0.007385
      f+3     :     0.005098
      f-3     :     0.004844
 20 H s       :     0.844683  s :     0.844683
      pz      :     0.054586  p :     0.151400
      px      :     0.040223
      py      :     0.056590
      dz2     :     0.007379  d :     0.027541
      dxz     :     0.003954
      dyz     :     0.006777
      dx2y2   :     0.003970
      dxy     :     0.005461
 21 H s       :     0.850718  s :     0.850718
      pz      :     0.038854  p :     0.151677
      px      :     0.058350
      py      :     0.054473
      dz2     :     0.002292  d :     0.027434
      dxz     :     0.004750
      dyz     :     0.004317
      dx2y2   :     0.009160
      dxy     :     0.006916
 22 H s       :     0.850976  s :     0.850976
      pz      :     0.042590  p :     0.150622
      px      :     0.061179
      py      :     0.046853
      dz2     :     0.003632  d :     0.027545
      dxz     :     0.006237
      dyz     :     0.003159
      dx2y2   :     0.007260
      dxy     :     0.007258
 23 H s       :     0.856338  s :     0.856338
      pz      :     0.044451  p :     0.145532
      px      :     0.061226
      py      :     0.039855
      dz2     :     0.003986  d :     0.026954
      dxz     :     0.006680
      dyz     :     0.003235
      dx2y2   :     0.006176
      dxy     :     0.006877
 24 H s       :     0.855060  s :     0.855060
      pz      :     0.059595  p :     0.145473
      px      :     0.029795
      py      :     0.056082
      dz2     :     0.007761  d :     0.026903
      dxz     :     0.002722
      dyz     :     0.007621
      dx2y2   :     0.003955
      dxy     :     0.004843
 25 H s       :     0.825571  s :     0.825571
      pz      :     0.038886  p :     0.150971
      px      :     0.073365
      py      :     0.038721
      dz2     :     0.002643  d :     0.027771
      dxz     :     0.008892
      dyz     :     0.000260
      dx2y2   :     0.007701
      dxy     :     0.008275
 26 H s       :     0.825353  s :     0.825353
      pz      :     0.072432  p :     0.151340
      px      :     0.040775
      py      :     0.038133
      dz2     :     0.009465  d :     0.027767
      dxz     :     0.008536
      dyz     :     0.008174
      dx2y2   :     0.001187
      dxy     :     0.000405
 27 H s       :     0.845288  s :     0.845288
      pz      :     0.039803  p :     0.150412
      px      :     0.040287
      py      :     0.070322
      dz2     :     0.003076  d :     0.027720
      dxz     :     0.000350
      dyz     :     0.008482
      dx2y2   :     0.007160
      dxy     :     0.008651
 28 H s       :     0.741627  s :     0.741627
      pz      :     0.070419  p :     0.253532
      px      :     0.061472
      py      :     0.121641
      dz2     :     0.005234  d :     0.061793
      dxz     :     0.000294
      dyz     :     0.020960
      dx2y2   :     0.016002
      dxy     :     0.019302
 29 H s       :     0.748713  s :     0.748713
      pz      :     0.102917  p :     0.254348
      px      :     0.100678
      py      :     0.050753
      dz2     :     0.016284  d :     0.061415
      dxz     :     0.013434
      dyz     :     0.008559
      dx2y2   :     0.012067
      dxy     :     0.011071
 30 H s       :     0.830050  s :     0.830050
      pz      :     0.056020  p :     0.153326
      px      :     0.050410
      py      :     0.046897
      dz2     :     0.006457  d :     0.029242
      dxz     :     0.006901
      dyz     :     0.005836
      dx2y2   :     0.004352
      dxy     :     0.005695
 31 H s       :     0.843684  s :     0.843684
      pz      :     0.059247  p :     0.157025
      px      :     0.061506
      py      :     0.036272
      dz2     :     0.006479  d :     0.027515
      dxz     :     0.006862
      dyz     :     0.004648
      dx2y2   :     0.004731
      dxy     :     0.004796
 32 H s       :     0.842855  s :     0.842855
      pz      :     0.036006  p :     0.151421
      px      :     0.040182
      py      :     0.075233
      dz2     :     0.002648  d :     0.026460
      dxz     :     0.000699
      dyz     :     0.007453
      dx2y2   :     0.007802
      dxy     :     0.007858
 33 H s       :     0.848232  s :     0.848232
      pz      :     0.057582  p :     0.158960
      px      :     0.048206
      py      :     0.053172
      dz2     :     0.006445  d :     0.027743
      dxz     :     0.004627
      dyz     :     0.006520
      dx2y2   :     0.005232
      dxy     :     0.004919
 34 H s       :     0.706243  s :     0.706243
      pz      :     0.106540  p :     0.347608
      px      :     0.089836
      py      :     0.151232
      dz2     :     0.022359  d :     0.099517
      dxz     :     0.011376
      dyz     :     0.024520
      dx2y2   :     0.020092
      dxy     :     0.021170
 35 H s       :     0.838191  s :     0.838191
      pz      :     0.037229  p :     0.156516
      px      :     0.042585
      py      :     0.076702
      dz2     :     0.002700  d :     0.027921
      dxz     :     0.000720
      dyz     :     0.008099
      dx2y2   :     0.008045
      dxy     :     0.008357


                      *****************************
                      * MAYER POPULATION ANALYSIS *
                      *****************************

  NA   - Mulliken gross atomic population
  ZA   - Total nuclear charge
  QA   - Mulliken gross atomic charge
  VA   - Mayer's total valence
  BVA  - Mayer's bonded valence
  FA   - Mayer's free valence

  ATOM       NA         ZA         QA         VA         BVA        FA
  0 C      6.2693     6.0000    -0.2693     3.8902     3.8902    -0.0000
  1 C      5.9644     6.0000     0.0356     3.8526     3.8526     0.0000
  2 O      8.3669     8.0000    -0.3669     2.0141     2.0141    -0.0000
  3 C      5.5565     6.0000     0.4435     4.2317     4.2317     0.0000
  4 O      8.4227     8.0000    -0.4227     2.0844     2.0844     0.0000
  5 C      6.2464     6.0000    -0.2464     3.6727     3.6727    -0.0000
  6 C      5.8185     6.0000     0.1815     3.8479     3.8479     0.0000
  7 C      6.2671     6.0000    -0.2671     3.9023     3.9023    -0.0000
  8 N      7.1262     7.0000    -0.1262     3.3102     3.3102    -0.0000
  9 C      5.7884     6.0000     0.2116     4.1546     4.1546     0.0000
 10 S     16.4402    16.0000    -0.4402     1.7551     1.7551     0.0000
 11 N      7.2171     7.0000    -0.2171     3.2388     3.2388    -0.0000
 12 C      5.9266     6.0000     0.0734     3.9006     3.9006    -0.0000
 13 C      5.9641     6.0000     0.0359     3.7433     3.7433    -0.0000
 14 C      6.1951     6.0000    -0.1951     3.8343     3.8343     0.0000
 15 C      6.1286     6.0000    -0.1286     3.7913     3.7913    -0.0000
 16 C      6.2773     6.0000    -0.2773     3.7957     3.7957    -0.0000
 17 C      5.6845     6.0000     0.3155     3.8642     3.8642    -0.0000
 18 O      8.3559     8.0000    -0.3559     2.1188     2.1188     0.0000
 19 C      6.2466     6.0000    -0.2466     3.8499     3.8499    -0.0000
 20 H      0.8870     1.0000     0.1130     0.9919     0.9919    -0.0000
 21 H      0.9124     1.0000     0.0876     0.9831     0.9831    -0.0000
 22 H      0.9100     1.0000     0.0900     0.9851     0.9851     0.0000
 23 H      0.9089     1.0000     0.0911     0.9872     0.9872     0.0000
 24 H      0.8880     1.0000     0.1120     0.9730     0.9730    -0.0000
 25 H      0.8667     1.0000     0.1333     0.9800     0.9800    -0.0000
 26 H      0.8701     1.0000     0.1299     0.9805     0.9805    -0.0000
 27 H      0.9050     1.0000     0.0950     0.9855     0.9855    -0.0000
 28 H      0.8004     1.0000     0.1996     1.0209     1.0209    -0.0000
 29 H      0.7991     1.0000     0.2009     1.0150     1.0150     0.0000
 30 H      0.8474     1.0000     0.1526     0.9879     0.9879     0.0000
 31 H      0.8445     1.0000     0.1555     0.9842     0.9842     0.0000
 32 H      0.8355     1.0000     0.1645     0.9755     0.9755    -0.0000
 33 H      0.8679     1.0000     0.1321     0.9914     0.9914    -0.0000
 34 H      0.7589     1.0000     0.2411     1.0101     1.0101    -0.0000
 35 H      0.8358     1.0000     0.1642     0.9896     0.9896    -0.0000

  Mayer bond orders larger than 0.100000
B(  0-C ,  1-C ) :   0.9822 B(  0-C , 20-H ) :   0.9755 B(  0-C , 21-H ) :   0.9774 
B(  0-C , 22-H ) :   0.9777 B(  1-C ,  2-O ) :   0.8830 B(  1-C , 23-H ) :   0.9719 
B(  1-C , 24-H ) :   0.9755 B(  2-O ,  3-C ) :   1.1127 B(  3-C ,  4-O ) :   1.9824 
B(  3-C ,  5-C ) :   1.0788 B(  5-C ,  6-C ) :   1.6271 B(  5-C , 12-C ) :   0.9525 
B(  6-C ,  7-C ) :   0.9660 B(  6-C ,  8-N ) :   1.1569 B(  7-C , 25-H ) :   0.9609 
B(  7-C , 26-H ) :   0.9585 B(  7-C , 27-H ) :   0.9904 B(  8-N ,  9-C ) :   1.1856 
B(  8-N , 28-H ) :   0.9462 B(  9-C , 10-S ) :   1.6069 B(  9-C , 11-N ) :   1.3100 
B( 11-N , 12-C ) :   0.9651 B( 11-N , 29-H ) :   0.9483 B( 12-C , 13-C ) :   0.9615 
B( 12-C , 30-H ) :   1.0013 B( 13-C , 14-C ) :   1.3474 B( 13-C , 19-C ) :   1.3782 
B( 14-C , 15-C ) :   1.3900 B( 14-C , 31-H ) :   0.9723 B( 15-C , 16-C ) :   1.3583 
B( 15-C , 32-H ) :   0.9697 B( 16-C , 17-C ) :   1.3330 B( 16-C , 33-H ) :   0.9844 
B( 17-C , 18-O ) :   1.1060 B( 17-C , 19-C ) :   1.3650 B( 18-O , 34-H ) :   0.9793 
B( 19-C , 35-H ) :   0.9595 

-------
TIMINGS
-------

Total SCF time: 0 days 1 hours 37 min 50 sec 

Total time                  ....    5870.170 sec
Sum of individual times     ....    5859.381 sec  ( 99.8%)

Fock matrix formation       ....    5832.665 sec  ( 99.4%)
Diagonalization             ....       5.457 sec  (  0.1%)
Density matrix formation    ....       0.287 sec  (  0.0%)
Population analysis         ....       2.080 sec  (  0.0%)
Initial guess               ....       4.659 sec  (  0.1%)
Orbital Transformation      ....       0.000 sec  (  0.0%)
Orbital Orthonormalization  ....       0.000 sec  (  0.0%)
DIIS solution               ....       6.011 sec  (  0.1%)
SOSCF solution              ....       7.080 sec  (  0.1%)

------------------------------------------------------------------------------
                                ORCA  MP2 
------------------------------------------------------------------------------

Freezing NCore=48 chemical core electrons

-------------
RI-MP2 ENERGY
-------------
Dimension of the basis                    ...  828
Memory devoted to MP2                     ...  256 MB   
Data format for buffers                   ... DOUBLE
Compression type for matrix containers    ... UNCOMPRESSED
Overall scaling of the MP2 energy         ...   1.000e+00
Calculating two index integrals           ... done (    0.035 sec)
Cholesky decomposition of V**-1           ... done (    2.146 sec)

-----------------
RI-TRANSFORMATION (AUX index driven)
-----------------

Dimension of the orbital-basis         ... 828
Dimension of the aux-basis             ... 2141
Transformation of internal/external MOs...   24-  76 to   77- 827
Number Format for Storage              ... Double (8 Byte)
Integral mode                          ... Direct

First Phase: integral generation and transformation of MO indices
  Aux angular momentum 0               ... done (   10.491 sec)
  Aux angular momentum 1               ... done (   17.356 sec)
  Aux angular momentum 2               ... done (   19.667 sec)
  Aux angular momentum 3               ... done (   15.844 sec)
  Aux angular momentum 4               ... done (    5.812 sec)
Closing buffer VIA ( 0.63 GB; CompressionRatio= 1.00)
  Phase 1 completed in    69.524 sec
Second Phase: sorting and transformation of aux index

IA-Transformation
Memory available                       ... 167 MB 
Max. # MO pairs treated in a batch     ... 12    
# of internal orbitals                 ... 53
# batches for internal orbitals        ... 5
Closing buffer IAV ( 0.63 GB; CompressionRatio= 1.00)
(ia|v) transformation done in    74.311 sec

  Phase 2 completed in    74.375 sec
RI-Integral transformation completed in   143.967 sec
Opening buffers                              ... done

Starting loop over batches of integrals:

Operator 0  - window                       ... ( 24- 76)x( 77-827)
Operator 0  - Memory available             ...   256 MB
Operator 0  - Memory needed per MO         ...  12.3 MB
Operator 0  - Number of orbitals per batch ... 13
Operator 0  - Number of batches            ... 5

OPERATOR  0   PASS   0:  MOs    24 ...   36
  Reading integrals       ... ok
  Internal MO  26
  Internal MO  29
  Internal MO  32
  Internal MO  35
OPERATOR  0   PASS   1:  MOs    37 ...   49
  Reading integrals       ... ok
  Internal MO  38
  Internal MO  41
  Internal MO  44
  Internal MO  47
OPERATOR  0   PASS   2:  MOs    50 ...   62
  Reading integrals       ... ok
  Internal MO  50
  Internal MO  53
  Internal MO  56
  Internal MO  59
  Internal MO  62
OPERATOR  0   PASS   3:  MOs    63 ...   75
  Reading integrals       ... ok
  Internal MO  65
  Internal MO  68
  Internal MO  71
  Internal MO  74
OPERATOR  0   PASS   4:  MOs    76 ...   76
  Reading integrals       ... ok
Time spent in pair loops =   477.481 sec
Deleting buffer (Ka|jb)[aa] ...done

-----------------------------------------------
 RI-MP2 CORRELATION ENERGY:     -3.529223798 Eh
-----------------------------------------------


-------
TIMINGS
-------

Total time                :  624.285 sec
Integral trafo            :  143.978 sec ( 23.1%)
I/O of integrals          :    4.755 sec (  0.8%)
K(i,j) Operators          :  397.274 sec ( 63.6%)
T(i,j) pair energies      :    4.042 sec (  0.6%)
V-calculation             :    0.035 sec (  0.0%)
V**(-1/2)                 :    2.146 sec (  0.3%)
Gamma(ia|P)               :    0.000 sec (  0.0%)
Gamma-Trafo               :    0.000 sec (  0.0%)
D(virtual)                :    0.000 sec (  0.0%)
D(internal)               :    0.000 sec (  0.0%)
W(virtual)                :    0.000 sec (  0.0%)
W(internal)               :    0.000 sec (  0.0%)
L(virtual)                :    0.000 sec (  0.0%)
L(internal)               :    0.000 sec (  0.0%)
G(D)                      :    0.000 sec (  0.0%)
G(Z)                      :    0.000 sec (  0.0%)
Z-Vector Solution         :    0.000 sec (  0.0%)
3-Index Derivative        :    0.000 sec (  0.0%)
2-Index Derivative        :    0.000 sec (  0.0%)
Separable Gradient        :    0.000 sec (  0.0%)


---------------------------------------
MP2 TOTAL ENERGY:    -1274.334472162 Eh
---------------------------------------

-------------------------   --------------------
FINAL SINGLE POINT ENERGY     -1274.334472161547
-------------------------   --------------------


                            ***************************************
                            *     ORCA property calculations      *
                            ***************************************


  WARNING: The energy has been calculated at the MP2 level but the densities
           used in the property calculations are still SCF densities
           MP2 response densities have not been calculated 
           use %mp2 Density relaxed end
           or  %mp2 Density unrelaxed end

                                    ---------------------
                                    Active property flags
                                    ---------------------
   (+) Dipole Moment


------------------------------------------------------------------------------
                       ORCA ELECTRIC PROPERTIES CALCULATION
------------------------------------------------------------------------------

Dipole Moment Calculation                       ... on
Quadrupole Moment Calculation                   ... off
Polarizability Calculation                      ... off
GBWName                                         ... CONFS/Conf770.orca.gbw
Electron density file                           ... CONFS/Conf770.orca.scfp
The origin for moment calculation is the CENTER OF MASS  = (31.897624, 33.068069 33.452677)

-------------
DIPOLE MOMENT
-------------
                                X             Y             Z
Electronic contribution:      9.37051      10.34903       9.25671
Nuclear contribution   :    -10.40611     -11.94295      -9.32239
                        -----------------------------------------
Total Dipole Moment    :     -1.03560      -1.59392      -0.06569
                        -----------------------------------------
Magnitude (a.u.)       :      1.90193
Magnitude (Debye)      :      4.83433



--------------------
Rotational spectrum 
--------------------
 
Rotational constants in cm-1:     0.011550     0.008519     0.005890 
Rotational constants in MHz :   346.261614   255.389275   176.570179 

 Dipole components along the rotational axes: 
x,y,z [a.u.] :    -1.898421    -0.050953     0.103709 
x,y,z [Debye]:    -4.825402    -0.129512     0.263606 

 

Timings for individual modules:

Sum of individual times         ...     6496.766 sec (= 108.279 min)
GTO integral calculation        ...        1.464 sec (=   0.024 min)   0.0 %
SCF iterations                  ...     5870.288 sec (=  97.838 min)  90.4 %
MP2 module                      ...      625.013 sec (=  10.417 min)   9.6 %
                             ****ORCA TERMINATED NORMALLY****
TOTAL RUN TIME: 0 days 1 hours 48 minutes 19 seconds 50 msec
