
                                 *****************
                                 * O   R   C   A *
                                 *****************

           --- An Ab Initio, DFT and Semiempirical electronic structure package ---

                  #######################################################
                  #                        -***-                        #
                  #          Department of theory and spectroscopy      #
                  #               Directorship: Frank Neese             #
                  #        Max Planck Institute fuer Kohlenforschung    #
                  #                Kaiser Wilhelm Platz 1               #
                  #                 D-45470 Muelheim/Ruhr               #
                  #                      Germany                        #
                  #                                                     #
                  #                  All rights reserved                #
                  #                        -***-                        #
                  #######################################################


                         Program Version 4.2.0 -  RELEASE  -


 With contributions from (in alphabetic order):
   Daniel Aravena         : Magnetic Suceptibility
   Michael Atanasov       : Ab Initio Ligand Field Theory (pilot matlab implementation)
   Alexander A. Auer      : GIAO ZORA, VPT2
   Ute Becker             : Parallelization
   Giovanni Bistoni       : ED, misc. LED, open-shell LED, HFLED
   Martin Brehm           : Molecular dynamics
   Dmytro Bykov           : SCF Hessian
   Vijay G. Chilkuri      : MRCI spin determinant printing, contributions to CSF-ICE
   Dipayan Datta          : RHF DLPNO-CCSD density
   Achintya Kumar Dutta   : EOM-CC, STEOM-CC
   Dmitry Ganyushin       : Spin-Orbit,Spin-Spin,Magnetic field MRCI
   Miquel Garcia          : C-PCM Hessian, Gaussian charge scheme
   Yang Guo               : DLPNO-NEVPT2, CIM, IAO-localization
   Andreas Hansen         : Spin unrestricted coupled pair/coupled cluster methods
   Benjamin Helmich-Paris : CASSCF linear response (MC-RPA)
   Lee Huntington         : MR-EOM, pCC
   Robert Izsak           : Overlap fitted RIJCOSX, COSX-SCS-MP3, EOM
   Christian Kollmar      : KDIIS, OOCD, Brueckner-CCSD(T), CCSD density
   Simone Kossmann        : Meta GGA functionals, TD-DFT gradient, OOMP2, MP2 Hessian
   Martin Krupicka        : AUTO-CI
   Lucas Lang             : DCDCAS
   Dagmar Lenk            : GEPOL surface, SMD
   Dimitrios Liakos       : Extrapolation schemes; Compound Job, initial MDCI parallelization
   Dimitrios Manganas     : Further ROCIS development; embedding schemes
   Dimitrios Pantazis     : SARC Basis sets
   Taras Petrenko         : DFT Hessian,TD-DFT gradient, ASA, ECA, R-Raman, ABS, FL, XAS/XES, NRVS
   Peter Pinski           : DLPNO-MP2, DLPNO-MP2 Gradient
   Christoph Reimann      : Effective Core Potentials
   Marius Retegan         : Local ZFS, SOC
   Christoph Riplinger    : Optimizer, TS searches, QM/MM, DLPNO-CCSD(T), (RO)-DLPNO pert. Triples
   Tobias Risthaus        : Range-separated hybrids, TD-DFT gradient, RPA, STAB
   Michael Roemelt        : Original ROCIS implementation
   Masaaki Saitow         : Open-shell DLPNO-CCSD energy and density
   Barbara Sandhoefer     : DKH picture change effects
   Avijit Sen             : IP-ROCIS
   Kantharuban Sivalingam : CASSCF convergence, NEVPT2, FIC-MRCI
   Bernardo de Souza      : ESD, SOC TD-DFT
   Georgi Stoychev        : AutoAux, RI-MP2 NMR
   Willem Van den Heuvel  : Paramagnetic NMR
   Boris Wezisla          : Elementary symmetry handling
   Frank Wennmohs         : Technical directorship


 We gratefully acknowledge several colleagues who have allowed us to
 interface, adapt or use parts of their codes:
   Stefan Grimme, W. Hujo, H. Kruse,             : VdW corrections, initial TS optimization,
                  C. Bannwarth                     DFT functionals, gCP, sTDA/sTD-DF
   Ed Valeev, F. Pavosevic, A. Kumar             : LibInt (2-el integral package), F12 methods
   Garnet Chan, S. Sharma, J. Yang, R. Olivares  : DMRG
   Ulf Ekstrom                                   : XCFun DFT Library
   Mihaly Kallay                                 : mrcc  (arbitrary order and MRCC methods)
   Andreas Klamt, Michael Diedenhofen            : otool_cosmo (COSMO solvation model)
   Jiri Pittner, Ondrej Demel                    : Mk-CCSD
   Frank Weinhold                                : gennbo (NPA and NBO analysis)
   Christopher J. Cramer and Donald G. Truhlar   : smd solvation model
   Lars Goerigk                                  : TD-DFT with DH, B97 family of functionals
   V. Asgeirsson, H. Jonsson                     : NEB implementation
   FAccTs GmbH                                   : IRC, NEB, NEB-TS, Multilevel, MM, QM/MM, CI optimization
   S Lehtola, MJT Oliveira, MAL Marques          : LibXC Library


 Your calculation uses the libint2 library for the computation of 2-el integrals
 For citations please refer to: http://libint.valeyev.net

 Your ORCA version has been built with support for libXC version: 4.2.3
 For citations please refer to: https://tddft.org/programs/libxc/

 This ORCA versions uses:
   CBLAS   interface :  Fast vector & matrix operations
   LAPACKE interface :  Fast linear algebra routines
   SCALAPACK package :  Parallel linear algebra routines


----- Orbital basis set information -----
Your calculation utilizes the basis: cc-pVTZ 
       H, B-Ne : Obtained from the ccRepo (grant-hill.group.shef.ac.uk/ccrepo) Feb. 2017
                 T. H. Dunning, Jr., J. Chem. Phys. 90, 1007 (1989)
            He : Obtained from the ccRepo (grant-hill.group.shef.ac.uk/ccrepo) Feb. 2017
                 D. E. Woon, T. H. Dunning, Jr., J. Chem. Phys. 100, 2975 (1994)
  Li-Be, Na-Mg : Obtained from the ccRepo (grant-hill.group.shef.ac.uk/ccrepo) Feb. 2017
                 B. P. Prascher, D. E. Woon, K. A. Peterson, T. H. Dunning, Jr., A. K. Wilson, Theor. Chem. Acc. 128, 69 (2011)
         Al-Ar : Obtained from the ccRepo (grant-hill.group.shef.ac.uk/ccrepo) Feb. 2017
                 D. E. Woon, T. H. Dunning, Jr., J. Chem. Phys. 98, 1358 (1993)
            Ca : Obtained from the Peterson Research Group Website (tyr0.chem.wsu.edu/~kipeters) Feb. 2017
                 J. Koput, K. A. Peterson, J. Phys. Chem. 106, 9595 (2002)
         Sc-Zn : Obtained from the ccRepo (grant-hill.group.shef.ac.uk/ccrepo) Feb. 2017
                 N. B. Balabanov, K. A. Peterson, J. Chem. Phys. 123, 064107 (2005)
                 N. B. Balabanov, K. A. Peterson, J. Chem. Phys. 125, 074110 (2006)
         Ga-Kr : Obtained from the ccRepo (grant-hill.group.shef.ac.uk/ccrepo) Feb. 2017
                 A. K. Wilson, D. E. Woon, K. A. Peterson, T. H. Dunning, Jr., J. Chem. Phys. 110, 7667 (1999)
             Y : Obtained from the ccRepo (grant-hill.group.shef.ac.uk/ccrepo) Feb. 2017
                 K. A. Peterson, D. Figgen, M. Dolg, H. Stoll, J. Chem. Phys. 126, 124101 (2007)
        Ag, Au : Obtained from the Peterson Research Group Website (tyr0.chem.wsu.edu/~kipeters) Feb. 2017
                 K. A. Peterson, C. Puzzarini, Theor. Chem. Acc. 114, 283 (2005)

----- AuxC basis set information -----
Your calculation utilizes the auxiliary basis: cc-pVTZ/C 
  Obtained from the EMSL Basis Set Exchange (bse.pnl.gov) Feb. 2017
  H-He, B-F, Al-Ar, Ga-Kr : F. Weigend, A. Kohn, C. Hattig, J. Chem. Phys. 116, 3175 (2002)
             Li-Be, Na-Mg : C. Haettig, Phys. Chem. Chem. Phys. 7, 59 (2005)
                       Ne : C. Haettig, Phys. Chem. Chem. Phys. 7, 59 (2005)
                            F. Weigend, A. Kohn, C. Hattig, J. Chem. Phys. 116, 3175 (2002)
                    Sc-Zn : J. G. Hill, J. A. Platts, J. Chem. Phys. 128, 044104 (2008)

================================================================================
                                        WARNINGS
                       Please study these warnings very carefully!
================================================================================


WARNING: No MP2 level density has been requested!
         To caclulate MP2 level properties use
         %mp2 Density relaxed end
         or
         %mp2 Density unrelaxed end

WARNING: Post HF methods need fully converged wavefunctions
  ===> : Setting SCFConvForced true
         You can overwrite this default with %scf ConvForced false 


INFO   : the flag for use of LIBINT has been found!

================================================================================
                                       INPUT FILE
================================================================================
NAME = CONFS/Conf68.orca
|  1> ! ri-mp2 cc-pvtz cc-pvtz/c TightSCF NoKeepInts
|  2> 
|  3> %scf
|  4>   MaxCore 4096
|  5> end
|  6> *xyz  0  1
|  7>     C       14.3017807   15.2881243   13.6334092
|  8>     C       14.8996111   15.4094414   15.0449895
|  9>     O       15.9126742   16.4268854   14.9947321
| 10>     C       16.9207080   16.3726818   15.9096125
| 11>     O       17.5000070   15.3314711   16.1686555
| 12>     C       17.1132440   17.6305214   16.7075521
| 13>     C       16.8989540   18.8671346   16.1854919
| 14>     C       16.2388453   19.2189865   14.8666610
| 15>     N       17.3472466   20.0100141   16.8526376
| 16>     C       18.2036995   19.9977005   17.9203390
| 17>     S       18.7811055   21.3943722   18.5921114
| 18>     N       18.5757247   18.7634509   18.3895300
| 19>     C       18.0138569   17.4751504   17.9393218
| 20>     C       17.3713835   16.6734190   19.0636062
| 21>     C       17.7819727   15.3547737   19.3296847
| 22>     C       17.1885809   14.6171685   20.3678557
| 23>     C       16.1767767   15.2038379   21.1472524
| 24>     C       15.7642557   16.5170988   20.8827251
| 25>     O       14.7843213   17.0843709   21.6305183
| 26>     C       16.3562583   17.2483931   19.8479716
| 27>     H       15.0781255   15.0125151   12.9085604
| 28>     H       13.8546587   16.2390543   13.3184603
| 29>     H       13.5223135   14.5168285   13.6106713
| 30>     H       14.1251800   15.6733919   15.7770513
| 31>     H       15.3303079   14.4385997   15.3273736
| 32>     H       16.7309806   18.7015546   14.0333932
| 33>     H       16.2777041   20.2922099   14.6436883
| 34>     H       15.1820549   18.9243364   14.8706081
| 35>     H       17.1017468   20.9231898   16.5050938
| 36>     H       19.1918580   18.7821330   19.1924462
| 37>     H       18.9271168   16.9774544   17.5816694
| 38>     H       18.5540060   14.8954515   18.7166694
| 39>     H       17.5103952   13.5952673   20.5603817
| 40>     H       15.7150458   14.6372297   21.9489603
| 41>     H       14.5280140   16.4410705   22.3082640
| 42>     H       16.0264856   18.2647169   19.6600511
| 43> *
| 44> 
| 45>                          ****END OF INPUT****
================================================================================

                       ****************************
                       * Single Point Calculation *
                       ****************************

---------------------------------
CARTESIAN COORDINATES (ANGSTROEM)
---------------------------------
  C     14.301781   15.288124   13.633409
  C     14.899611   15.409441   15.044989
  O     15.912674   16.426885   14.994732
  C     16.920708   16.372682   15.909612
  O     17.500007   15.331471   16.168655
  C     17.113244   17.630521   16.707552
  C     16.898954   18.867135   16.185492
  C     16.238845   19.218986   14.866661
  N     17.347247   20.010014   16.852638
  C     18.203699   19.997701   17.920339
  S     18.781105   21.394372   18.592111
  N     18.575725   18.763451   18.389530
  C     18.013857   17.475150   17.939322
  C     17.371384   16.673419   19.063606
  C     17.781973   15.354774   19.329685
  C     17.188581   14.617168   20.367856
  C     16.176777   15.203838   21.147252
  C     15.764256   16.517099   20.882725
  O     14.784321   17.084371   21.630518
  C     16.356258   17.248393   19.847972
  H     15.078126   15.012515   12.908560
  H     13.854659   16.239054   13.318460
  H     13.522313   14.516829   13.610671
  H     14.125180   15.673392   15.777051
  H     15.330308   14.438600   15.327374
  H     16.730981   18.701555   14.033393
  H     16.277704   20.292210   14.643688
  H     15.182055   18.924336   14.870608
  H     17.101747   20.923190   16.505094
  H     19.191858   18.782133   19.192446
  H     18.927117   16.977454   17.581669
  H     18.554006   14.895452   18.716669
  H     17.510395   13.595267   20.560382
  H     15.715046   14.637230   21.948960
  H     14.528014   16.441070   22.308264
  H     16.026486   18.264717   19.660051

----------------------------
CARTESIAN COORDINATES (A.U.)
----------------------------
  NO LB      ZA    FRAG     MASS         X           Y           Z
   0 C     6.0000    0    12.011   27.026449   28.890368   25.763410
   1 C     6.0000    0    12.011   28.156184   29.119624   28.430910
   2 O     8.0000    0    15.999   30.070596   31.042315   28.335937
   3 C     6.0000    0    12.011   31.975504   30.939885   30.064811
   4 O     8.0000    0    15.999   33.070221   28.972282   30.554331
   5 C     6.0000    0    12.011   32.339344   33.316857   31.572698
   6 C     6.0000    0    12.011   31.934395   35.653717   30.586147
   7 C     6.0000    0    12.011   30.686970   36.318621   28.093918
   8 N     7.0000    0    14.007   32.781545   37.813447   31.846870
   9 C     6.0000    0    12.011   34.400007   37.790177   33.864533
  10 S    16.0000    0    32.060   35.491146   40.429504   35.133999
  11 N     7.0000    0    14.007   35.103032   35.457784   34.751175
  12 C     6.0000    0    12.011   34.041256   33.023248   33.900405
  13 C     6.0000    0    12.011   32.827157   31.508196   36.024995
  14 C     6.0000    0    12.011   33.603059   29.016317   36.527810
  15 C     6.0000    0    12.011   32.481711   27.622445   38.489669
  16 C     6.0000    0    12.011   30.569678   28.731090   39.962516
  17 C     6.0000    0    12.011   29.790126   31.212793   39.462631
  18 O     8.0000    0    15.999   27.938318   32.284782   40.875756
  19 C     6.0000    0    12.011   30.908849   32.594739   37.507231
  20 H     1.0000    0     1.008   28.493528   28.369542   24.393644
  21 H     1.0000    0     1.008   26.181511   30.687365   25.168242
  22 H     1.0000    0     1.008   25.553469   27.432830   25.720441
  23 H     1.0000    0     1.008   26.692722   29.618418   29.814306
  24 H     1.0000    0     1.008   28.970083   27.284999   28.964538
  25 H     1.0000    0     1.008   31.616971   35.340816   26.519270
  26 H     1.0000    0     1.008   30.760403   38.346719   27.672560
  27 H     1.0000    0     1.008   28.689926   35.761813   28.101377
  28 H     1.0000    0     1.008   32.317618   39.539099   31.190107
  29 H     1.0000    0     1.008   36.267356   35.493088   36.268467
  30 H     1.0000    0     1.008   35.767067   32.082739   33.224540
  31 H     1.0000    0     1.008   35.061990   28.148324   35.369379
  32 H     1.0000    0     1.008   33.089851   25.691332   38.853491
  33 H     1.0000    0     1.008   29.697133   27.660355   41.477524
  34 H     1.0000    0     1.008   27.453968   31.069121   42.156509
  35 H     1.0000    0     1.008   30.285669   34.515313   37.152112

--------------------------------
INTERNAL COORDINATES (ANGSTROEM)
--------------------------------
 C      0   0   0     0.000000000000     0.00000000     0.00000000
 C      1   0   0     1.537750945135     0.00000000     0.00000000
 O      2   1   0     1.436668000608   107.33148986     0.00000000
 C      3   2   1     1.362378918840   118.03922805   205.43091687
 O      4   3   2     1.219348321459   121.88108274    45.48750505
 C      4   3   2     1.501978087680   114.72640354   234.26145370
 C      6   4   3     1.359293663245   122.52207676   326.09280448
 C      7   6   4     1.516198601155   127.86660174    10.92588747
 N      7   6   4     1.397219807963   120.67563918   193.37693575
 C      9   7   6     1.368813162643   124.46040071    11.42931670
 S     10   9   7     1.653894701551   121.84808754   175.40208537
 N     10   9   7     1.371829077916   116.39488971   356.47077608
 C     12  10   9     1.475839092288   125.29624832   352.70163745
 C     13  12  10     1.523010413470   113.26168146   239.23918716
 C     14  13  12     1.406487357402   120.66651068   235.45261693
 C     15  14  13     1.404981951704   120.57719849   179.95996949
 C     16  15  14     1.405484948338   119.64790944   359.94371671
 C     17  16  15     1.401714114702   119.88671581     0.15923929
 O     18  17  16     1.356931735095   120.01366701   179.76569936
 C     18  17  16     1.398561131085   120.32775976   359.88454922
 H      1   2   3     1.097304635219   110.55665319    59.86522919
 H      1   2   3     1.096986215681   110.70874991   299.66115732
 H      1   2   3     1.096805971478   110.53598572   179.65740432
 H      2   1   3     1.097874252415   110.90515087   120.81086170
 H      2   1   3     1.098987770597   108.57425601   239.94795497
 H      8   7   6     1.097391521364   110.84301687   305.30932373
 H      8   7   6     1.096829657509   112.85925079   185.40494591
 H      8   7   6     1.097105378057   110.72714902    65.08020335
 H      9   7   6     1.007445633168   119.90229546   186.21339131
 H     12  10   9     1.012246851540   114.81891827   181.36323511
 H     13  12  10     1.099845531241   100.25830915   121.37986513
 H     15  14  13     1.087566116499   119.77264515   358.95184392
 H     16  15  14     1.088536984637   119.91287851   179.62189263
 H     17  16  15     1.084885170534   119.87958859   179.91558981
 H     19  18  17     0.968952047597   107.39416521     2.19129432
 H     20  18  17     1.084886267971   119.29683076   180.20963099

---------------------------
INTERNAL COORDINATES (A.U.)
---------------------------
 C      0   0   0     0.000000000000     0.00000000     0.00000000
 C      1   0   0     2.905928148484     0.00000000     0.00000000
 O      2   1   0     2.714909066518   107.33148986     0.00000000
 C      3   2   1     2.574523047235   118.03922805   205.43091687
 O      4   3   2     2.304234389414   121.88108274    45.48750505
 C      4   3   2     2.838327244867   114.72640354   234.26145370
 C      6   4   3     2.568692759108   122.52207676   326.09280448
 C      7   6   4     2.865200120817   127.86660174    10.92588747
 N      7   6   4     2.640362785940   120.67563918   193.37693575
 C      9   7   6     2.586682005902   124.46040071    11.42931670
 S     10   9   7     3.125408040275   121.84808754   175.40208537
 N     10   9   7     2.592381259811   116.39488971   356.47077608
 C     12  10   9     2.788931702159   125.29624832   352.70163745
 C     13  12  10     2.878072580568   113.26168146   239.23918716
 C     14  13  12     2.657875916312   120.66651068   235.45261693
 C     15  14  13     2.655031111824   120.57719849   179.95996949
 C     16  15  14     2.655981637707   119.64790944   359.94371671
 C     17  16  15     2.648855794839   119.88671581     0.15923929
 O     18  17  16     2.564229361756   120.01366701   179.76569936
 C     18  17  16     2.642897519298   120.32775976   359.88454922
 H      1   2   3     2.073605246046   110.55665319    59.86522919
 H      1   2   3     2.073003520325   110.70874991   299.66115732
 H      1   2   3     2.072662908143   110.53598572   179.65740432
 H      2   1   3     2.074681666549   110.90515087   120.81086170
 H      2   1   3     2.076785910957   108.57425601   239.94795497
 H      8   7   6     2.073769437064   110.84301687   305.30932373
 H      8   7   6     2.072707668254   112.85925079   185.40494591
 H      8   7   6     2.073228704579   110.72714902    65.08020335
 H      9   7   6     1.903796341502   119.90229546   186.21339131
 H     12  10   9     1.912869329334   114.81891827   181.36323511
 H     13  12  10     2.078406843662   100.25830915   121.37986513
 H     15  14  13     2.055202112715   119.77264515   358.95184392
 H     16  15  14     2.057036787608   119.91287851   179.62189263
 H     17  16  15     2.050135859062   119.87958859   179.91558981
 H     19  18  17     1.831054006860   107.39416521     2.19129432
 H     20  18  17     2.050137932917   119.29683076   180.20963099

---------------------
BASIS SET INFORMATION
---------------------
There are 5 groups of distinct atoms

 Group   1 Type C   : 18s5p2d1f contracted to 4s3p2d1f pattern {8811/311/11/1}
 Group   2 Type O   : 18s5p2d1f contracted to 4s3p2d1f pattern {8811/311/11/1}
 Group   3 Type N   : 18s5p2d1f contracted to 4s3p2d1f pattern {8811/311/11/1}
 Group   4 Type S   : 41s16p2d1f contracted to 5s4p2d1f pattern {13131311/7711/11/1}
 Group   5 Type H   : 5s2p1d contracted to 3s2p1d pattern {311/11/1}

Atom   0C    basis set group =>   1
Atom   1C    basis set group =>   1
Atom   2O    basis set group =>   2
Atom   3C    basis set group =>   1
Atom   4O    basis set group =>   2
Atom   5C    basis set group =>   1
Atom   6C    basis set group =>   1
Atom   7C    basis set group =>   1
Atom   8N    basis set group =>   3
Atom   9C    basis set group =>   1
Atom  10S    basis set group =>   4
Atom  11N    basis set group =>   3
Atom  12C    basis set group =>   1
Atom  13C    basis set group =>   1
Atom  14C    basis set group =>   1
Atom  15C    basis set group =>   1
Atom  16C    basis set group =>   1
Atom  17C    basis set group =>   1
Atom  18O    basis set group =>   2
Atom  19C    basis set group =>   1
Atom  20H    basis set group =>   5
Atom  21H    basis set group =>   5
Atom  22H    basis set group =>   5
Atom  23H    basis set group =>   5
Atom  24H    basis set group =>   5
Atom  25H    basis set group =>   5
Atom  26H    basis set group =>   5
Atom  27H    basis set group =>   5
Atom  28H    basis set group =>   5
Atom  29H    basis set group =>   5
Atom  30H    basis set group =>   5
Atom  31H    basis set group =>   5
Atom  32H    basis set group =>   5
Atom  33H    basis set group =>   5
Atom  34H    basis set group =>   5
Atom  35H    basis set group =>   5
---------------------------------
AUXILIARY/C BASIS SET INFORMATION
---------------------------------
There are 5 groups of distinct atoms

 Group   1 Type C   : 8s6p5d3f1g contracted to 8s6p5d3f1g pattern {11111111/111111/11111/111/1}
 Group   2 Type O   : 8s6p5d3f1g contracted to 8s6p5d3f1g pattern {11111111/111111/11111/111/1}
 Group   3 Type N   : 8s6p5d3f1g contracted to 8s6p5d3f1g pattern {11111111/111111/11111/111/1}
 Group   4 Type S   : 10s8p7d5f2g contracted to 10s8p7d5f2g pattern {1111111111/11111111/1111111/11111/11}
 Group   5 Type H   : 4s3p2d1f contracted to 4s3p2d1f pattern {1111/111/11/1}

Atom   0C    basis set group =>   1
Atom   1C    basis set group =>   1
Atom   2O    basis set group =>   2
Atom   3C    basis set group =>   1
Atom   4O    basis set group =>   2
Atom   5C    basis set group =>   1
Atom   6C    basis set group =>   1
Atom   7C    basis set group =>   1
Atom   8N    basis set group =>   3
Atom   9C    basis set group =>   1
Atom  10S    basis set group =>   4
Atom  11N    basis set group =>   3
Atom  12C    basis set group =>   1
Atom  13C    basis set group =>   1
Atom  14C    basis set group =>   1
Atom  15C    basis set group =>   1
Atom  16C    basis set group =>   1
Atom  17C    basis set group =>   1
Atom  18O    basis set group =>   2
Atom  19C    basis set group =>   1
Atom  20H    basis set group =>   5
Atom  21H    basis set group =>   5
Atom  22H    basis set group =>   5
Atom  23H    basis set group =>   5
Atom  24H    basis set group =>   5
Atom  25H    basis set group =>   5
Atom  26H    basis set group =>   5
Atom  27H    basis set group =>   5
Atom  28H    basis set group =>   5
Atom  29H    basis set group =>   5
Atom  30H    basis set group =>   5
Atom  31H    basis set group =>   5
Atom  32H    basis set group =>   5
Atom  33H    basis set group =>   5
Atom  34H    basis set group =>   5
Atom  35H    basis set group =>   5
------------------------------------------------------------------------------
                           ORCA GTO INTEGRAL CALCULATION
------------------------------------------------------------------------------

                         BASIS SET STATISTICS AND STARTUP INFO

 # of primitive gaussian shells          ...  682
 # of primitive gaussian functions       ... 1312
 # of contracted shells                  ...  298
 # of contracted basis functions         ...  828
 Highest angular momentum                ...    3
 Maximum contraction depth               ...   13
 Integral package used                   ... LIBINT
 Integral threshhold            Thresh   ...  2.500e-11
 Primitive cut-off              TCut     ...  2.500e-12


------------------------------ INTEGRAL EVALUATION ----------------------------


 * One electron integrals 
 Pre-screening matrix                    ... done
 Shell pair data                         ... done (   0.012 sec)

-------------------------------------------------------------------------------
                                 ORCA SCF
-------------------------------------------------------------------------------

------------
SCF SETTINGS
------------
Hamiltonian:
 Ab initio Hamiltonian  Method          .... Hartree-Fock(GTOs)


General Settings:
 Integral files         IntName         .... CONFS/Conf68.orca
 Hartree-Fock type      HFTyp           .... RHF
 Total Charge           Charge          ....    0
 Multiplicity           Mult            ....    1
 Number of Electrons    NEL             ....  154
 Basis Dimension        Dim             ....  828
 Nuclear Repulsion      ENuc            ....   1673.6698244163 Eh

Convergence Acceleration:
 DIIS                   CNVDIIS         .... on
   Start iteration      DIISMaxIt       ....    12
   Startup error        DIISStart       ....  0.200000
   # of expansion vecs  DIISMaxEq       ....     5
   Bias factor          DIISBfac        ....   1.050
   Max. coefficient     DIISMaxC        ....  10.000
 Newton-Raphson         CNVNR           .... off
 SOSCF                  CNVSOSCF        .... on
   Start iteration      SOSCFMaxIt      ....   150
   Startup grad/error   SOSCFStart      ....  0.003300
 Level Shifting         CNVShift        .... on
   Level shift para.    LevelShift      ....    0.2500
   Turn off err/grad.   ShiftErr        ....    0.0010
 Zerner damping         CNVZerner       .... off
 Static damping         CNVDamp         .... on
   Fraction old density DampFac         ....    0.7000
   Max. Damping (<1)    DampMax         ....    0.9800
   Min. Damping (>=0)   DampMin         ....    0.0000
   Turn off err/grad.   DampErr         ....    0.1000
 Fernandez-Rico         CNVRico         .... off

SCF Procedure:
 Maximum # iterations   MaxIter         ....   125
 SCF integral mode      SCFMode         .... Direct
   Integral package                     .... LIBINT
 Reset frequency        DirectResetFreq ....    20
 Integral Threshold     Thresh          ....  2.500e-11 Eh
 Primitive CutOff       TCut            ....  2.500e-12 Eh

Convergence Tolerance:
 Convergence Check Mode ConvCheckMode   .... Total+1el-Energy
 Convergence forced     ConvForced      .... 1
 Energy Change          TolE            ....  1.000e-08 Eh
 1-El. energy change                    ....  1.000e-05 Eh
 Orbital Gradient       TolG            ....  1.000e-05
 Orbital Rotation angle TolX            ....  1.000e-05
 DIIS Error             TolErr          ....  5.000e-07


Diagonalization of the overlap matrix:
Smallest eigenvalue                        ... 3.558e-05
Time for diagonalization                   ...    0.282 sec
Threshold for overlap eigenvalues          ... 1.000e-08
Number of eigenvalues below threshold      ... 0
Time for construction of square roots      ...    0.284 sec
Total time needed                          ...    0.567 sec

-------------------
DFT GRID GENERATION
-------------------

General Integration Accuracy     IntAcc      ...  4.340
Radial Grid Type                 RadialGrid  ... Gauss-Chebyshev
Angular Grid (max. acc.)         AngularGrid ... Lebedev-110
Angular grid pruning method      GridPruning ... 3 (G Style)
Weight generation scheme         WeightScheme... Becke
Basis function cutoff            BFCut       ...    1.0000e-11
Integration weight cutoff        WCut        ...    1.0000e-14
Grids for H and He will be reduced by one unit

# of grid points (after initial pruning)     ...  46246 (   0.0 sec)
# of grid points (after weights+screening)   ...  41461 (   0.3 sec)
nearest neighbour list constructed           ...    0.0 sec
Grid point re-assignment to atoms done       ...    0.0 sec
Grid point division into batches done        ...    0.0 sec
Reduced shell lists constructed in    0.8 sec

Total number of grid points                  ...    41461
Total number of batches                      ...      665
Average number of points per batch           ...       62
Average number of grid points per atom       ...     1152
Average number of shells per batch           ...   142.57 (47.84%)
Average number of basis functions per batch  ...   362.28 (43.75%)
Average number of large shells per batch     ...    91.18 (63.95%)
Average number of large basis fcns per batch ...   235.84 (65.10%)
Maximum spatial batch extension              ...  19.93, 21.14, 21.15 au
Average spatial batch extension              ...   3.63,  3.37,  3.38 au

Time for grid setup =    1.060 sec

------------------------------
INITIAL GUESS: MODEL POTENTIAL
------------------------------
Loading Hartree-Fock densities                     ... done
Calculating cut-offs                               ... done
Setting up the integral package                    ... done
Initializing the effective Hamiltonian             ... done
Starting the Coulomb interaction                   ... done (   2.7 sec)
Reading the grid                                   ... done
Mapping shells                                     ... done
Starting the XC term evaluation                    ... done (   1.4 sec)
Transforming the Hamiltonian                       ... done (   0.2 sec)
Diagonalizing the Hamiltonian                      ... done (   0.3 sec)
Back transforming the eigenvectors                 ... done (   0.1 sec)
Now organizing SCF variables                       ... done
                      ------------------
                      INITIAL GUESS DONE (   6.2 sec)
                      ------------------
--------------
SCF ITERATIONS
--------------
ITER       Energy         Delta-E        Max-DP      RMS-DP      [F,P]     Damp
               ***  Starting incremental Fock matrix formation  ***
  0  -1270.0059564301   0.000000000000 0.04931331  0.00043062  0.3032310 0.7000
  1  -1270.2743183581  -0.268361927995 0.03607937  0.00034701  0.1760529 0.7000
                               ***Turning on DIIS***
  2  -1270.4416453191  -0.167326961019 0.02583663  0.00023360  0.1097426 0.7000
  3  -1272.5804095791  -2.138764259985 0.06313236  0.00050774  0.0829002 0.0000
  4  -1270.7486217663   1.831787812726 0.01024598  0.00009526  0.0070566 0.0000
  5  -1270.8121511410  -0.063529374619 0.00375503  0.00005024  0.0037921 0.0000
                      *** Initiating the SOSCF procedure ***
                           *** Shutting down DIIS ***
                      *** Re-Reading the Fockian *** 
                      *** Removing any level shift *** 
ITER      Energy       Delta-E        Grad      Rot      Max-DP    RMS-DP
  6  -1270.79035179   0.0217993518  0.001724  0.001724  0.002011  0.000026
               *** Restarting incremental Fock matrix formation ***
  7  -1270.80493703  -0.0145852380  0.000981  0.002510  0.001230  0.000016
  8  -1270.80498420  -0.0000471691  0.000454  0.002965  0.001403  0.000017
  9  -1270.80500222  -0.0000180243  0.000170  0.000331  0.000356  0.000004
 10  -1270.80500445  -0.0000022312  0.000053  0.000142  0.000117  0.000001
 11  -1270.80500467  -0.0000002210  0.000022  0.000121  0.000062  0.000001
 12  -1270.80500473  -0.0000000578  0.000010  0.000037  0.000027  0.000000
 13  -1270.80500473  -0.0000000030  0.000003  0.000008  0.000004  0.000000
                  ***Gradient check signals convergence***
              ***Rediagonalizing the Fockian in SOSCF/NRSCF***

               *****************************************************
               *                     SUCCESS                       *
               *           SCF CONVERGED AFTER  14 CYCLES          *
               *****************************************************


----------------
TOTAL SCF ENERGY
----------------

Total Energy       :        -1270.80500473 Eh          -34580.36221 eV

Components:
Nuclear Repulsion  :         1673.66982442 Eh           45542.87128 eV
Electronic Energy  :        -2944.47482914 Eh          -80123.23349 eV
One Electron Energy:        -5068.66874871 Eh         -137925.48865 eV
Two Electron Energy:         2124.19391957 Eh           57802.25516 eV

Virial components:
Potential Energy   :        -2539.80381759 Eh          -69111.57544 eV
Kinetic Energy     :         1268.99881286 Eh           34531.21323 eV
Virial Ratio       :            2.00142332


---------------
SCF CONVERGENCE
---------------

  Last Energy change         ...    5.2046e-09  Tolerance :   1.0000e-08
  Last MAX-Density change    ...    2.3647e-06  Tolerance :   1.0000e-07
  Last RMS-Density change    ...    3.0040e-08  Tolerance :   5.0000e-09
  Last Orbital Gradient      ...    9.6472e-07  Tolerance :   1.0000e-05
  Last Orbital Rotation      ...    2.9939e-06  Tolerance :   1.0000e-05

             **** THE GBW FILE WAS UPDATED (CONFS/Conf68.orca.gbw) ****
             **** DENSITY FILE WAS UPDATED (CONFS/Conf68.orca.scfp) ****
             **** ENERGY FILE WAS UPDATED (CONFS/Conf68.orca.en.tmp) ****
             **** THE GBW FILE WAS UPDATED (CONFS/Conf68.orca.gbw) ****
             **** DENSITY FILE WAS UPDATED (CONFS/Conf68.orca.scfp) ****
----------------
ORBITAL ENERGIES
----------------

  NO   OCC          E(Eh)            E(eV) 
   0   2.0000     -91.888635     -2500.4169 
   1   2.0000     -20.594796      -560.4129 
   2   2.0000     -20.592601      -560.3531 
   3   2.0000     -20.548671      -559.1578 
   4   2.0000     -15.629452      -425.2990 
   5   2.0000     -15.606155      -424.6651 
   6   2.0000     -11.394487      -310.0598 
   7   2.0000     -11.383227      -309.7534 
   8   2.0000     -11.338925      -308.5478 
   9   2.0000     -11.308608      -307.7229 
  10   2.0000     -11.304485      -307.6107 
  11   2.0000     -11.300415      -307.4999 
  12   2.0000     -11.260235      -306.4066 
  13   2.0000     -11.259902      -306.3975 
  14   2.0000     -11.255816      -306.2863 
  15   2.0000     -11.248606      -306.0901 
  16   2.0000     -11.238804      -305.8234 
  17   2.0000     -11.234981      -305.7194 
  18   2.0000     -11.233061      -305.6671 
  19   2.0000     -11.231626      -305.6281 
  20   2.0000      -8.893714      -242.0103 
  21   2.0000      -6.575289      -178.9227 
  22   2.0000      -6.573288      -178.8683 
  23   2.0000      -6.572698      -178.8522 
  24   2.0000      -1.453812       -39.5602 
  25   2.0000      -1.412345       -38.4319 
  26   2.0000      -1.357826       -36.9483 
  27   2.0000      -1.340508       -36.4771 
  28   2.0000      -1.237546       -33.6753 
  29   2.0000      -1.153151       -31.3788 
  30   2.0000      -1.121351       -30.5135 
  31   2.0000      -1.044438       -28.4206 
  32   2.0000      -1.036711       -28.2103 
  33   2.0000      -1.010709       -27.5028 
  34   2.0000      -0.999372       -27.1943 
  35   2.0000      -0.984457       -26.7884 
  36   2.0000      -0.921221       -25.0677 
  37   2.0000      -0.884774       -24.0759 
  38   2.0000      -0.848058       -23.0768 
  39   2.0000      -0.836167       -22.7533 
  40   2.0000      -0.828835       -22.5537 
  41   2.0000      -0.823619       -22.4118 
  42   2.0000      -0.761114       -20.7110 
  43   2.0000      -0.736337       -20.0368 
  44   2.0000      -0.726894       -19.7798 
  45   2.0000      -0.690625       -18.7929 
  46   2.0000      -0.686694       -18.6859 
  47   2.0000      -0.680349       -18.5132 
  48   2.0000      -0.673499       -18.3268 
  49   2.0000      -0.653563       -17.7844 
  50   2.0000      -0.650452       -17.6997 
  51   2.0000      -0.639874       -17.4118 
  52   2.0000      -0.629455       -17.1284 
  53   2.0000      -0.620075       -16.8731 
  54   2.0000      -0.603809       -16.4305 
  55   2.0000      -0.599328       -16.3085 
  56   2.0000      -0.595892       -16.2151 
  57   2.0000      -0.578336       -15.7373 
  58   2.0000      -0.573862       -15.6156 
  59   2.0000      -0.562583       -15.3087 
  60   2.0000      -0.561013       -15.2660 
  61   2.0000      -0.548089       -14.9143 
  62   2.0000      -0.535946       -14.5838 
  63   2.0000      -0.527946       -14.3662 
  64   2.0000      -0.516825       -14.0635 
  65   2.0000      -0.509816       -13.8728 
  66   2.0000      -0.502966       -13.6864 
  67   2.0000      -0.494669       -13.4606 
  68   2.0000      -0.480969       -13.0878 
  69   2.0000      -0.462851       -12.5948 
  70   2.0000      -0.462119       -12.5749 
  71   2.0000      -0.451385       -12.2828 
  72   2.0000      -0.353688        -9.6243 
  73   2.0000      -0.345277        -9.3955 
  74   2.0000      -0.327671        -8.9164 
  75   2.0000      -0.317807        -8.6480 
  76   2.0000      -0.315272        -8.5790 
  77   0.0000       0.073856         2.0097 
  78   0.0000       0.110291         3.0012 
  79   0.0000       0.120379         3.2757 
  80   0.0000       0.135014         3.6739 
  81   0.0000       0.138055         3.7567 
  82   0.0000       0.144109         3.9214 
  83   0.0000       0.154022         4.1911 
  84   0.0000       0.159986         4.3535 
  85   0.0000       0.163845         4.4585 
  86   0.0000       0.168679         4.5900 
  87   0.0000       0.174078         4.7369 
  88   0.0000       0.188249         5.1225 
  89   0.0000       0.193890         5.2760 
  90   0.0000       0.198127         5.3913 
  91   0.0000       0.207605         5.6492 
  92   0.0000       0.211073         5.7436 
  93   0.0000       0.218322         5.9409 
  94   0.0000       0.222309         6.0493 
  95   0.0000       0.231379         6.2961 
  96   0.0000       0.240246         6.5374 
  97   0.0000       0.247031         6.7220 
  98   0.0000       0.253575         6.9001 
  99   0.0000       0.277947         7.5633 
 100   0.0000       0.298568         8.1244 
 101   0.0000       0.307610         8.3705 
 102   0.0000       0.311875         8.4866 
 103   0.0000       0.316249         8.6056 
 104   0.0000       0.321555         8.7499 
 105   0.0000       0.330104         8.9826 
 106   0.0000       0.344142         9.3646 
 107   0.0000       0.348311         9.4780 
 108   0.0000       0.351737         9.5713 
 109   0.0000       0.360984         9.8229 
 110   0.0000       0.372996        10.1498 
 111   0.0000       0.377903        10.2833 
 112   0.0000       0.383122        10.4253 
 113   0.0000       0.390061        10.6141 
 114   0.0000       0.396418        10.7871 
 115   0.0000       0.399132        10.8609 
 116   0.0000       0.420373        11.4389 
 117   0.0000       0.430838        11.7237 
 118   0.0000       0.435397        11.8477 
 119   0.0000       0.435915        11.8619 
 120   0.0000       0.442266        12.0347 
 121   0.0000       0.449377        12.2282 
 122   0.0000       0.452825        12.3220 
 123   0.0000       0.457863        12.4591 
 124   0.0000       0.462227        12.5778 
 125   0.0000       0.464585        12.6420 
 126   0.0000       0.468929        12.7602 
 127   0.0000       0.485946        13.2233 
 128   0.0000       0.491708        13.3801 
 129   0.0000       0.492531        13.4024 
 130   0.0000       0.497104        13.5269 
 131   0.0000       0.505334        13.7508 
 132   0.0000       0.510226        13.8840 
 133   0.0000       0.519550        14.1377 
 134   0.0000       0.522014        14.2047 
 135   0.0000       0.525581        14.3018 
 136   0.0000       0.536074        14.5873 
 137   0.0000       0.537389        14.6231 
 138   0.0000       0.541489        14.7347 
 139   0.0000       0.545912        14.8550 
 140   0.0000       0.554268        15.0824 
 141   0.0000       0.562247        15.2995 
 142   0.0000       0.565438        15.3864 
 143   0.0000       0.571501        15.5513 
 144   0.0000       0.575512        15.6605 
 145   0.0000       0.581518        15.8239 
 146   0.0000       0.584214        15.8973 
 147   0.0000       0.588202        16.0058 
 148   0.0000       0.591756        16.1025 
 149   0.0000       0.596865        16.2415 
 150   0.0000       0.598539        16.2871 
 151   0.0000       0.604960        16.4618 
 152   0.0000       0.608039        16.5456 
 153   0.0000       0.611254        16.6331 
 154   0.0000       0.620622        16.8880 
 155   0.0000       0.624022        16.9805 
 156   0.0000       0.626351        17.0439 
 157   0.0000       0.630892        17.1675 
 158   0.0000       0.632012        17.1979 
 159   0.0000       0.635640        17.2966 
 160   0.0000       0.640013        17.4156 
 161   0.0000       0.646255        17.5855 
 162   0.0000       0.649282        17.6679 
 163   0.0000       0.657669        17.8961 
 164   0.0000       0.660033        17.9604 
 165   0.0000       0.664917        18.0933 
 166   0.0000       0.675835        18.3904 
 167   0.0000       0.682607        18.5747 
 168   0.0000       0.682714        18.5776 
 169   0.0000       0.690813        18.7980 
 170   0.0000       0.694718        18.9042 
 171   0.0000       0.701215        19.0810 
 172   0.0000       0.704304        19.1651 
 173   0.0000       0.716023        19.4840 
 174   0.0000       0.721185        19.6244 
 175   0.0000       0.725922        19.7534 
 176   0.0000       0.732918        19.9437 
 177   0.0000       0.736405        20.0386 
 178   0.0000       0.741963        20.1898 
 179   0.0000       0.754998        20.5445 
 180   0.0000       0.758417        20.6376 
 181   0.0000       0.765227        20.8229 
 182   0.0000       0.772234        21.0136 
 183   0.0000       0.783936        21.3320 
 184   0.0000       0.787736        21.4354 
 185   0.0000       0.797131        21.6910 
 186   0.0000       0.809242        22.0206 
 187   0.0000       0.823388        22.4055 
 188   0.0000       0.829196        22.5636 
 189   0.0000       0.833052        22.6685 
 190   0.0000       0.834606        22.7108 
 191   0.0000       0.841757        22.9054 
 192   0.0000       0.848747        23.0956 
 193   0.0000       0.853083        23.2136 
 194   0.0000       0.866473        23.5779 
 195   0.0000       0.876239        23.8437 
 196   0.0000       0.882097        24.0031 
 197   0.0000       0.892138        24.2763 
 198   0.0000       0.899167        24.4676 
 199   0.0000       0.905987        24.6531 
 200   0.0000       0.911478        24.8026 
 201   0.0000       0.919202        25.0128 
 202   0.0000       0.927794        25.2465 
 203   0.0000       0.928876        25.2760 
 204   0.0000       0.934783        25.4367 
 205   0.0000       0.943889        25.6845 
 206   0.0000       0.949030        25.8244 
 207   0.0000       0.953436        25.9443 
 208   0.0000       0.966712        26.3056 
 209   0.0000       0.972865        26.4730 
 210   0.0000       0.978033        26.6136 
 211   0.0000       0.986806        26.8524 
 212   0.0000       0.989992        26.9390 
 213   0.0000       1.000927        27.2366 
 214   0.0000       1.007072        27.4038 
 215   0.0000       1.011984        27.5375 
 216   0.0000       1.020021        27.7562 
 217   0.0000       1.032060        28.0838 
 218   0.0000       1.036236        28.1974 
 219   0.0000       1.041989        28.3540 
 220   0.0000       1.045903        28.4605 
 221   0.0000       1.055115        28.7111 
 222   0.0000       1.061755        28.8918 
 223   0.0000       1.081781        29.4368 
 224   0.0000       1.083715        29.4894 
 225   0.0000       1.085899        29.5488 
 226   0.0000       1.099499        29.9189 
 227   0.0000       1.100883        29.9565 
 228   0.0000       1.110468        30.2174 
 229   0.0000       1.117450        30.4074 
 230   0.0000       1.123652        30.5761 
 231   0.0000       1.131826        30.7986 
 232   0.0000       1.135315        30.8935 
 233   0.0000       1.142317        31.0840 
 234   0.0000       1.149017        31.2664 
 235   0.0000       1.158313        31.5193 
 236   0.0000       1.162741        31.6398 
 237   0.0000       1.167813        31.7778 
 238   0.0000       1.176706        32.0198 
 239   0.0000       1.181094        32.1392 
 240   0.0000       1.190834        32.4042 
 241   0.0000       1.196211        32.5506 
 242   0.0000       1.204240        32.7690 
 243   0.0000       1.208896        32.8957 
 244   0.0000       1.215943        33.0875 
 245   0.0000       1.223653        33.2973 
 246   0.0000       1.227714        33.4078 
 247   0.0000       1.238130        33.6912 
 248   0.0000       1.248304        33.9681 
 249   0.0000       1.250759        34.0349 
 250   0.0000       1.257792        34.2262 
 251   0.0000       1.261678        34.3320 
 252   0.0000       1.272121        34.6162 
 253   0.0000       1.275458        34.7070 
 254   0.0000       1.289400        35.0864 
 255   0.0000       1.294288        35.2194 
 256   0.0000       1.303085        35.4587 
 257   0.0000       1.305343        35.5202 
 258   0.0000       1.315465        35.7956 
 259   0.0000       1.324839        36.0507 
 260   0.0000       1.333070        36.2747 
 261   0.0000       1.341342        36.4998 
 262   0.0000       1.347071        36.6557 
 263   0.0000       1.355664        36.8895 
 264   0.0000       1.359209        36.9860 
 265   0.0000       1.377145        37.4740 
 266   0.0000       1.384015        37.6610 
 267   0.0000       1.390824        37.8462 
 268   0.0000       1.395916        37.9848 
 269   0.0000       1.407383        38.2968 
 270   0.0000       1.416606        38.5478 
 271   0.0000       1.423469        38.7346 
 272   0.0000       1.435452        39.0606 
 273   0.0000       1.442667        39.2570 
 274   0.0000       1.447539        39.3895 
 275   0.0000       1.456527        39.6341 
 276   0.0000       1.463758        39.8309 
 277   0.0000       1.470223        40.0068 
 278   0.0000       1.478962        40.2446 
 279   0.0000       1.484530        40.3961 
 280   0.0000       1.487560        40.4786 
 281   0.0000       1.500661        40.8351 
 282   0.0000       1.502726        40.8912 
 283   0.0000       1.506179        40.9852 
 284   0.0000       1.513539        41.1855 
 285   0.0000       1.525082        41.4996 
 286   0.0000       1.528472        41.5918 
 287   0.0000       1.537877        41.8478 
 288   0.0000       1.540867        41.9291 
 289   0.0000       1.541609        41.9493 
 290   0.0000       1.552175        42.2368 
 291   0.0000       1.555717        42.3332 
 292   0.0000       1.562835        42.5269 
 293   0.0000       1.573935        42.8289 
 294   0.0000       1.576633        42.9024 
 295   0.0000       1.580273        43.0014 
 296   0.0000       1.587311        43.1929 
 297   0.0000       1.598431        43.4955 
 298   0.0000       1.613442        43.9040 
 299   0.0000       1.621075        44.1117 
 300   0.0000       1.625207        44.2241 
 301   0.0000       1.635701        44.5097 
 302   0.0000       1.643730        44.7282 
 303   0.0000       1.653109        44.9834 
 304   0.0000       1.654823        45.0300 
 305   0.0000       1.662461        45.2379 
 306   0.0000       1.666510        45.3480 
 307   0.0000       1.680373        45.7253 
 308   0.0000       1.688799        45.9546 
 309   0.0000       1.695129        46.1268 
 310   0.0000       1.705590        46.4115 
 311   0.0000       1.706476        46.4356 
 312   0.0000       1.721679        46.8493 
 313   0.0000       1.730015        47.0761 
 314   0.0000       1.736503        47.2526 
 315   0.0000       1.758757        47.8582 
 316   0.0000       1.764959        48.0270 
 317   0.0000       1.772044        48.2198 
 318   0.0000       1.781342        48.4728 
 319   0.0000       1.791051        48.7370 
 320   0.0000       1.799138        48.9570 
 321   0.0000       1.811770        49.3008 
 322   0.0000       1.822185        49.5842 
 323   0.0000       1.837137        49.9910 
 324   0.0000       1.842231        50.1296 
 325   0.0000       1.861955        50.6664 
 326   0.0000       1.882557        51.2270 
 327   0.0000       1.900934        51.7271 
 328   0.0000       1.907566        51.9075 
 329   0.0000       1.911838        52.0238 
 330   0.0000       1.925213        52.3877 
 331   0.0000       1.936515        52.6953 
 332   0.0000       1.943191        52.8769 
 333   0.0000       1.956615        53.2422 
 334   0.0000       1.962750        53.4091 
 335   0.0000       1.981104        53.9086 
 336   0.0000       1.986507        54.0556 
 337   0.0000       2.005008        54.5590 
 338   0.0000       2.017916        54.9103 
 339   0.0000       2.019955        54.9658 
 340   0.0000       2.024951        55.1017 
 341   0.0000       2.042422        55.5771 
 342   0.0000       2.050047        55.7846 
 343   0.0000       2.064721        56.1839 
 344   0.0000       2.091969        56.9254 
 345   0.0000       2.113372        57.5078 
 346   0.0000       2.124199        57.8024 
 347   0.0000       2.132655        58.0325 
 348   0.0000       2.153527        58.6005 
 349   0.0000       2.170859        59.0721 
 350   0.0000       2.184910        59.4544 
 351   0.0000       2.203565        59.9621 
 352   0.0000       2.211004        60.1645 
 353   0.0000       2.224121        60.5214 
 354   0.0000       2.238905        60.9237 
 355   0.0000       2.265379        61.6441 
 356   0.0000       2.270162        61.7743 
 357   0.0000       2.283322        62.1324 
 358   0.0000       2.303277        62.6753 
 359   0.0000       2.308859        62.8272 
 360   0.0000       2.322595        63.2010 
 361   0.0000       2.328254        63.3550 
 362   0.0000       2.340651        63.6923 
 363   0.0000       2.348636        63.9096 
 364   0.0000       2.362677        64.2917 
 365   0.0000       2.367362        64.4192 
 366   0.0000       2.385075        64.9012 
 367   0.0000       2.394760        65.1647 
 368   0.0000       2.410519        65.5936 
 369   0.0000       2.416454        65.7551 
 370   0.0000       2.429783        66.1177 
 371   0.0000       2.432792        66.1996 
 372   0.0000       2.460033        66.9409 
 373   0.0000       2.471960        67.2655 
 374   0.0000       2.478340        67.4390 
 375   0.0000       2.484247        67.5998 
 376   0.0000       2.503164        68.1146 
 377   0.0000       2.512509        68.3688 
 378   0.0000       2.517807        68.5130 
 379   0.0000       2.533930        68.9517 
 380   0.0000       2.556487        69.5656 
 381   0.0000       2.579271        70.1855 
 382   0.0000       2.580567        70.2208 
 383   0.0000       2.596941        70.6664 
 384   0.0000       2.605062        70.8873 
 385   0.0000       2.607505        70.9538 
 386   0.0000       2.623613        71.3921 
 387   0.0000       2.644527        71.9612 
 388   0.0000       2.655875        72.2700 
 389   0.0000       2.661634        72.4267 
 390   0.0000       2.669144        72.6311 
 391   0.0000       2.675434        72.8023 
 392   0.0000       2.700634        73.4880 
 393   0.0000       2.707995        73.6883 
 394   0.0000       2.712573        73.8129 
 395   0.0000       2.725336        74.1602 
 396   0.0000       2.734951        74.4218 
 397   0.0000       2.742772        74.6346 
 398   0.0000       2.748329        74.7858 
 399   0.0000       2.752713        74.9051 
 400   0.0000       2.760052        75.1048 
 401   0.0000       2.776979        75.5654 
 402   0.0000       2.783395        75.7400 
 403   0.0000       2.806534        76.3697 
 404   0.0000       2.809055        76.4383 
 405   0.0000       2.823297        76.8258 
 406   0.0000       2.825143        76.8761 
 407   0.0000       2.836604        77.1879 
 408   0.0000       2.845074        77.4184 
 409   0.0000       2.854853        77.6845 
 410   0.0000       2.861772        77.8728 
 411   0.0000       2.864487        77.9466 
 412   0.0000       2.879602        78.3579 
 413   0.0000       2.896205        78.8097 
 414   0.0000       2.899835        78.9085 
 415   0.0000       2.914825        79.3164 
 416   0.0000       2.931461        79.7691 
 417   0.0000       2.938003        79.9471 
 418   0.0000       2.942611        80.0725 
 419   0.0000       2.952375        80.3382 
 420   0.0000       2.958508        80.5051 
 421   0.0000       2.962563        80.6154 
 422   0.0000       2.979868        81.0863 
 423   0.0000       2.983952        81.1975 
 424   0.0000       2.989373        81.3450 
 425   0.0000       3.005489        81.7835 
 426   0.0000       3.022966        82.2591 
 427   0.0000       3.024460        82.2998 
 428   0.0000       3.032917        82.5299 
 429   0.0000       3.038454        82.6805 
 430   0.0000       3.041424        82.7614 
 431   0.0000       3.043489        82.8175 
 432   0.0000       3.058488        83.2257 
 433   0.0000       3.067698        83.4763 
 434   0.0000       3.076761        83.7229 
 435   0.0000       3.081564        83.8536 
 436   0.0000       3.085137        83.9508 
 437   0.0000       3.089777        84.0771 
 438   0.0000       3.098251        84.3077 
 439   0.0000       3.102745        84.4300 
 440   0.0000       3.108745        84.5932 
 441   0.0000       3.112671        84.7001 
 442   0.0000       3.122095        84.9565 
 443   0.0000       3.126005        85.0629 
 444   0.0000       3.147392        85.6449 
 445   0.0000       3.154118        85.8279 
 446   0.0000       3.158939        85.9591 
 447   0.0000       3.168299        86.2138 
 448   0.0000       3.176121        86.4266 
 449   0.0000       3.186032        86.6963 
 450   0.0000       3.198655        87.0398 
 451   0.0000       3.200764        87.0972 
 452   0.0000       3.207497        87.2804 
 453   0.0000       3.214117        87.4606 
 454   0.0000       3.217533        87.5535 
 455   0.0000       3.220777        87.6418 
 456   0.0000       3.239877        88.1615 
 457   0.0000       3.245938        88.3265 
 458   0.0000       3.250896        88.4614 
 459   0.0000       3.262132        88.7671 
 460   0.0000       3.265190        88.8503 
 461   0.0000       3.268573        88.9424 
 462   0.0000       3.274263        89.0972 
 463   0.0000       3.279523        89.2404 
 464   0.0000       3.294490        89.6476 
 465   0.0000       3.303776        89.9003 
 466   0.0000       3.307731        90.0079 
 467   0.0000       3.311300        90.1050 
 468   0.0000       3.317275        90.2676 
 469   0.0000       3.327123        90.5356 
 470   0.0000       3.330266        90.6211 
 471   0.0000       3.332819        90.6906 
 472   0.0000       3.344250        91.0017 
 473   0.0000       3.348456        91.1161 
 474   0.0000       3.356187        91.3265 
 475   0.0000       3.358901        91.4003 
 476   0.0000       3.373016        91.7844 
 477   0.0000       3.374911        91.8360 
 478   0.0000       3.379900        91.9717 
 479   0.0000       3.388155        92.1964 
 480   0.0000       3.392114        92.3041 
 481   0.0000       3.396420        92.4213 
 482   0.0000       3.402055        92.5746 
 483   0.0000       3.404193        92.6328 
 484   0.0000       3.406815        92.7042 
 485   0.0000       3.412353        92.8548 
 486   0.0000       3.417224        92.9874 
 487   0.0000       3.420419        93.0743 
 488   0.0000       3.433062        93.4184 
 489   0.0000       3.445282        93.7509 
 490   0.0000       3.446060        93.7721 
 491   0.0000       3.452225        93.9398 
 492   0.0000       3.457546        94.0846 
 493   0.0000       3.462166        94.2103 
 494   0.0000       3.466405        94.3257 
 495   0.0000       3.467584        94.3578 
 496   0.0000       3.474789        94.5538 
 497   0.0000       3.482519        94.7641 
 498   0.0000       3.487613        94.9028 
 499   0.0000       3.500203        95.2454 
 500   0.0000       3.509905        95.5094 
 501   0.0000       3.517246        95.7091 
 502   0.0000       3.519839        95.7797 
 503   0.0000       3.525772        95.9411 
 504   0.0000       3.533554        96.1529 
 505   0.0000       3.537860        96.2701 
 506   0.0000       3.544364        96.4471 
 507   0.0000       3.559088        96.8477 
 508   0.0000       3.564608        96.9979 
 509   0.0000       3.579712        97.4089 
 510   0.0000       3.581346        97.4534 
 511   0.0000       3.596290        97.8600 
 512   0.0000       3.603417        98.0540 
 513   0.0000       3.611298        98.2684 
 514   0.0000       3.619599        98.4943 
 515   0.0000       3.626580        98.6843 
 516   0.0000       3.631587        98.8205 
 517   0.0000       3.633540        98.8736 
 518   0.0000       3.638969        99.0214 
 519   0.0000       3.642460        99.1164 
 520   0.0000       3.649492        99.3077 
 521   0.0000       3.655509        99.4715 
 522   0.0000       3.664782        99.7238 
 523   0.0000       3.670190        99.8710 
 524   0.0000       3.673523        99.9616 
 525   0.0000       3.678701       100.1025 
 526   0.0000       3.686601       100.3175 
 527   0.0000       3.691095       100.4398 
 528   0.0000       3.693691       100.5104 
 529   0.0000       3.704895       100.8153 
 530   0.0000       3.708837       100.9226 
 531   0.0000       3.717931       101.1700 
 532   0.0000       3.724651       101.3529 
 533   0.0000       3.730525       101.5128 
 534   0.0000       3.739291       101.7513 
 535   0.0000       3.744735       101.8994 
 536   0.0000       3.749017       102.0159 
 537   0.0000       3.755843       102.2017 
 538   0.0000       3.759887       102.3117 
 539   0.0000       3.773348       102.6780 
 540   0.0000       3.775156       102.7272 
 541   0.0000       3.782429       102.9251 
 542   0.0000       3.784772       102.9889 
 543   0.0000       3.793479       103.2258 
 544   0.0000       3.800696       103.4222 
 545   0.0000       3.809962       103.6743 
 546   0.0000       3.823061       104.0308 
 547   0.0000       3.826690       104.1295 
 548   0.0000       3.831151       104.2509 
 549   0.0000       3.850019       104.7643 
 550   0.0000       3.854283       104.8804 
 551   0.0000       3.861550       105.0781 
 552   0.0000       3.868636       105.2709 
 553   0.0000       3.879581       105.5688 
 554   0.0000       3.889307       105.8334 
 555   0.0000       3.892745       105.9270 
 556   0.0000       3.899749       106.1176 
 557   0.0000       3.910042       106.3977 
 558   0.0000       3.920801       106.6904 
 559   0.0000       3.930265       106.9479 
 560   0.0000       3.941957       107.2661 
 561   0.0000       3.942686       107.2859 
 562   0.0000       3.946716       107.3956 
 563   0.0000       3.959213       107.7357 
 564   0.0000       3.962728       107.8313 
 565   0.0000       3.977623       108.2366 
 566   0.0000       3.993207       108.6607 
 567   0.0000       3.994396       108.6930 
 568   0.0000       3.995913       108.7343 
 569   0.0000       4.018847       109.3584 
 570   0.0000       4.022553       109.4592 
 571   0.0000       4.025401       109.5367 
 572   0.0000       4.042391       109.9991 
 573   0.0000       4.049163       110.1833 
 574   0.0000       4.060904       110.5028 
 575   0.0000       4.066816       110.6637 
 576   0.0000       4.076051       110.9150 
 577   0.0000       4.081072       111.0516 
 578   0.0000       4.088944       111.2658 
 579   0.0000       4.096935       111.4833 
 580   0.0000       4.113489       111.9337 
 581   0.0000       4.115758       111.9955 
 582   0.0000       4.123243       112.1992 
 583   0.0000       4.124905       112.2444 
 584   0.0000       4.137254       112.5804 
 585   0.0000       4.144160       112.7683 
 586   0.0000       4.147834       112.8683 
 587   0.0000       4.155636       113.0806 
 588   0.0000       4.158168       113.1495 
 589   0.0000       4.165801       113.3572 
 590   0.0000       4.178857       113.7125 
 591   0.0000       4.182778       113.8192 
 592   0.0000       4.192751       114.0905 
 593   0.0000       4.197166       114.2107 
 594   0.0000       4.201485       114.3282 
 595   0.0000       4.209048       114.5340 
 596   0.0000       4.221574       114.8749 
 597   0.0000       4.229687       115.0956 
 598   0.0000       4.231855       115.1546 
 599   0.0000       4.236263       115.2746 
 600   0.0000       4.245124       115.5157 
 601   0.0000       4.252766       115.7236 
 602   0.0000       4.260364       115.9304 
 603   0.0000       4.272945       116.2727 
 604   0.0000       4.276903       116.3804 
 605   0.0000       4.285267       116.6080 
 606   0.0000       4.294162       116.8501 
 607   0.0000       4.315456       117.4295 
 608   0.0000       4.319833       117.5486 
 609   0.0000       4.330553       117.8404 
 610   0.0000       4.337530       118.0302 
 611   0.0000       4.345775       118.2546 
 612   0.0000       4.353470       118.4639 
 613   0.0000       4.359838       118.6372 
 614   0.0000       4.365033       118.7786 
 615   0.0000       4.372969       118.9945 
 616   0.0000       4.378897       119.1558 
 617   0.0000       4.381363       119.2229 
 618   0.0000       4.389980       119.4574 
 619   0.0000       4.394893       119.5911 
 620   0.0000       4.405086       119.8685 
 621   0.0000       4.411225       120.0355 
 622   0.0000       4.418648       120.2375 
 623   0.0000       4.430903       120.5710 
 624   0.0000       4.438387       120.7747 
 625   0.0000       4.440016       120.8190 
 626   0.0000       4.450939       121.1162 
 627   0.0000       4.459131       121.3391 
 628   0.0000       4.462240       121.4237 
 629   0.0000       4.484455       122.0282 
 630   0.0000       4.497245       122.3762 
 631   0.0000       4.502336       122.5148 
 632   0.0000       4.505187       122.5924 
 633   0.0000       4.514926       122.8574 
 634   0.0000       4.526134       123.1624 
 635   0.0000       4.532414       123.3333 
 636   0.0000       4.545442       123.6878 
 637   0.0000       4.558255       124.0364 
 638   0.0000       4.561773       124.1321 
 639   0.0000       4.564105       124.1956 
 640   0.0000       4.576700       124.5383 
 641   0.0000       4.591698       124.9465 
 642   0.0000       4.598354       125.1276 
 643   0.0000       4.605166       125.3130 
 644   0.0000       4.621462       125.7564 
 645   0.0000       4.632204       126.0487 
 646   0.0000       4.637001       126.1792 
 647   0.0000       4.643153       126.3466 
 648   0.0000       4.645036       126.3978 
 649   0.0000       4.657034       126.7243 
 650   0.0000       4.665255       126.9480 
 651   0.0000       4.668468       127.0355 
 652   0.0000       4.678360       127.3046 
 653   0.0000       4.685214       127.4912 
 654   0.0000       4.685838       127.5081 
 655   0.0000       4.692524       127.6901 
 656   0.0000       4.705879       128.0535 
 657   0.0000       4.714256       128.2814 
 658   0.0000       4.722681       128.5107 
 659   0.0000       4.733573       128.8071 
 660   0.0000       4.746320       129.1539 
 661   0.0000       4.750533       129.2686 
 662   0.0000       4.771114       129.8286 
 663   0.0000       4.783593       130.1682 
 664   0.0000       4.798884       130.5843 
 665   0.0000       4.826875       131.3459 
 666   0.0000       4.831313       131.4667 
 667   0.0000       4.851419       132.0138 
 668   0.0000       4.862263       132.3089 
 669   0.0000       4.898132       133.2849 
 670   0.0000       4.902480       133.4033 
 671   0.0000       4.910945       133.6336 
 672   0.0000       4.913714       133.7090 
 673   0.0000       4.943840       134.5287 
 674   0.0000       4.955310       134.8408 
 675   0.0000       4.990121       135.7881 
 676   0.0000       5.008223       136.2807 
 677   0.0000       5.021849       136.6515 
 678   0.0000       5.025673       136.7555 
 679   0.0000       5.035555       137.0244 
 680   0.0000       5.053713       137.5185 
 681   0.0000       5.072127       138.0196 
 682   0.0000       5.078959       138.2055 
 683   0.0000       5.080788       138.2553 
 684   0.0000       5.093638       138.6049 
 685   0.0000       5.107264       138.9757 
 686   0.0000       5.123092       139.4064 
 687   0.0000       5.140902       139.8911 
 688   0.0000       5.147705       140.0762 
 689   0.0000       5.154647       140.2651 
 690   0.0000       5.161643       140.4554 
 691   0.0000       5.167997       140.6283 
 692   0.0000       5.180376       140.9652 
 693   0.0000       5.184402       141.0748 
 694   0.0000       5.201122       141.5297 
 695   0.0000       5.210798       141.7930 
 696   0.0000       5.222963       142.1241 
 697   0.0000       5.235703       142.4707 
 698   0.0000       5.237711       142.5254 
 699   0.0000       5.245594       142.7399 
 700   0.0000       5.261284       143.1668 
 701   0.0000       5.273962       143.5118 
 702   0.0000       5.298732       144.1858 
 703   0.0000       5.306516       144.3976 
 704   0.0000       5.317084       144.6852 
 705   0.0000       5.326660       144.9458 
 706   0.0000       5.337986       145.2540 
 707   0.0000       5.348712       145.5459 
 708   0.0000       5.363752       145.9551 
 709   0.0000       5.375679       146.2797 
 710   0.0000       5.404786       147.0717 
 711   0.0000       5.413805       147.3171 
 712   0.0000       5.422608       147.5567 
 713   0.0000       5.459662       148.5650 
 714   0.0000       5.472162       148.9051 
 715   0.0000       5.494688       149.5181 
 716   0.0000       5.501927       149.7151 
 717   0.0000       5.508783       149.9016 
 718   0.0000       5.511749       149.9823 
 719   0.0000       5.521361       150.2439 
 720   0.0000       5.528016       150.4250 
 721   0.0000       5.547085       150.9438 
 722   0.0000       5.560160       151.2997 
 723   0.0000       5.567816       151.5080 
 724   0.0000       5.589112       152.0875 
 725   0.0000       5.609288       152.6365 
 726   0.0000       5.616250       152.8259 
 727   0.0000       5.634783       153.3302 
 728   0.0000       5.638113       153.4209 
 729   0.0000       5.643367       153.5638 
 730   0.0000       5.654437       153.8651 
 731   0.0000       5.657548       153.9497 
 732   0.0000       5.660903       154.0410 
 733   0.0000       5.675153       154.4288 
 734   0.0000       5.696998       155.0232 
 735   0.0000       5.705672       155.2592 
 736   0.0000       5.717591       155.5836 
 737   0.0000       5.732450       155.9879 
 738   0.0000       5.741334       156.2297 
 739   0.0000       5.756472       156.6416 
 740   0.0000       5.768424       156.9668 
 741   0.0000       5.775385       157.1562 
 742   0.0000       5.794740       157.6829 
 743   0.0000       5.809344       158.0803 
 744   0.0000       5.824371       158.4892 
 745   0.0000       5.838502       158.8737 
 746   0.0000       5.847212       159.1107 
 747   0.0000       5.854388       159.3060 
 748   0.0000       5.918542       161.0517 
 749   0.0000       5.929831       161.3589 
 750   0.0000       5.934812       161.4944 
 751   0.0000       5.974470       162.5736 
 752   0.0000       5.980258       162.7311 
 753   0.0000       5.998813       163.2360 
 754   0.0000       6.003364       163.3598 
 755   0.0000       6.012363       163.6047 
 756   0.0000       6.046496       164.5335 
 757   0.0000       6.057005       164.8195 
 758   0.0000       6.079106       165.4209 
 759   0.0000       6.087906       165.6603 
 760   0.0000       6.093530       165.8134 
 761   0.0000       6.169430       167.8787 
 762   0.0000       6.220152       169.2589 
 763   0.0000       6.225274       169.3983 
 764   0.0000       6.229850       169.5228 
 765   0.0000       6.248289       170.0246 
 766   0.0000       6.271411       170.6538 
 767   0.0000       6.332034       172.3034 
 768   0.0000       6.345282       172.6639 
 769   0.0000       6.353091       172.8764 
 770   0.0000       6.371098       173.3664 
 771   0.0000       6.382347       173.6725 
 772   0.0000       6.408518       174.3846 
 773   0.0000       6.447489       175.4451 
 774   0.0000       6.458758       175.7517 
 775   0.0000       6.468051       176.0046 
 776   0.0000       6.512335       177.2096 
 777   0.0000       6.560322       178.5155 
 778   0.0000       6.591839       179.3731 
 779   0.0000       6.607488       179.7989 
 780   0.0000       6.634187       180.5254 
 781   0.0000       6.671023       181.5278 
 782   0.0000       6.722609       182.9315 
 783   0.0000       6.756208       183.8458 
 784   0.0000       6.784831       184.6246 
 785   0.0000       6.904850       187.8905 
 786   0.0000       6.919202       188.2811 
 787   0.0000       6.926331       188.4751 
 788   0.0000       6.959929       189.3893 
 789   0.0000       7.012622       190.8231 
 790   0.0000       7.049052       191.8144 
 791   0.0000       7.062791       192.1883 
 792   0.0000       7.085491       192.8060 
 793   0.0000       7.110131       193.4765 
 794   0.0000       7.226643       196.6469 
 795   0.0000       7.262608       197.6256 
 796   0.0000       7.280447       198.1110 
 797   0.0000       7.285316       198.2435 
 798   0.0000       7.343351       199.8227 
 799   0.0000       7.384086       200.9312 
 800   0.0000       7.400523       201.3785 
 801   0.0000       7.580150       206.2664 
 802   0.0000       7.584641       206.3886 
 803   0.0000       7.589691       206.5260 
 804   0.0000       7.663293       208.5288 
 805   0.0000       7.819790       212.7873 
 806   0.0000       7.850107       213.6123 
 807   0.0000       7.886428       214.6006 
 808   0.0000       7.937113       215.9798 
 809   0.0000       9.337520       254.0868 
 810   0.0000       9.482723       258.0380 
 811   0.0000      10.740803       292.2721 
 812   0.0000      11.146119       303.3013 
 813   0.0000      11.939314       324.8852 
 814   0.0000      12.560858       341.7983 
 815   0.0000      12.921469       351.6111 
 816   0.0000      13.050567       355.1240 
 817   0.0000      13.109473       356.7269 
 818   0.0000      13.149535       357.8170 
 819   0.0000      13.387217       364.2847 
 820   0.0000      13.499983       367.3532 
 821   0.0000      13.770053       374.7022 
 822   0.0000      13.876479       377.5982 
 823   0.0000      13.937664       379.2631 
 824   0.0000      14.024108       381.6154 
 825   0.0000      14.488255       394.2455 
 826   0.0000      14.633827       398.2067 
 827   0.0000      15.947961       433.9661 

                    ********************************
                    * MULLIKEN POPULATION ANALYSIS *
                    ********************************

-----------------------
MULLIKEN ATOMIC CHARGES
-----------------------
   0 C :   -0.265345
   1 C :    0.029874
   2 O :   -0.361883
   3 C :    0.451799
   4 O :   -0.408042
   5 C :   -0.192606
   6 C :    0.152661
   7 C :   -0.281700
   8 N :   -0.128126
   9 C :    0.207263
  10 S :   -0.441382
  11 N :   -0.210621
  12 C :    0.040099
  13 C :    0.033152
  14 C :   -0.170143
  15 C :   -0.134081
  16 C :   -0.277352
  17 C :    0.313628
  18 O :   -0.359073
  19 C :   -0.252631
  20 H :    0.101926
  21 H :    0.090398
  22 H :    0.091866
  23 H :    0.091851
  24 H :    0.114455
  25 H :    0.127466
  26 H :    0.103130
  27 H :    0.125818
  28 H :    0.198932
  29 H :    0.199923
  30 H :    0.155972
  31 H :    0.159965
  32 H :    0.160404
  33 H :    0.128484
  34 H :    0.240100
  35 H :    0.163819
Sum of atomic charges:   -0.0000000

--------------------------------
MULLIKEN REDUCED ORBITAL CHARGES
--------------------------------
  0 C s       :     3.259183  s :     3.259183
      pz      :     0.923356  p :     2.929790
      px      :     0.999056
      py      :     1.007378
      dz2     :     0.017983  d :     0.071925
      dxz     :     0.020332
      dyz     :     0.011484
      dx2y2   :     0.005424
      dxy     :     0.016702
      f0      :     0.000845  f :     0.004446
      f+1     :     0.001444
      f-1     :     0.000361
      f+2     :     0.000259
      f-2     :     0.000480
      f+3     :     0.000668
      f-3     :     0.000389
  1 C s       :     3.175239  s :     3.175239
      pz      :     0.974070  p :     2.627589
      px      :     0.813433
      py      :     0.840085
      dz2     :     0.024537  d :     0.155437
      dxz     :     0.039292
      dyz     :     0.025633
      dx2y2   :     0.029445
      dxy     :     0.036529
      f0      :     0.001916  f :     0.011861
      f+1     :     0.001723
      f-1     :     0.001035
      f+2     :     0.000245
      f-2     :     0.002060
      f+3     :     0.002514
      f-3     :     0.002367
  2 O s       :     3.722047  s :     3.722047
      pz      :     1.603972  p :     4.604087
      px      :     1.362398
      py      :     1.637717
      dz2     :     0.005876  d :     0.033465
      dxz     :     0.010348
      dyz     :     0.003983
      dx2y2   :     0.006165
      dxy     :     0.007093
      f0      :     0.000177  f :     0.002284
      f+1     :     0.000492
      f-1     :     0.000134
      f+2     :     0.000445
      f-2     :     0.000287
      f+3     :     0.000366
      f-3     :     0.000384
  3 C s       :     3.055890  s :     3.055890
      pz      :     0.677885  p :     2.172099
      px      :     0.682456
      py      :     0.811758
      dz2     :     0.049322  d :     0.293695
      dxz     :     0.047565
      dyz     :     0.058069
      dx2y2   :     0.077030
      dxy     :     0.061709
      f0      :     0.002938  f :     0.026517
      f+1     :     0.003427
      f-1     :     0.002876
      f+2     :     0.003607
      f-2     :     0.004685
      f+3     :     0.003134
      f-3     :     0.005850
  4 O s       :     3.769459  s :     3.769459
      pz      :     1.619060  p :     4.600691
      px      :     1.527762
      py      :     1.453869
      dz2     :     0.004148  d :     0.035469
      dxz     :     0.002034
      dyz     :     0.008635
      dx2y2   :     0.009127
      dxy     :     0.011525
      f0      :     0.000260  f :     0.002423
      f+1     :     0.000121
      f-1     :     0.000328
      f+2     :     0.000208
      f-2     :     0.000327
      f+3     :     0.000624
      f-3     :     0.000554
  5 C s       :     3.186330  s :     3.186330
      pz      :     0.932101  p :     2.911469
      px      :     1.122740
      py      :     0.856628
      dz2     :     0.016518  d :     0.084553
      dxz     :     0.013379
      dyz     :     0.027928
      dx2y2   :     0.008787
      dxy     :     0.017941
      f0      :     0.000934  f :     0.010255
      f+1     :     0.001225
      f-1     :     0.001547
      f+2     :     0.002399
      f-2     :     0.001050
      f+3     :     0.001677
      f-3     :     0.001422
  6 C s       :     3.186608  s :     3.186608
      pz      :     0.861871  p :     2.468387
      px      :     0.822811
      py      :     0.783705
      dz2     :     0.032790  d :     0.178025
      dxz     :     0.018682
      dyz     :     0.049991
      dx2y2   :     0.022593
      dxy     :     0.053970
      f0      :     0.001472  f :     0.014318
      f+1     :     0.001144
      f-1     :     0.003027
      f+2     :     0.002614
      f-2     :     0.002038
      f+3     :     0.002360
      f-3     :     0.001662
  7 C s       :     3.278818  s :     3.278818
      pz      :     0.899634  p :     2.929540
      px      :     1.010445
      py      :     1.019461
      dz2     :     0.019674  d :     0.068677
      dxz     :     0.013949
      dyz     :     0.010108
      dx2y2   :     0.019082
      dxy     :     0.005864
      f0      :     0.000597  f :     0.004666
      f+1     :     0.001394
      f-1     :     0.000773
      f+2     :     0.000411
      f-2     :     0.000449
      f+3     :     0.000251
      f-3     :     0.000791
  8 N s       :     3.345912  s :     3.345912
      pz      :     1.252986  p :     3.717817
      px      :     1.406980
      py      :     1.057851
      dz2     :     0.011634  d :     0.059439
      dxz     :     0.009042
      dyz     :     0.015632
      dx2y2   :     0.012213
      dxy     :     0.010918
      f0      :     0.000585  f :     0.004958
      f+1     :     0.001010
      f-1     :     0.000508
      f+2     :     0.000980
      f-2     :     0.000926
      f+3     :     0.000431
      f-3     :     0.000517
  9 C s       :     3.160052  s :     3.160052
      pz      :     0.741495  p :     2.352903
      px      :     0.722081
      py      :     0.889327
      dz2     :     0.058744  d :     0.262200
      dxz     :     0.029882
      dyz     :     0.058999
      dx2y2   :     0.055210
      dxy     :     0.059364
      f0      :     0.002552  f :     0.017582
      f+1     :     0.002247
      f-1     :     0.002716
      f+2     :     0.003277
      f-2     :     0.001895
      f+3     :     0.002535
      f-3     :     0.002359
 10 S s       :     5.855114  s :     5.855114
      pz      :     3.639147  p :    10.491353
      px      :     3.617687
      py      :     3.234520
      dz2     :     0.009464  d :     0.084790
      dxz     :     0.003957
      dyz     :     0.028520
      dx2y2   :     0.018168
      dxy     :     0.024681
      f0      :     0.001267  f :     0.010124
      f+1     :     0.000262
      f-1     :     0.001261
      f+2     :     0.002102
      f-2     :     0.001533
      f+3     :     0.002421
      f-3     :     0.001280
 11 N s       :     3.380922  s :     3.380922
      pz      :     1.332079  p :     3.767045
      px      :     1.416903
      py      :     1.018063
      dz2     :     0.008442  d :     0.058227
      dxz     :     0.007388
      dyz     :     0.013806
      dx2y2   :     0.012857
      dxy     :     0.015734
      f0      :     0.000387  f :     0.004427
      f+1     :     0.000541
      f-1     :     0.000569
      f+2     :     0.000704
      f-2     :     0.000691
      f+3     :     0.000825
      f-3     :     0.000710
 12 C s       :     3.119782  s :     3.119782
      pz      :     0.869267  p :     2.644119
      px      :     0.966660
      py      :     0.808192
      dz2     :     0.037898  d :     0.184618
      dxz     :     0.031534
      dyz     :     0.036689
      dx2y2   :     0.033199
      dxy     :     0.045298
      f0      :     0.001280  f :     0.011382
      f+1     :     0.001529
      f-1     :     0.001700
      f+2     :     0.002013
      f-2     :     0.001843
      f+3     :     0.001492
      f-3     :     0.001525
 13 C s       :     3.100806  s :     3.100806
      pz      :     0.894761  p :     2.745457
      px      :     0.907047
      py      :     0.943649
      dz2     :     0.021120  d :     0.109351
      dxz     :     0.012328
      dyz     :     0.028867
      dx2y2   :     0.022939
      dxy     :     0.024096
      f0      :     0.001003  f :     0.011233
      f+1     :     0.001578
      f-1     :     0.001600
[...]
      f-1     :     0.005656
      f+2     :     0.007647
      f-2     :     0.004915
      f+3     :     0.005767
      f-3     :     0.006806
 15 C s       :     2.705761  s :     2.705761
      pz      :     0.928437  p :     2.797184
      px      :     0.912898
      py      :     0.955849
      dz2     :     0.103627  d :     0.414965
      dxz     :     0.074219
      dyz     :     0.073324
      dx2y2   :     0.092668
      dxy     :     0.071128
      f0      :     0.004533  f :     0.040950
      f+1     :     0.006223
      f-1     :     0.006274
      f+2     :     0.007776
      f-2     :     0.005781
      f+3     :     0.005828
      f-3     :     0.004533
 16 C s       :     2.702079  s :     2.702079
      pz      :     0.944251  p :     2.867827
      px      :     0.951930
      py      :     0.971645
      dz2     :     0.056641  d :     0.391014
      dxz     :     0.058686
      dyz     :     0.093334
      dx2y2   :     0.089352
      dxy     :     0.093001
      f0      :     0.003904  f :     0.040298
      f+1     :     0.005315
      f-1     :     0.005536
      f+2     :     0.006222
      f-2     :     0.004994
      f+3     :     0.008127
      f-3     :     0.006200
 17 C s       :     2.701664  s :     2.701664
      pz      :     0.879158  p :     2.684801
      px      :     0.817848
      py      :     0.987796
      dz2     :     0.140500  d :     0.707181
      dxz     :     0.110072
      dyz     :     0.152575
      dx2y2   :     0.151565
      dxy     :     0.152469
      f0      :     0.010977  f :     0.099151
      f+1     :     0.015583
      f-1     :     0.011724
      f+2     :     0.017656
      f-2     :     0.013928
      f+3     :     0.015659
      f-3     :     0.013625
 18 O s       :     3.177347  s :     3.177347
      pz      :     1.372935  p :     4.348979
      px      :     1.455499
      py      :     1.520544
      dz2     :     0.010249  d :     0.075594
      dxz     :     0.016462
      dyz     :     0.021616
      dx2y2   :     0.012789
      dxy     :     0.014478
      f0      :     0.000625  f :     0.005077
      f+1     :     0.000648
      f-1     :     0.000639
      f+2     :     0.000731
      f-2     :     0.001087
      f+3     :     0.000614
      f-3     :     0.000734
 19 C s       :     2.695626  s :     2.695626
      pz      :     0.946181  p :     2.845873
      px      :     0.939781
      py      :     0.959911
      dz2     :     0.089169  d :     0.388667
      dxz     :     0.072496
      dyz     :     0.072296
      dx2y2   :     0.081323
      dxy     :     0.073384
      f0      :     0.004386  f :     0.040828
      f+1     :     0.006675
      f-1     :     0.006083
      f+2     :     0.007586
      f-2     :     0.006223
      f+3     :     0.005681
      f-3     :     0.004194
 20 H s       :     0.846576  s :     0.846576
      pz      :     0.053725  p :     0.149851
      px      :     0.055202
      py      :     0.040925
      dz2     :     0.007352  d :     0.027485
      dxz     :     0.006659
      dyz     :     0.003864
      dx2y2   :     0.004217
      dxy     :     0.005394
 21 H s       :     0.851601  s :     0.851601
      pz      :     0.041895  p :     0.151096
      px      :     0.044924
      py      :     0.064278
      dz2     :     0.003442  d :     0.027482
      dxz     :     0.002429
      dyz     :     0.006759
      dx2y2   :     0.007099
      dxy     :     0.007752
 22 H s       :     0.846642  s :     0.846642
      pz      :     0.038233  p :     0.150671
      px      :     0.056613
      py      :     0.055825
      dz2     :     0.002355  d :     0.027378
      dxz     :     0.004914
      dyz     :     0.004003
      dx2y2   :     0.009317
      dxy     :     0.006789
 23 H s       :     0.860873  s :     0.860873
      pz      :     0.058521  p :     0.145400
      px      :     0.054383
      py      :     0.032496
      dz2     :     0.007857  d :     0.026769
      dxz     :     0.007357
      dyz     :     0.002869
      dx2y2   :     0.003747
      dxy     :     0.004940
 24 H s       :     0.850262  s :     0.850262
      pz      :     0.043320  p :     0.148424
      px      :     0.037632
      py      :     0.067473
      dz2     :     0.003647  d :     0.027219
      dxz     :     0.002341
      dyz     :     0.007435
      dx2y2   :     0.006848
      dxy     :     0.006947
 25 H s       :     0.829483  s :     0.829483
      pz      :     0.057874  p :     0.151053
      px      :     0.045497
      py      :     0.047682
      dz2     :     0.008050  d :     0.027734
      dxz     :     0.006118
      dyz     :     0.005944
      dx2y2   :     0.004767
      dxy     :     0.002855
 26 H s       :     0.843099  s :     0.843099
      pz      :     0.037477  p :     0.150065
      px      :     0.040588
      py      :     0.072000
      dz2     :     0.002748  d :     0.027727
      dxz     :     0.000398
      dyz     :     0.008926
      dx2y2   :     0.006652
      dxy     :     0.009003
 27 H s       :     0.830578  s :     0.830578
      pz      :     0.037263  p :     0.151842
      px      :     0.071565
      py      :     0.043015
      dz2     :     0.002379  d :     0.027798
      dxz     :     0.008442
      dyz     :     0.000420
      dx2y2   :     0.008288
      dxy     :     0.008269
 28 H s       :     0.742539  s :     0.742539
      pz      :     0.068033  p :     0.254095
      px      :     0.077686
      py      :     0.108375
      dz2     :     0.008451  d :     0.061880
      dxz     :     0.002950
      dyz     :     0.017650
      dx2y2   :     0.013992
      dxy     :     0.018838
 29 H s       :     0.747928  s :     0.747928
      pz      :     0.112367  p :     0.253930
      px      :     0.099223
      py      :     0.042340
      dz2     :     0.021676  d :     0.061349
      dxz     :     0.015763
      dyz     :     0.009761
      dx2y2   :     0.008274
      dxy     :     0.005874
 30 H s       :     0.825378  s :     0.825378
      pz      :     0.041563  p :     0.153301
      px      :     0.065563
      py      :     0.046174
      dz2     :     0.003448  d :     0.029200
      dxz     :     0.007590
      dyz     :     0.003052
      dx2y2   :     0.008021
      dxy     :     0.007089
 31 H s       :     0.840492  s :     0.840492
      pz      :     0.053298  p :     0.155798
      px      :     0.061662
      py      :     0.040838
      dz2     :     0.005533  d :     0.027454
      dxz     :     0.006412
      dyz     :     0.004263
      dx2y2   :     0.005599
      dxy     :     0.005648
 32 H s       :     0.843074  s :     0.843074
      pz      :     0.037101  p :     0.151316
      px      :     0.040210
      py      :     0.074006
      dz2     :     0.002927  d :     0.026477
      dxz     :     0.000970
      dyz     :     0.007416
      dx2y2   :     0.007485
      dxy     :     0.007679
 33 H s       :     0.849226  s :     0.849226
      pz      :     0.063684  p :     0.159095
      px      :     0.048046
      py      :     0.047365
      dz2     :     0.007505  d :     0.027763
      dxz     :     0.005812
      dyz     :     0.006552
      dx2y2   :     0.004068
      dxy     :     0.003826
 34 H s       :     0.707019  s :     0.707019
      pz      :     0.123058  p :     0.348079
      px      :     0.088512
      py      :     0.136509
      dz2     :     0.027342  d :     0.099620
      dxz     :     0.016052
      dyz     :     0.024448
      dx2y2   :     0.015573
      dxy     :     0.016205
 35 H s       :     0.839379  s :     0.839379
      pz      :     0.038909  p :     0.156651
      px      :     0.042260
      py      :     0.075482
      dz2     :     0.002945  d :     0.027916
      dxz     :     0.001132
      dyz     :     0.007858
      dx2y2   :     0.007843
      dxy     :     0.008137


                      *****************************
                      * MAYER POPULATION ANALYSIS *
                      *****************************

  NA   - Mulliken gross atomic population
  ZA   - Total nuclear charge
  QA   - Mulliken gross atomic charge
  VA   - Mayer's total valence
  BVA  - Mayer's bonded valence
  FA   - Mayer's free valence

  ATOM       NA         ZA         QA         VA         BVA        FA
  0 C      6.2653     6.0000    -0.2653     3.9016     3.9016    -0.0000
  1 C      5.9701     6.0000     0.0299     3.8605     3.8605    -0.0000
  2 O      8.3619     8.0000    -0.3619     2.0160     2.0160    -0.0000
  3 C      5.5482     6.0000     0.4518     4.2039     4.2039    -0.0000
  4 O      8.4080     8.0000    -0.4080     2.1020     2.1020    -0.0000
  5 C      6.1926     6.0000    -0.1926     3.6456     3.6456    -0.0000
  6 C      5.8473     6.0000     0.1527     3.8493     3.8493     0.0000
  7 C      6.2817     6.0000    -0.2817     3.8926     3.8926    -0.0000
  8 N      7.1281     7.0000    -0.1281     3.2952     3.2952    -0.0000
  9 C      5.7927     6.0000     0.2073     4.1543     4.1543     0.0000
 10 S     16.4414    16.0000    -0.4414     1.7554     1.7554    -0.0000
 11 N      7.2106     7.0000    -0.2106     3.2508     3.2508    -0.0000
 12 C      5.9599     6.0000     0.0401     3.9320     3.9320    -0.0000
 13 C      5.9668     6.0000     0.0332     3.7655     3.7655    -0.0000
 14 C      6.1701     6.0000    -0.1701     3.8669     3.8669    -0.0000
 15 C      6.1341     6.0000    -0.1341     3.8047     3.8047    -0.0000
 16 C      6.2774     6.0000    -0.2774     3.7963     3.7963    -0.0000
 17 C      5.6864     6.0000     0.3136     3.8592     3.8592    -0.0000
 18 O      8.3591     8.0000    -0.3591     2.1148     2.1148    -0.0000
 19 C      6.2526     6.0000    -0.2526     3.8457     3.8457     0.0000
 20 H      0.8981     1.0000     0.1019     0.9849     0.9849    -0.0000
 21 H      0.9096     1.0000     0.0904     0.9826     0.9826    -0.0000
 22 H      0.9081     1.0000     0.0919     0.9837     0.9837     0.0000
 23 H      0.9081     1.0000     0.0919     0.9748     0.9748    -0.0000
 24 H      0.8855     1.0000     0.1145     0.9851     0.9851    -0.0000
 25 H      0.8725     1.0000     0.1275     0.9808     0.9808    -0.0000
 26 H      0.8969     1.0000     0.1031     0.9863     0.9863    -0.0000
 27 H      0.8742     1.0000     0.1258     0.9794     0.9794    -0.0000
 28 H      0.8011     1.0000     0.1989     1.0218     1.0218    -0.0000
 29 H      0.8001     1.0000     0.1999     1.0145     1.0145    -0.0000
 30 H      0.8440     1.0000     0.1560     0.9917     0.9917    -0.0000
 31 H      0.8400     1.0000     0.1600     0.9901     0.9901    -0.0000
 32 H      0.8396     1.0000     0.1604     0.9770     0.9770     0.0000
 33 H      0.8715     1.0000     0.1285     0.9921     0.9921    -0.0000
 34 H      0.7599     1.0000     0.2401     1.0109     1.0109    -0.0000
 35 H      0.8362     1.0000     0.1638     0.9898     0.9898     0.0000

  Mayer bond orders larger than 0.100000
B(  0-C ,  1-C ) :   0.9768 B(  0-C , 20-H ) :   0.9774 B(  0-C , 21-H ) :   0.9797 
B(  0-C , 22-H ) :   0.9761 B(  1-C ,  2-O ) :   0.8970 B(  1-C , 23-H ) :   0.9732 
B(  1-C , 24-H ) :   0.9751 B(  2-O ,  3-C ) :   1.0928 B(  3-C ,  4-O ) :   2.0180 
B(  3-C ,  5-C ) :   1.0369 B(  5-C ,  6-C ) :   1.6587 B(  5-C , 12-C ) :   0.9483 
B(  6-C ,  7-C ) :   0.9541 B(  6-C ,  8-N ) :   1.1379 B(  7-C , 25-H ) :   0.9653 
B(  7-C , 26-H ) :   0.9906 B(  7-C , 27-H ) :   0.9643 B(  8-N ,  9-C ) :   1.1844 
B(  8-N , 28-H ) :   0.9469 B(  9-C , 10-S ) :   1.6094 B(  9-C , 11-N ) :   1.3059 
B( 11-N , 12-C ) :   0.9765 B( 11-N , 29-H ) :   0.9485 B( 12-C , 13-C ) :   0.9720 
B( 12-C , 30-H ) :   0.9967 B( 13-C , 14-C ) :   1.3778 B( 13-C , 19-C ) :   1.3640 
B( 14-C , 15-C ) :   1.3974 B( 14-C , 31-H ) :   0.9633 B( 15-C , 16-C ) :   1.3589 
B( 15-C , 32-H ) :   0.9710 B( 16-C , 17-C ) :   1.3332 B( 16-C , 33-H ) :   0.9859 
B( 17-C , 18-O ) :   1.1038 B( 17-C , 19-C ) :   1.3676 B( 18-O , 34-H ) :   0.9805 
B( 19-C , 35-H ) :   0.9602 

-------
TIMINGS
-------

Total SCF time: 0 days 1 hours 30 min 51 sec 

Total time                  ....    5451.962 sec
Sum of individual times     ....    5438.537 sec  ( 99.8%)

Fock matrix formation       ....    5393.517 sec  ( 98.9%)
Diagonalization             ....       7.150 sec  (  0.1%)
Density matrix formation    ....       0.257 sec  (  0.0%)
Population analysis         ....       0.680 sec  (  0.0%)
Initial guess               ....       5.131 sec  (  0.1%)
Orbital Transformation      ....       0.000 sec  (  0.0%)
Orbital Orthonormalization  ....       0.000 sec  (  0.0%)
DIIS solution               ....      21.598 sec  (  0.4%)
SOSCF solution              ....       9.144 sec  (  0.2%)

------------------------------------------------------------------------------
                                ORCA  MP2 
------------------------------------------------------------------------------

Freezing NCore=48 chemical core electrons

-------------
RI-MP2 ENERGY
-------------
Dimension of the basis                    ...  828
Memory devoted to MP2                     ...  256 MB   
Data format for buffers                   ... DOUBLE
Compression type for matrix containers    ... UNCOMPRESSED
Overall scaling of the MP2 energy         ...   1.000e+00
Calculating two index integrals           ... done (    0.032 sec)
Cholesky decomposition of V**-1           ... done (    1.809 sec)

-----------------
RI-TRANSFORMATION (AUX index driven)
-----------------

Dimension of the orbital-basis         ... 828
Dimension of the aux-basis             ... 2141
Transformation of internal/external MOs...   24-  76 to   77- 827
Number Format for Storage              ... Double (8 Byte)
Integral mode                          ... Direct

First Phase: integral generation and transformation of MO indices
  Aux angular momentum 0               ... done (    7.845 sec)
  Aux angular momentum 1               ... done (   14.229 sec)
  Aux angular momentum 2               ... done (   17.549 sec)
  Aux angular momentum 3               ... done (   15.113 sec)
  Aux angular momentum 4               ... done (    4.873 sec)
Closing buffer VIA ( 0.63 GB; CompressionRatio= 1.00)
  Phase 1 completed in    59.840 sec
Second Phase: sorting and transformation of aux index

IA-Transformation
Memory available                       ... 167 MB 
Max. # MO pairs treated in a batch     ... 12    
# of internal orbitals                 ... 53
# batches for internal orbitals        ... 5
Closing buffer IAV ( 0.63 GB; CompressionRatio= 1.00)
(ia|v) transformation done in    68.688 sec

  Phase 2 completed in    68.699 sec
RI-Integral transformation completed in   128.544 sec
Opening buffers                              ... done

Starting loop over batches of integrals:

Operator 0  - window                       ... ( 24- 76)x( 77-827)
Operator 0  - Memory available             ...   256 MB
Operator 0  - Memory needed per MO         ...  12.3 MB
Operator 0  - Number of orbitals per batch ... 13
Operator 0  - Number of batches            ... 5

OPERATOR  0   PASS   0:  MOs    24 ...   36
  Reading integrals       ... ok
  Internal MO  26
  Internal MO  29
  Internal MO  32
  Internal MO  35
OPERATOR  0   PASS   1:  MOs    37 ...   49
  Reading integrals       ... ok
  Internal MO  38
  Internal MO  41
  Internal MO  44
  Internal MO  47
OPERATOR  0   PASS   2:  MOs    50 ...   62
  Reading integrals       ... ok
  Internal MO  50
  Internal MO  53
  Internal MO  56
  Internal MO  59
  Internal MO  62
OPERATOR  0   PASS   3:  MOs    63 ...   75
  Reading integrals       ... ok
  Internal MO  65
  Internal MO  68
  Internal MO  71
  Internal MO  74
OPERATOR  0   PASS   4:  MOs    76 ...   76
  Reading integrals       ... ok
Time spent in pair loops =   448.332 sec
Deleting buffer (Ka|jb)[aa] ...done

-----------------------------------------------
 RI-MP2 CORRELATION ENERGY:     -3.527536298 Eh
-----------------------------------------------


-------
TIMINGS
-------

Total time                :  578.827 sec
Integral trafo            :  128.565 sec ( 22.2%)
I/O of integrals          :    5.311 sec (  0.9%)
K(i,j) Operators          :  375.914 sec ( 64.9%)
T(i,j) pair energies      :    3.566 sec (  0.6%)
V-calculation             :    0.032 sec (  0.0%)
V**(-1/2)                 :    1.809 sec (  0.3%)
Gamma(ia|P)               :    0.000 sec (  0.0%)
Gamma-Trafo               :    0.000 sec (  0.0%)
D(virtual)                :    0.000 sec (  0.0%)
D(internal)               :    0.000 sec (  0.0%)
W(virtual)                :    0.000 sec (  0.0%)
W(internal)               :    0.000 sec (  0.0%)
L(virtual)                :    0.000 sec (  0.0%)
L(internal)               :    0.000 sec (  0.0%)
G(D)                      :    0.000 sec (  0.0%)
G(Z)                      :    0.000 sec (  0.0%)
Z-Vector Solution         :    0.000 sec (  0.0%)
3-Index Derivative        :    0.000 sec (  0.0%)
2-Index Derivative        :    0.000 sec (  0.0%)
Separable Gradient        :    0.000 sec (  0.0%)


---------------------------------------
MP2 TOTAL ENERGY:    -1274.332541026 Eh
---------------------------------------

-------------------------   --------------------
FINAL SINGLE POINT ENERGY     -1274.332541026376
-------------------------   --------------------


                            ***************************************
                            *     ORCA property calculations      *
                            ***************************************


  WARNING: The energy has been calculated at the MP2 level but the densities
           used in the property calculations are still SCF densities
           MP2 response densities have not been calculated 
           use %mp2 Density relaxed end
           or  %mp2 Density unrelaxed end

                                    ---------------------
                                    Active property flags
                                    ---------------------
   (+) Dipole Moment


------------------------------------------------------------------------------
                       ORCA ELECTRIC PROPERTIES CALCULATION
------------------------------------------------------------------------------

Dipole Moment Calculation                       ... on
Quadrupole Moment Calculation                   ... off
Polarizability Calculation                      ... off
GBWName                                         ... CONFS/Conf68.orca.gbw
Electron density file                           ... CONFS/Conf68.orca.scfp
The origin for moment calculation is the CENTER OF MASS  = (31.914882, 33.056052 33.588598)

-------------
DIPOLE MOMENT
-------------
                                X             Y             Z
Electronic contribution:     10.36277       9.69436      11.82791
Nuclear contribution   :    -11.86491     -10.99600     -12.62894
                        -----------------------------------------
Total Dipole Moment    :     -1.50214      -1.30164      -0.80103
                        -----------------------------------------
Magnitude (a.u.)       :      2.14297
Magnitude (Debye)      :      5.44701



--------------------
Rotational spectrum 
--------------------
 
Rotational constants in cm-1:     0.009743     0.009047     0.005566 
Rotational constants in MHz :   292.088692   271.236167   166.849686 

 Dipole components along the rotational axes: 
x,y,z [a.u.] :     1.781733    -0.951630    -0.715657 
x,y,z [Debye]:     4.528804    -2.418852    -1.819055 

 

Timings for individual modules:

Sum of individual times         ...     6033.015 sec (= 100.550 min)
GTO integral calculation        ...        1.482 sec (=   0.025 min)   0.0 %
SCF iterations                  ...     5451.992 sec (=  90.867 min)  90.4 %
MP2 module                      ...      579.541 sec (=   9.659 min)   9.6 %
                             ****ORCA TERMINATED NORMALLY****
TOTAL RUN TIME: 0 days 1 hours 40 minutes 34 seconds 522 msec
