
                                 *****************
                                 * O   R   C   A *
                                 *****************

           --- An Ab Initio, DFT and Semiempirical electronic structure package ---

                  #######################################################
                  #                        -***-                        #
                  #          Department of theory and spectroscopy      #
                  #               Directorship: Frank Neese             #
                  #        Max Planck Institute fuer Kohlenforschung    #
                  #                Kaiser Wilhelm Platz 1               #
                  #                 D-45470 Muelheim/Ruhr               #
                  #                      Germany                        #
                  #                                                     #
                  #                  All rights reserved                #
                  #                        -***-                        #
                  #######################################################


                         Program Version 4.2.0 -  RELEASE  -


 With contributions from (in alphabetic order):
   Daniel Aravena         : Magnetic Suceptibility
   Michael Atanasov       : Ab Initio Ligand Field Theory (pilot matlab implementation)
   Alexander A. Auer      : GIAO ZORA, VPT2
   Ute Becker             : Parallelization
   Giovanni Bistoni       : ED, misc. LED, open-shell LED, HFLED
   Martin Brehm           : Molecular dynamics
   Dmytro Bykov           : SCF Hessian
   Vijay G. Chilkuri      : MRCI spin determinant printing, contributions to CSF-ICE
   Dipayan Datta          : RHF DLPNO-CCSD density
   Achintya Kumar Dutta   : EOM-CC, STEOM-CC
   Dmitry Ganyushin       : Spin-Orbit,Spin-Spin,Magnetic field MRCI
   Miquel Garcia          : C-PCM Hessian, Gaussian charge scheme
   Yang Guo               : DLPNO-NEVPT2, CIM, IAO-localization
   Andreas Hansen         : Spin unrestricted coupled pair/coupled cluster methods
   Benjamin Helmich-Paris : CASSCF linear response (MC-RPA)
   Lee Huntington         : MR-EOM, pCC
   Robert Izsak           : Overlap fitted RIJCOSX, COSX-SCS-MP3, EOM
   Christian Kollmar      : KDIIS, OOCD, Brueckner-CCSD(T), CCSD density
   Simone Kossmann        : Meta GGA functionals, TD-DFT gradient, OOMP2, MP2 Hessian
   Martin Krupicka        : AUTO-CI
   Lucas Lang             : DCDCAS
   Dagmar Lenk            : GEPOL surface, SMD
   Dimitrios Liakos       : Extrapolation schemes; Compound Job, initial MDCI parallelization
   Dimitrios Manganas     : Further ROCIS development; embedding schemes
   Dimitrios Pantazis     : SARC Basis sets
   Taras Petrenko         : DFT Hessian,TD-DFT gradient, ASA, ECA, R-Raman, ABS, FL, XAS/XES, NRVS
   Peter Pinski           : DLPNO-MP2, DLPNO-MP2 Gradient
   Christoph Reimann      : Effective Core Potentials
   Marius Retegan         : Local ZFS, SOC
   Christoph Riplinger    : Optimizer, TS searches, QM/MM, DLPNO-CCSD(T), (RO)-DLPNO pert. Triples
   Tobias Risthaus        : Range-separated hybrids, TD-DFT gradient, RPA, STAB
   Michael Roemelt        : Original ROCIS implementation
   Masaaki Saitow         : Open-shell DLPNO-CCSD energy and density
   Barbara Sandhoefer     : DKH picture change effects
   Avijit Sen             : IP-ROCIS
   Kantharuban Sivalingam : CASSCF convergence, NEVPT2, FIC-MRCI
   Bernardo de Souza      : ESD, SOC TD-DFT
   Georgi Stoychev        : AutoAux, RI-MP2 NMR
   Willem Van den Heuvel  : Paramagnetic NMR
   Boris Wezisla          : Elementary symmetry handling
   Frank Wennmohs         : Technical directorship


 We gratefully acknowledge several colleagues who have allowed us to
 interface, adapt or use parts of their codes:
   Stefan Grimme, W. Hujo, H. Kruse,             : VdW corrections, initial TS optimization,
                  C. Bannwarth                     DFT functionals, gCP, sTDA/sTD-DF
   Ed Valeev, F. Pavosevic, A. Kumar             : LibInt (2-el integral package), F12 methods
   Garnet Chan, S. Sharma, J. Yang, R. Olivares  : DMRG
   Ulf Ekstrom                                   : XCFun DFT Library
   Mihaly Kallay                                 : mrcc  (arbitrary order and MRCC methods)
   Andreas Klamt, Michael Diedenhofen            : otool_cosmo (COSMO solvation model)
   Jiri Pittner, Ondrej Demel                    : Mk-CCSD
   Frank Weinhold                                : gennbo (NPA and NBO analysis)
   Christopher J. Cramer and Donald G. Truhlar   : smd solvation model
   Lars Goerigk                                  : TD-DFT with DH, B97 family of functionals
   V. Asgeirsson, H. Jonsson                     : NEB implementation
   FAccTs GmbH                                   : IRC, NEB, NEB-TS, Multilevel, MM, QM/MM, CI optimization
   S Lehtola, MJT Oliveira, MAL Marques          : LibXC Library


 Your calculation uses the libint2 library for the computation of 2-el integrals
 For citations please refer to: http://libint.valeyev.net

 Your ORCA version has been built with support for libXC version: 4.2.3
 For citations please refer to: https://tddft.org/programs/libxc/

 This ORCA versions uses:
   CBLAS   interface :  Fast vector & matrix operations
   LAPACKE interface :  Fast linear algebra routines
   SCALAPACK package :  Parallel linear algebra routines


----- Orbital basis set information -----
Your calculation utilizes the basis: cc-pVTZ 
       H, B-Ne : Obtained from the ccRepo (grant-hill.group.shef.ac.uk/ccrepo) Feb. 2017
                 T. H. Dunning, Jr., J. Chem. Phys. 90, 1007 (1989)
            He : Obtained from the ccRepo (grant-hill.group.shef.ac.uk/ccrepo) Feb. 2017
                 D. E. Woon, T. H. Dunning, Jr., J. Chem. Phys. 100, 2975 (1994)
  Li-Be, Na-Mg : Obtained from the ccRepo (grant-hill.group.shef.ac.uk/ccrepo) Feb. 2017
                 B. P. Prascher, D. E. Woon, K. A. Peterson, T. H. Dunning, Jr., A. K. Wilson, Theor. Chem. Acc. 128, 69 (2011)
         Al-Ar : Obtained from the ccRepo (grant-hill.group.shef.ac.uk/ccrepo) Feb. 2017
                 D. E. Woon, T. H. Dunning, Jr., J. Chem. Phys. 98, 1358 (1993)
            Ca : Obtained from the Peterson Research Group Website (tyr0.chem.wsu.edu/~kipeters) Feb. 2017
                 J. Koput, K. A. Peterson, J. Phys. Chem. 106, 9595 (2002)
         Sc-Zn : Obtained from the ccRepo (grant-hill.group.shef.ac.uk/ccrepo) Feb. 2017
                 N. B. Balabanov, K. A. Peterson, J. Chem. Phys. 123, 064107 (2005)
                 N. B. Balabanov, K. A. Peterson, J. Chem. Phys. 125, 074110 (2006)
         Ga-Kr : Obtained from the ccRepo (grant-hill.group.shef.ac.uk/ccrepo) Feb. 2017
                 A. K. Wilson, D. E. Woon, K. A. Peterson, T. H. Dunning, Jr., J. Chem. Phys. 110, 7667 (1999)
             Y : Obtained from the ccRepo (grant-hill.group.shef.ac.uk/ccrepo) Feb. 2017
                 K. A. Peterson, D. Figgen, M. Dolg, H. Stoll, J. Chem. Phys. 126, 124101 (2007)
        Ag, Au : Obtained from the Peterson Research Group Website (tyr0.chem.wsu.edu/~kipeters) Feb. 2017
                 K. A. Peterson, C. Puzzarini, Theor. Chem. Acc. 114, 283 (2005)

----- AuxC basis set information -----
Your calculation utilizes the auxiliary basis: cc-pVTZ/C 
  Obtained from the EMSL Basis Set Exchange (bse.pnl.gov) Feb. 2017
  H-He, B-F, Al-Ar, Ga-Kr : F. Weigend, A. Kohn, C. Hattig, J. Chem. Phys. 116, 3175 (2002)
             Li-Be, Na-Mg : C. Haettig, Phys. Chem. Chem. Phys. 7, 59 (2005)
                       Ne : C. Haettig, Phys. Chem. Chem. Phys. 7, 59 (2005)
                            F. Weigend, A. Kohn, C. Hattig, J. Chem. Phys. 116, 3175 (2002)
                    Sc-Zn : J. G. Hill, J. A. Platts, J. Chem. Phys. 128, 044104 (2008)

================================================================================
                                        WARNINGS
                       Please study these warnings very carefully!
================================================================================


WARNING: No MP2 level density has been requested!
         To caclulate MP2 level properties use
         %mp2 Density relaxed end
         or
         %mp2 Density unrelaxed end

WARNING: Post HF methods need fully converged wavefunctions
  ===> : Setting SCFConvForced true
         You can overwrite this default with %scf ConvForced false 


INFO   : the flag for use of LIBINT has been found!

================================================================================
                                       INPUT FILE
================================================================================
NAME = CONFS/Conf102.orca
|  1> ! ri-mp2 cc-pvtz cc-pvtz/c TightSCF NoKeepInts
|  2> 
|  3> %scf
|  4>   MaxCore 4096
|  5> end
|  6> *xyz  0  1
|  7>     C       14.1875496   15.0947325   14.2533466
|  8>     C       14.8468348   15.9287783   15.3638660
|  9>     O       16.1159460   16.3788783   14.8662243
| 10>     C       17.1383960   16.4092920   15.7620770
| 11>     O       17.8489807   15.4376670   15.9458110
| 12>     C       17.2049835   17.6494779   16.6032094
| 13>     C       16.9311734   18.8805558   16.0990904
| 14>     C       16.3321780   19.2141145   14.7469645
| 15>     N       17.2614850   20.0331645   16.8159928
| 16>     C       18.0608084   20.0495768   17.9275443
| 17>     S       18.4994107   21.4631906   18.6651518
| 18>     N       18.4962407   18.8311809   18.3849228
| 19>     C       18.0524750   17.5198508   17.8727725
| 20>     C       17.4073813   16.6377650   18.9330739
| 21>     C       17.8601055   15.3228538   19.1425473
| 22>     C       17.2588766   14.5064726   20.1150872
| 23>     C       16.1957519   15.0094897   20.8845597
| 24>     C       15.7403321   16.3184591   20.6753252
| 25>     O       14.7092831   16.8044817   21.4113291
| 26>     C       16.3399042   17.1282453   19.7053580
| 27>     H       14.8204954   14.2379494   13.9889829
| 28>     H       14.0331335   15.7012975   13.3523718
| 29>     H       13.2137804   14.7129805   14.5833905
| 30>     H       14.2137928   16.7822509   15.6390537
| 31>     H       14.9807124   15.2922967   16.2505578
| 32>     H       16.8675368   18.6935691   13.9424649
| 33>     H       16.3796767   20.2853840   14.5156691
| 34>     H       15.2784970   18.9145282   14.6999849
| 35>     H       16.9724290   20.9369190   16.4769537
| 36>     H       19.0713994   18.8701065   19.2171232
| 37>     H       19.0153704   17.0968092   17.5502482
| 38>     H       18.6723936   14.9278957   18.5362539
| 39>     H       17.6147110   13.4885222   20.2645170
| 40>     H       15.7278834   14.3815964   21.6355555
| 41>     H       14.4618886   16.1200986   22.0513306
| 42>     H       15.9752029   18.1395691   19.5592884
| 43> *
| 44> 
| 45>                          ****END OF INPUT****
================================================================================

                       ****************************
                       * Single Point Calculation *
                       ****************************

---------------------------------
CARTESIAN COORDINATES (ANGSTROEM)
---------------------------------
  C     14.187550   15.094732   14.253347
  C     14.846835   15.928778   15.363866
  O     16.115946   16.378878   14.866224
  C     17.138396   16.409292   15.762077
  O     17.848981   15.437667   15.945811
  C     17.204983   17.649478   16.603209
  C     16.931173   18.880556   16.099090
  C     16.332178   19.214115   14.746965
  N     17.261485   20.033165   16.815993
  C     18.060808   20.049577   17.927544
  S     18.499411   21.463191   18.665152
  N     18.496241   18.831181   18.384923
  C     18.052475   17.519851   17.872772
  C     17.407381   16.637765   18.933074
  C     17.860105   15.322854   19.142547
  C     17.258877   14.506473   20.115087
  C     16.195752   15.009490   20.884560
  C     15.740332   16.318459   20.675325
  O     14.709283   16.804482   21.411329
  C     16.339904   17.128245   19.705358
  H     14.820495   14.237949   13.988983
  H     14.033133   15.701297   13.352372
  H     13.213780   14.712980   14.583390
  H     14.213793   16.782251   15.639054
  H     14.980712   15.292297   16.250558
  H     16.867537   18.693569   13.942465
  H     16.379677   20.285384   14.515669
  H     15.278497   18.914528   14.699985
  H     16.972429   20.936919   16.476954
  H     19.071399   18.870106   19.217123
  H     19.015370   17.096809   17.550248
  H     18.672394   14.927896   18.536254
  H     17.614711   13.488522   20.264517
  H     15.727883   14.381596   21.635555
  H     14.461889   16.120099   22.051331
  H     15.975203   18.139569   19.559288

----------------------------
CARTESIAN COORDINATES (A.U.)
----------------------------
  NO LB      ZA    FRAG     MASS         X           Y           Z
   0 C     6.0000    0    12.011   26.810583   28.524910   26.934922
   1 C     6.0000    0    12.011   28.056452   30.101029   29.033499
   2 O     8.0000    0    15.999   30.454724   30.951594   28.093093
   3 C     6.0000    0    12.011   32.386875   31.009068   29.786009
   4 O     8.0000    0    15.999   33.729685   29.172963   30.133216
   5 C     6.0000    0    12.011   32.512707   33.352680   31.375519
   6 C     6.0000    0    12.011   31.995281   35.679080   30.422872
   7 C     6.0000    0    12.011   30.863344   36.309414   27.867724
   8 N     7.0000    0    14.007   32.619479   37.857195   31.777621
   9 C     6.0000    0    12.011   34.129982   37.888209   33.878149
  10 S    16.0000    0    32.060   34.958820   40.559552   35.272025
  11 N     7.0000    0    14.007   34.952829   35.585775   34.742469
  12 C     6.0000    0    12.011   34.114234   33.107720   33.774645
  13 C     6.0000    0    12.011   32.895183   31.440819   35.778325
  14 C     6.0000    0    12.011   33.750708   28.955997   36.174172
  15 C     6.0000    0    12.011   32.614550   27.413260   38.012006
  16 C     6.0000    0    12.011   30.605536   28.363825   39.466098
  17 C     6.0000    0    12.011   29.744917   30.837419   39.070702
  18 O     8.0000    0    15.999   27.796517   31.755868   40.461548
  19 C     6.0000    0    12.011   30.877944   32.367693   37.237730
  20 H     1.0000    0     1.008   28.006677   26.905825   26.435347
  21 H     1.0000    0     1.008   26.518779   29.671152   25.232326
  22 H     1.0000    0     1.008   24.970426   27.803504   27.558614
  23 H     1.0000    0     1.008   26.860176   31.713858   29.553528
  24 H     1.0000    0     1.008   28.309444   28.898253   30.709104
  25 H     1.0000    0     1.008   31.875025   35.325726   26.347440
  26 H     1.0000    0     1.008   30.953103   38.333820   27.430639
  27 H     1.0000    0     1.008   28.872175   35.743278   27.778946
  28 H     1.0000    0     1.008   32.073243   39.565043   31.136930
  29 H     1.0000    0     1.008   36.039722   35.659333   36.315100
  30 H     1.0000    0     1.008   35.933842   32.308287   33.165163
  31 H     1.0000    0     1.008   35.285710   28.209635   35.028443
  32 H     1.0000    0     1.008   33.286980   25.489613   38.294387
  33 H     1.0000    0     1.008   29.721392   27.177279   40.885275
  34 H     1.0000    0     1.008   27.329009   30.462572   41.670976
  35 H     1.0000    0     1.008   30.188758   34.278818   36.961698

--------------------------------
INTERNAL COORDINATES (ANGSTROEM)
--------------------------------
 C      0   0   0     0.000000000000     0.00000000     0.00000000
 C      1   0   0     1.537381770808     0.00000000     0.00000000
 O      2   1   0     1.435576716705   107.38578952     0.00000000
 C      3   2   1     1.359735656569   116.31968515   217.56562828
 O      4   3   2     1.217679735914   121.35694677    88.70379786
 C      4   3   2     1.499999558682   114.91814707   275.84060566
 C      6   4   3     1.358182879030   122.16303176   321.41752541
 C      7   6   4     1.516014955407   127.59914321     9.98382392
 N      7   6   4     1.396983041964   120.64457632   193.19369602
 C      9   7   6     1.369209260315   124.36984478    11.49313934
 S     10   9   7     1.653705166338   121.81503949   175.54747642
 N     10   9   7     1.372328295009   116.43346064   356.54259692
 C     12  10   9     1.476080132463   125.28946191   352.71202290
 C     13  12  10     1.522649105731   113.60381494   239.40635916
 C     14  13  12     1.406353359031   120.59587924   232.66507107
 C     15  14  13     1.404915766514   120.57409713   180.41168158
 C     16  15  14     1.405470831750   119.65168761     0.00000000
 C     17  16  15     1.401637314129   119.88660583     0.16319009
 O     18  17  16     1.356827825823   120.02996332   179.62988613
 C     18  17  16     1.398598141671   120.32842816   359.90804741
 H      1   2   3     1.097536255465   110.49888934    59.53556030
 H      1   2   3     1.097051056879   110.71036582   299.47952451
 H      1   2   3     1.096763429505   110.62230525   179.36955378
 H      2   1   3     1.097672958101   110.82990250   120.98750034
 H      2   1   3     1.099661032822   108.70247651   240.20397805
 H      8   7   6     1.097632071597   110.89459344   309.79406453
 H      8   7   6     1.096983149457   112.69409852   190.24468530
 H      8   7   6     1.096450037040   110.96497174    69.72916710
 H      9   7   6     1.007607601567   119.96867573   186.09487520
 H     12  10   9     1.012363688741   114.84105943   181.05834521
 H     13  12  10     1.100069848129   100.38216158   121.31803738
 H     15  14  13     1.087839852663   119.78967942   359.44169606
 H     16  15  14     1.088655318368   119.90010940   179.68434151
 H     17  16  15     1.084963419243   119.86948734   179.90829825
 H     19  18  17     0.969116188183   107.41269201     3.07042984
 H     20  18  17     1.084951240707   119.27315186   180.13795892

---------------------------
INTERNAL COORDINATES (A.U.)
---------------------------
 C      0   0   0     0.000000000000     0.00000000     0.00000000
 C      1   0   0     2.905230510110     0.00000000     0.00000000
 O      2   1   0     2.712846838806   107.38578952     0.00000000
 C      3   2   1     2.569528005443   116.31968515   217.56562828
 O      4   3   2     2.301081219703   121.35694677    88.70379786
 C      4   3   2     2.834588366911   114.91814707   275.84060566
 C      6   4   3     2.566593681148   122.16303176   321.41752541
 C      7   6   4     2.864853080648   127.59914321     9.98382392
 N      7   6   4     2.639915363045   120.64457632   193.19369602
 C      9   7   6     2.587430522023   124.36984478    11.49313934
 S     10   9   7     3.125049870629   121.81503949   175.54747642
 N     10   9   7     2.593324643398   116.43346064   356.54259692
 C     12  10   9     2.789387202078   125.28946191   352.71202290
 C     13  12  10     2.877389807892   113.60381494   239.40635916
 C     14  13  12     2.657622696089   120.59587924   232.66507107
 C     15  14  13     2.654906039940   120.57409713   180.41168158
 C     16  15  14     2.655954961221   119.65168761     0.00000000
 C     17  16  15     2.648710662789   119.88660583     0.16319009
 O     18  17  16     2.564033001689   120.02996332   179.62988613
 C     18  17  16     2.642967459169   120.32842816   359.90804741
 H      1   2   3     2.074042944879   110.49888934    59.53556030
 H      1   2   3     2.073126052430   110.71036582   299.47952451
 H      1   2   3     2.072582515465   110.62230525   179.36955378
 H      2   1   3     2.074301275422   110.82990250   120.98750034
 H      2   1   3     2.078058192179   108.70247651   240.20397805
 H      8   7   6     2.074224011127   110.89459344   309.79406453
 H      8   7   6     2.072997726001   112.69409852   190.24468530
 H      8   7   6     2.071990289533   110.96497174    69.72916710
 H      9   7   6     1.904102417418   119.96867573   186.09487520
 H     12  10   9     1.913090119647   114.84105943   181.05834521
 H     13  12  10     2.078830741148   100.38216158   121.31803738
 H     15  14  13     2.055719399097   119.78967942   359.44169606
 H     16  15  14     2.057260405953   119.90010940   179.68434151
 H     17  16  15     2.050283727691   119.86948734   179.90829825
 H     19  18  17     1.831364187615   107.41269201     3.07042984
 H     20  18  17     2.050260713595   119.27315186   180.13795892

---------------------
BASIS SET INFORMATION
---------------------
There are 5 groups of distinct atoms

 Group   1 Type C   : 18s5p2d1f contracted to 4s3p2d1f pattern {8811/311/11/1}
 Group   2 Type O   : 18s5p2d1f contracted to 4s3p2d1f pattern {8811/311/11/1}
 Group   3 Type N   : 18s5p2d1f contracted to 4s3p2d1f pattern {8811/311/11/1}
 Group   4 Type S   : 41s16p2d1f contracted to 5s4p2d1f pattern {13131311/7711/11/1}
 Group   5 Type H   : 5s2p1d contracted to 3s2p1d pattern {311/11/1}

Atom   0C    basis set group =>   1
Atom   1C    basis set group =>   1
Atom   2O    basis set group =>   2
Atom   3C    basis set group =>   1
Atom   4O    basis set group =>   2
Atom   5C    basis set group =>   1
Atom   6C    basis set group =>   1
Atom   7C    basis set group =>   1
Atom   8N    basis set group =>   3
Atom   9C    basis set group =>   1
Atom  10S    basis set group =>   4
Atom  11N    basis set group =>   3
Atom  12C    basis set group =>   1
Atom  13C    basis set group =>   1
Atom  14C    basis set group =>   1
Atom  15C    basis set group =>   1
Atom  16C    basis set group =>   1
Atom  17C    basis set group =>   1
Atom  18O    basis set group =>   2
Atom  19C    basis set group =>   1
Atom  20H    basis set group =>   5
Atom  21H    basis set group =>   5
Atom  22H    basis set group =>   5
Atom  23H    basis set group =>   5
Atom  24H    basis set group =>   5
Atom  25H    basis set group =>   5
Atom  26H    basis set group =>   5
Atom  27H    basis set group =>   5
Atom  28H    basis set group =>   5
Atom  29H    basis set group =>   5
Atom  30H    basis set group =>   5
Atom  31H    basis set group =>   5
Atom  32H    basis set group =>   5
Atom  33H    basis set group =>   5
Atom  34H    basis set group =>   5
Atom  35H    basis set group =>   5
---------------------------------
AUXILIARY/C BASIS SET INFORMATION
---------------------------------
There are 5 groups of distinct atoms

 Group   1 Type C   : 8s6p5d3f1g contracted to 8s6p5d3f1g pattern {11111111/111111/11111/111/1}
 Group   2 Type O   : 8s6p5d3f1g contracted to 8s6p5d3f1g pattern {11111111/111111/11111/111/1}
 Group   3 Type N   : 8s6p5d3f1g contracted to 8s6p5d3f1g pattern {11111111/111111/11111/111/1}
 Group   4 Type S   : 10s8p7d5f2g contracted to 10s8p7d5f2g pattern {1111111111/11111111/1111111/11111/11}
 Group   5 Type H   : 4s3p2d1f contracted to 4s3p2d1f pattern {1111/111/11/1}

Atom   0C    basis set group =>   1
Atom   1C    basis set group =>   1
Atom   2O    basis set group =>   2
Atom   3C    basis set group =>   1
Atom   4O    basis set group =>   2
Atom   5C    basis set group =>   1
Atom   6C    basis set group =>   1
Atom   7C    basis set group =>   1
Atom   8N    basis set group =>   3
Atom   9C    basis set group =>   1
Atom  10S    basis set group =>   4
Atom  11N    basis set group =>   3
Atom  12C    basis set group =>   1
Atom  13C    basis set group =>   1
Atom  14C    basis set group =>   1
Atom  15C    basis set group =>   1
Atom  16C    basis set group =>   1
Atom  17C    basis set group =>   1
Atom  18O    basis set group =>   2
Atom  19C    basis set group =>   1
Atom  20H    basis set group =>   5
Atom  21H    basis set group =>   5
Atom  22H    basis set group =>   5
Atom  23H    basis set group =>   5
Atom  24H    basis set group =>   5
Atom  25H    basis set group =>   5
Atom  26H    basis set group =>   5
Atom  27H    basis set group =>   5
Atom  28H    basis set group =>   5
Atom  29H    basis set group =>   5
Atom  30H    basis set group =>   5
Atom  31H    basis set group =>   5
Atom  32H    basis set group =>   5
Atom  33H    basis set group =>   5
Atom  34H    basis set group =>   5
Atom  35H    basis set group =>   5
------------------------------------------------------------------------------
                           ORCA GTO INTEGRAL CALCULATION
------------------------------------------------------------------------------

                         BASIS SET STATISTICS AND STARTUP INFO

 # of primitive gaussian shells          ...  682
 # of primitive gaussian functions       ... 1312
 # of contracted shells                  ...  298
 # of contracted basis functions         ...  828
 Highest angular momentum                ...    3
 Maximum contraction depth               ...   13
 Integral package used                   ... LIBINT
 Integral threshhold            Thresh   ...  2.500e-11
 Primitive cut-off              TCut     ...  2.500e-12


------------------------------ INTEGRAL EVALUATION ----------------------------


 * One electron integrals 
 Pre-screening matrix                    ... done
 Shell pair data                         ... done (   0.012 sec)

-------------------------------------------------------------------------------
                                 ORCA SCF
-------------------------------------------------------------------------------

------------
SCF SETTINGS
------------
Hamiltonian:
 Ab initio Hamiltonian  Method          .... Hartree-Fock(GTOs)


General Settings:
 Integral files         IntName         .... CONFS/Conf102.orca
 Hartree-Fock type      HFTyp           .... RHF
 Total Charge           Charge          ....    0
 Multiplicity           Mult            ....    1
 Number of Electrons    NEL             ....  154
 Basis Dimension        Dim             ....  828
 Nuclear Repulsion      ENuc            ....   1686.3205723549 Eh

Convergence Acceleration:
 DIIS                   CNVDIIS         .... on
   Start iteration      DIISMaxIt       ....    12
   Startup error        DIISStart       ....  0.200000
   # of expansion vecs  DIISMaxEq       ....     5
   Bias factor          DIISBfac        ....   1.050
   Max. coefficient     DIISMaxC        ....  10.000
 Newton-Raphson         CNVNR           .... off
 SOSCF                  CNVSOSCF        .... on
   Start iteration      SOSCFMaxIt      ....   150
   Startup grad/error   SOSCFStart      ....  0.003300
 Level Shifting         CNVShift        .... on
   Level shift para.    LevelShift      ....    0.2500
   Turn off err/grad.   ShiftErr        ....    0.0010
 Zerner damping         CNVZerner       .... off
 Static damping         CNVDamp         .... on
   Fraction old density DampFac         ....    0.7000
   Max. Damping (<1)    DampMax         ....    0.9800
   Min. Damping (>=0)   DampMin         ....    0.0000
   Turn off err/grad.   DampErr         ....    0.1000
 Fernandez-Rico         CNVRico         .... off

SCF Procedure:
 Maximum # iterations   MaxIter         ....   125
 SCF integral mode      SCFMode         .... Direct
   Integral package                     .... LIBINT
 Reset frequency        DirectResetFreq ....    20
 Integral Threshold     Thresh          ....  2.500e-11 Eh
 Primitive CutOff       TCut            ....  2.500e-12 Eh

Convergence Tolerance:
 Convergence Check Mode ConvCheckMode   .... Total+1el-Energy
 Convergence forced     ConvForced      .... 1
 Energy Change          TolE            ....  1.000e-08 Eh
 1-El. energy change                    ....  1.000e-05 Eh
 Orbital Gradient       TolG            ....  1.000e-05
 Orbital Rotation angle TolX            ....  1.000e-05
 DIIS Error             TolErr          ....  5.000e-07


Diagonalization of the overlap matrix:
Smallest eigenvalue                        ... 3.546e-05
Time for diagonalization                   ...    0.281 sec
Threshold for overlap eigenvalues          ... 1.000e-08
Number of eigenvalues below threshold      ... 0
Time for construction of square roots      ...    0.253 sec
Total time needed                          ...    0.535 sec

-------------------
DFT GRID GENERATION
-------------------

General Integration Accuracy     IntAcc      ...  4.340
Radial Grid Type                 RadialGrid  ... Gauss-Chebyshev
Angular Grid (max. acc.)         AngularGrid ... Lebedev-110
Angular grid pruning method      GridPruning ... 3 (G Style)
Weight generation scheme         WeightScheme... Becke
Basis function cutoff            BFCut       ...    1.0000e-11
Integration weight cutoff        WCut        ...    1.0000e-14
Grids for H and He will be reduced by one unit

# of grid points (after initial pruning)     ...  46246 (   0.0 sec)
# of grid points (after weights+screening)   ...  41406 (   0.3 sec)
nearest neighbour list constructed           ...    0.0 sec
Grid point re-assignment to atoms done       ...    0.0 sec
Grid point division into batches done        ...    0.0 sec
Reduced shell lists constructed in    0.8 sec

Total number of grid points                  ...    41406
Total number of batches                      ...      663
Average number of points per batch           ...       62
Average number of grid points per atom       ...     1150
Average number of shells per batch           ...   145.76 (48.91%)
Average number of basis functions per batch  ...   370.30 (44.72%)
Average number of large shells per batch     ...    92.88 (63.72%)
Average number of large basis fcns per batch ...   239.50 (64.68%)
Maximum spatial batch extension              ...  20.56, 20.59, 21.58 au
Average spatial batch extension              ...   3.61,  3.45,  3.50 au

Time for grid setup =    1.082 sec

------------------------------
INITIAL GUESS: MODEL POTENTIAL
------------------------------
Loading Hartree-Fock densities                     ... done
Calculating cut-offs                               ... done
Setting up the integral package                    ... done
Initializing the effective Hamiltonian             ... done
Starting the Coulomb interaction                   ... done (   2.8 sec)
Reading the grid                                   ... done
Mapping shells                                     ... done
Starting the XC term evaluation                    ... done (   1.0 sec)
Transforming the Hamiltonian                       ... done (   0.2 sec)
Diagonalizing the Hamiltonian                      ... done (   0.3 sec)
Back transforming the eigenvectors                 ... done (   0.1 sec)
Now organizing SCF variables                       ... done
                      ------------------
                      INITIAL GUESS DONE (   5.8 sec)
                      ------------------
--------------
SCF ITERATIONS
--------------
ITER       Energy         Delta-E        Max-DP      RMS-DP      [F,P]     Damp
               ***  Starting incremental Fock matrix formation  ***
  0  -1269.9987856050   0.000000000000 0.04931968  0.00043458  0.3022684 0.7000
  1  -1270.2674107677  -0.268625162767 0.03608533  0.00035064  0.1755277 0.7000
                               ***Turning on DIIS***
  2  -1270.4348728427  -0.167462075000 0.02584136  0.00023499  0.1097518 0.7000
  3  -1272.5646132434  -2.129740400632 0.06314255  0.00050785  0.0828578 0.0000
  4  -1270.7415797562   1.823033487191 0.01230021  0.00010015  0.0068056 0.0000
  5  -1270.8046766718  -0.063096915636 0.00525871  0.00005236  0.0038592 0.0000
                      *** Initiating the SOSCF procedure ***
                           *** Shutting down DIIS ***
                      *** Re-Reading the Fockian *** 
                      *** Removing any level shift *** 
ITER      Energy       Delta-E        Grad      Rot      Max-DP    RMS-DP
  6  -1270.78354624   0.0211304329  0.001900  0.001900  0.002719  0.000027
               *** Restarting incremental Fock matrix formation ***
  7  -1270.79832440  -0.0147781573  0.001078  0.002756  0.001604  0.000016
  8  -1270.79837388  -0.0000494809  0.000502  0.003322  0.001929  0.000019
  9  -1270.79839326  -0.0000193779  0.000184  0.000359  0.000364  0.000004
 10  -1270.79839571  -0.0000024578  0.000056  0.000149  0.000129  0.000001
 11  -1270.79839596  -0.0000002448  0.000024  0.000141  0.000075  0.000001
 12  -1270.79839602  -0.0000000665  0.000010  0.000037  0.000026  0.000000
 13  -1270.79839603  -0.0000000047  0.000003  0.000007  0.000004  0.000000
                  ***Gradient check signals convergence***
              ***Rediagonalizing the Fockian in SOSCF/NRSCF***

               *****************************************************
               *                     SUCCESS                       *
               *           SCF CONVERGED AFTER  14 CYCLES          *
               *****************************************************


----------------
TOTAL SCF ENERGY
----------------

Total Energy       :        -1270.79839602 Eh          -34580.18238 eV

Components:
Nuclear Repulsion  :         1686.32057235 Eh           45887.11563 eV
Electronic Energy  :        -2957.11896838 Eh          -80467.29801 eV
One Electron Energy:        -5093.69000053 Eh         -138606.35153 eV
Two Electron Energy:         2136.57103215 Eh           58139.05352 eV

Virial components:
Potential Energy   :        -2539.83451169 Eh          -69112.41067 eV
Kinetic Energy     :         1269.03611566 Eh           34532.22829 eV
Virial Ratio       :            2.00138868


---------------
SCF CONVERGENCE
---------------

  Last Energy change         ...    4.1050e-09  Tolerance :   1.0000e-08
  Last MAX-Density change    ...    2.1772e-06  Tolerance :   1.0000e-07
  Last RMS-Density change    ...    3.1973e-08  Tolerance :   5.0000e-09
  Last Orbital Gradient      ...    9.9646e-07  Tolerance :   1.0000e-05
  Last Orbital Rotation      ...    2.9756e-06  Tolerance :   1.0000e-05

             **** THE GBW FILE WAS UPDATED (CONFS/Conf102.orca.gbw) ****
             **** DENSITY FILE WAS UPDATED (CONFS/Conf102.orca.scfp) ****
             **** ENERGY FILE WAS UPDATED (CONFS/Conf102.orca.en.tmp) ****
             **** THE GBW FILE WAS UPDATED (CONFS/Conf102.orca.gbw) ****
             **** DENSITY FILE WAS UPDATED (CONFS/Conf102.orca.scfp) ****
----------------
ORBITAL ENERGIES
----------------

  NO   OCC          E(Eh)            E(eV) 
   0   2.0000     -91.890064     -2500.4558 
   1   2.0000     -20.595019      -560.4190 
   2   2.0000     -20.588111      -560.2310 
   3   2.0000     -20.553317      -559.2842 
   4   2.0000     -15.631013      -425.3415 
   5   2.0000     -15.607664      -424.7061 
   6   2.0000     -11.393806      -310.0412 
   7   2.0000     -11.384901      -309.7989 
   8   2.0000     -11.340368      -308.5871 
   9   2.0000     -11.311285      -307.7957 
  10   2.0000     -11.306196      -307.6572 
  11   2.0000     -11.305712      -307.6441 
  12   2.0000     -11.263046      -306.4831 
  13   2.0000     -11.260527      -306.4145 
  14   2.0000     -11.258480      -306.3588 
  15   2.0000     -11.251211      -306.1610 
  16   2.0000     -11.241288      -305.8910 
  17   2.0000     -11.237534      -305.7888 
  18   2.0000     -11.233973      -305.6919 
  19   2.0000     -11.232463      -305.6509 
  20   2.0000      -8.895139      -242.0490 
  21   2.0000      -6.576713      -178.9614 
  22   2.0000      -6.574712      -178.9070 
  23   2.0000      -6.574120      -178.8909 
  24   2.0000      -1.453491       -39.5515 
  25   2.0000      -1.414765       -38.4977 
  26   2.0000      -1.360627       -37.0245 
  27   2.0000      -1.341957       -36.5165 
  28   2.0000      -1.238972       -33.7141 
  29   2.0000      -1.155767       -31.4500 
  30   2.0000      -1.123037       -30.5594 
  31   2.0000      -1.045096       -28.4385 
  32   2.0000      -1.037609       -28.2348 
  33   2.0000      -1.013408       -27.5762 
  34   2.0000      -1.001912       -27.2634 
  35   2.0000      -0.986670       -26.8487 
  36   2.0000      -0.923315       -25.1247 
  37   2.0000      -0.880362       -23.9559 
  38   2.0000      -0.852167       -23.1886 
  39   2.0000      -0.840600       -22.8739 
  40   2.0000      -0.832235       -22.6463 
  41   2.0000      -0.830954       -22.6114 
  42   2.0000      -0.760085       -20.6830 
  43   2.0000      -0.737012       -20.0551 
  44   2.0000      -0.729101       -19.8398 
  45   2.0000      -0.693099       -18.8602 
  46   2.0000      -0.688667       -18.7396 
  47   2.0000      -0.681549       -18.5459 
  48   2.0000      -0.673098       -18.3159 
  49   2.0000      -0.659020       -17.9329 
  50   2.0000      -0.649211       -17.6659 
  51   2.0000      -0.645660       -17.5693 
  52   2.0000      -0.636642       -17.3239 
  53   2.0000      -0.612706       -16.6726 
  54   2.0000      -0.604789       -16.4571 
  55   2.0000      -0.601923       -16.3792 
  56   2.0000      -0.598296       -16.2805 
  57   2.0000      -0.581422       -15.8213 
  58   2.0000      -0.576080       -15.6759 
  59   2.0000      -0.563517       -15.3341 
  60   2.0000      -0.562917       -15.3178 
  61   2.0000      -0.554137       -15.0788 
  62   2.0000      -0.540874       -14.7179 
  63   2.0000      -0.520348       -14.1594 
  64   2.0000      -0.516741       -14.0612 
  65   2.0000      -0.512141       -13.9361 
  66   2.0000      -0.503944       -13.7130 
  67   2.0000      -0.496801       -13.5187 
  68   2.0000      -0.483675       -13.1615 
  69   2.0000      -0.466726       -12.7003 
  70   2.0000      -0.460655       -12.5351 
  71   2.0000      -0.453527       -12.3411 
  72   2.0000      -0.355617        -9.6768 
  73   2.0000      -0.347716        -9.4618 
  74   2.0000      -0.329109        -8.9555 
  75   2.0000      -0.319442        -8.6924 
  76   2.0000      -0.318096        -8.6558 
  77   0.0000       0.072643         1.9767 
  78   0.0000       0.107496         2.9251 
  79   0.0000       0.118159         3.2153 
  80   0.0000       0.133403         3.6301 
  81   0.0000       0.138718         3.7747 
  82   0.0000       0.141716         3.8563 
  83   0.0000       0.151771         4.1299 
  84   0.0000       0.158113         4.3025 
  85   0.0000       0.162296         4.4163 
  86   0.0000       0.164342         4.4720 
  87   0.0000       0.173668         4.7257 
  88   0.0000       0.186214         5.0671 
  89   0.0000       0.196474         5.3463 
  90   0.0000       0.198412         5.3991 
  91   0.0000       0.206200         5.6110 
  92   0.0000       0.211516         5.7556 
  93   0.0000       0.215408         5.8615 
  94   0.0000       0.221806         6.0357 
  95   0.0000       0.229314         6.2400 
  96   0.0000       0.238404         6.4873 
  97   0.0000       0.245332         6.6758 
  98   0.0000       0.258674         7.0389 
  99   0.0000       0.277845         7.5605 
 100   0.0000       0.298820         8.1313 
 101   0.0000       0.303630         8.2622 
 102   0.0000       0.311893         8.4870 
 103   0.0000       0.315752         8.5920 
 104   0.0000       0.322903         8.7866 
 105   0.0000       0.325779         8.8649 
 106   0.0000       0.343253         9.3404 
 107   0.0000       0.346580         9.4309 
 108   0.0000       0.349696         9.5157 
 109   0.0000       0.359836         9.7916 
 110   0.0000       0.364982         9.9317 
 111   0.0000       0.374546        10.1919 
 112   0.0000       0.381195        10.3728 
 113   0.0000       0.391663        10.6577 
 114   0.0000       0.393751        10.7145 
 115   0.0000       0.399619        10.8742 
 116   0.0000       0.419185        11.4066 
 117   0.0000       0.427027        11.6200 
 118   0.0000       0.434266        11.8170 
 119   0.0000       0.436920        11.8892 
 120   0.0000       0.443281        12.0623 
 121   0.0000       0.453459        12.3393 
 122   0.0000       0.455070        12.3831 
 123   0.0000       0.456577        12.4241 
 124   0.0000       0.457932        12.4610 
 125   0.0000       0.468529        12.7493 
 126   0.0000       0.473319        12.8797 
 127   0.0000       0.479013        13.0346 
 128   0.0000       0.487823        13.2743 
 129   0.0000       0.496690        13.5156 
 130   0.0000       0.499832        13.6011 
 131   0.0000       0.506787        13.7904 
 132   0.0000       0.514599        14.0030 
 133   0.0000       0.515832        14.0365 
 134   0.0000       0.520404        14.1609 
 135   0.0000       0.524943        14.2844 
 136   0.0000       0.528121        14.3709 
 137   0.0000       0.539357        14.6767 
 138   0.0000       0.541001        14.7214 
 139   0.0000       0.542847        14.7716 
 140   0.0000       0.549208        14.9447 
 141   0.0000       0.560693        15.2572 
 142   0.0000       0.563541        15.3347 
 143   0.0000       0.569588        15.4993 
 144   0.0000       0.573757        15.6127 
 145   0.0000       0.579547        15.7703 
 146   0.0000       0.582411        15.8482 
 147   0.0000       0.588983        16.0270 
 148   0.0000       0.591425        16.0935 
 149   0.0000       0.597024        16.2458 
 150   0.0000       0.600990        16.3538 
 151   0.0000       0.604375        16.4459 
 152   0.0000       0.610378        16.6092 
 153   0.0000       0.614821        16.7301 
 154   0.0000       0.622368        16.9355 
 155   0.0000       0.625192        17.0124 
 156   0.0000       0.627907        17.0862 
 157   0.0000       0.629381        17.1263 
 158   0.0000       0.634451        17.2643 
 159   0.0000       0.641009        17.4428 
 160   0.0000       0.643880        17.5209 
 161   0.0000       0.645695        17.5702 
 162   0.0000       0.654317        17.8049 
 163   0.0000       0.661185        17.9918 
 164   0.0000       0.662869        18.0376 
 165   0.0000       0.666919        18.1478 
 166   0.0000       0.676548        18.4098 
 167   0.0000       0.682015        18.5586 
 168   0.0000       0.686720        18.6866 
 169   0.0000       0.689935        18.7741 
 170   0.0000       0.691826        18.8256 
 171   0.0000       0.704437        19.1687 
 172   0.0000       0.710400        19.3310 
 173   0.0000       0.715450        19.4684 
 174   0.0000       0.719832        19.5876 
 175   0.0000       0.726097        19.7581 
 176   0.0000       0.731467        19.9042 
 177   0.0000       0.738216        20.0879 
 178   0.0000       0.742360        20.2006 
 179   0.0000       0.753565        20.5056 
 180   0.0000       0.756887        20.5959 
 181   0.0000       0.759592        20.6695 
 182   0.0000       0.775365        21.0988 
 183   0.0000       0.777369        21.1533 
 184   0.0000       0.795391        21.6437 
 185   0.0000       0.809143        22.0179 
 186   0.0000       0.812988        22.1225 
 187   0.0000       0.825335        22.4585 
 188   0.0000       0.827587        22.5198 
 189   0.0000       0.833716        22.6866 
 190   0.0000       0.837163        22.7804 
 191   0.0000       0.844886        22.9905 
 192   0.0000       0.848198        23.0807 
 193   0.0000       0.860856        23.4251 
 194   0.0000       0.867541        23.6070 
 195   0.0000       0.871689        23.7199 
 196   0.0000       0.881681        23.9918 
 197   0.0000       0.888790        24.1852 
 198   0.0000       0.894232        24.3333 
 199   0.0000       0.901599        24.5338 
 200   0.0000       0.908911        24.7327 
 201   0.0000       0.913797        24.8657 
 202   0.0000       0.924136        25.1470 
 203   0.0000       0.932591        25.3771 
 204   0.0000       0.934237        25.4219 
 205   0.0000       0.936520        25.4840 
 206   0.0000       0.947660        25.7871 
 207   0.0000       0.961233        26.1565 
 208   0.0000       0.964809        26.2538 
 209   0.0000       0.975895        26.5554 
 210   0.0000       0.979719        26.6595 
 211   0.0000       0.987083        26.8599 
 212   0.0000       0.991200        26.9719 
 213   0.0000       1.005326        27.3563 
 214   0.0000       1.013506        27.5789 
 215   0.0000       1.018976        27.7278 
 216   0.0000       1.024142        27.8683 
 217   0.0000       1.031674        28.0733 
 218   0.0000       1.035778        28.1849 
 219   0.0000       1.044396        28.4195 
 220   0.0000       1.051855        28.6224 
 221   0.0000       1.056698        28.7542 
 222   0.0000       1.059399        28.8277 
 223   0.0000       1.076147        29.2835 
 224   0.0000       1.082060        29.4443 
 225   0.0000       1.091610        29.7042 
 226   0.0000       1.095191        29.8017 
 227   0.0000       1.103446        30.0263 
 228   0.0000       1.105492        30.0820 
 229   0.0000       1.112288        30.2669 
 230   0.0000       1.115439        30.3526 
 231   0.0000       1.129987        30.7485 
 232   0.0000       1.134466        30.8704 
 233   0.0000       1.140313        31.0295 
 234   0.0000       1.148737        31.2587 
 235   0.0000       1.156875        31.4802 
 236   0.0000       1.159021        31.5386 
 237   0.0000       1.170743        31.8575 
 238   0.0000       1.177526        32.0421 
 239   0.0000       1.189942        32.3800 
 240   0.0000       1.191109        32.4117 
 241   0.0000       1.192231        32.4423 
 242   0.0000       1.197932        32.5974 
 243   0.0000       1.210176        32.9306 
 244   0.0000       1.211806        32.9749 
 245   0.0000       1.226798        33.3829 
 246   0.0000       1.229551        33.4578 
 247   0.0000       1.233203        33.5572 
 248   0.0000       1.239176        33.7197 
 249   0.0000       1.250021        34.0148 
 250   0.0000       1.263552        34.3830 
 251   0.0000       1.265654        34.4402 
 252   0.0000       1.274816        34.6895 
 253   0.0000       1.279729        34.8232 
 254   0.0000       1.284353        34.9490 
 255   0.0000       1.292833        35.1798 
 256   0.0000       1.300315        35.3834 
 257   0.0000       1.306091        35.5405 
 258   0.0000       1.310282        35.6546 
 259   0.0000       1.326084        36.0846 
 260   0.0000       1.340453        36.4756 
 261   0.0000       1.346193        36.6318 
 262   0.0000       1.358663        36.9711 
 263   0.0000       1.362811        37.0840 
 264   0.0000       1.371217        37.3127 
 265   0.0000       1.381511        37.5928 
 266   0.0000       1.388542        37.7841 
 267   0.0000       1.390363        37.8337 
 268   0.0000       1.400484        38.1091 
 269   0.0000       1.404123        38.2081 
 270   0.0000       1.408168        38.3182 
 271   0.0000       1.421135        38.6710 
 272   0.0000       1.427698        38.8497 
 273   0.0000       1.437228        39.1090 
 274   0.0000       1.447875        39.3987 
 275   0.0000       1.453145        39.5421 
 276   0.0000       1.458256        39.6812 
 277   0.0000       1.474508        40.1234 
 278   0.0000       1.486606        40.4526 
 279   0.0000       1.489282        40.5254 
 280   0.0000       1.495272        40.6884 
 281   0.0000       1.499502        40.8035 
 282   0.0000       1.506087        40.9827 
 283   0.0000       1.509290        41.0699 
 284   0.0000       1.514881        41.2220 
 285   0.0000       1.522271        41.4231 
 286   0.0000       1.530794        41.6550 
 287   0.0000       1.535772        41.7905 
 288   0.0000       1.540038        41.9066 
 289   0.0000       1.546598        42.0851 
 290   0.0000       1.555911        42.3385 
 291   0.0000       1.562582        42.5200 
 292   0.0000       1.568967        42.6938 
 293   0.0000       1.573611        42.8201 
 294   0.0000       1.576397        42.8959 
 295   0.0000       1.584930        43.1281 
 296   0.0000       1.595297        43.4102 
 297   0.0000       1.601169        43.5700 
 298   0.0000       1.618392        44.0387 
 299   0.0000       1.626817        44.2679 
 300   0.0000       1.632842        44.4319 
 301   0.0000       1.639334        44.6085 
 302   0.0000       1.645295        44.7708 
 303   0.0000       1.650902        44.9233 
 304   0.0000       1.660506        45.1847 
 305   0.0000       1.661422        45.2096 
 306   0.0000       1.673795        45.5463 
 307   0.0000       1.682011        45.7699 
 308   0.0000       1.694939        46.1216 
 309   0.0000       1.699284        46.2399 
 310   0.0000       1.705910        46.4202 
 311   0.0000       1.710968        46.5578 
 312   0.0000       1.724785        46.9338 
 313   0.0000       1.731087        47.1053 
 314   0.0000       1.735612        47.2284 
 315   0.0000       1.758118        47.8408 
 316   0.0000       1.761434        47.9311 
 317   0.0000       1.770568        48.1796 
 318   0.0000       1.779582        48.4249 
 319   0.0000       1.795340        48.8537 
 320   0.0000       1.810151        49.2567 
 321   0.0000       1.813585        49.3502 
 322   0.0000       1.828153        49.7466 
 323   0.0000       1.832665        49.8693 
 324   0.0000       1.842760        50.1441 
 325   0.0000       1.860757        50.6338 
 326   0.0000       1.882486        51.2251 
 327   0.0000       1.893835        51.5339 
 328   0.0000       1.907702        51.9112 
 329   0.0000       1.916308        52.1454 
 330   0.0000       1.923580        52.3433 
 331   0.0000       1.925898        52.4064 
 332   0.0000       1.939874        52.7867 
 333   0.0000       1.947775        53.0016 
 334   0.0000       1.969940        53.6048 
 335   0.0000       1.980373        53.8887 
 336   0.0000       1.992388        54.2156 
 337   0.0000       2.015361        54.8408 
 338   0.0000       2.018230        54.9188 
 339   0.0000       2.021463        55.0068 
 340   0.0000       2.041150        55.5425 
 341   0.0000       2.044337        55.6292 
 342   0.0000       2.056149        55.9506 
 343   0.0000       2.065369        56.2015 
 344   0.0000       2.103326        57.2344 
 345   0.0000       2.110297        57.4241 
 346   0.0000       2.123005        57.7699 
 347   0.0000       2.130290        57.9681 
 348   0.0000       2.145499        58.3820 
 349   0.0000       2.156317        58.6764 
 350   0.0000       2.172895        59.1275 
 351   0.0000       2.201144        59.8962 
 352   0.0000       2.209384        60.1204 
 353   0.0000       2.222454        60.4760 
 354   0.0000       2.231079        60.7108 
 355   0.0000       2.268952        61.7413 
 356   0.0000       2.281793        62.0907 
 357   0.0000       2.290764        62.3348 
 358   0.0000       2.302737        62.6607 
 359   0.0000       2.313117        62.9431 
 360   0.0000       2.318315        63.0846 
 361   0.0000       2.336240        63.5723 
 362   0.0000       2.347930        63.8904 
 363   0.0000       2.353103        64.0312 
 364   0.0000       2.363705        64.3197 
 365   0.0000       2.373229        64.5788 
 366   0.0000       2.382784        64.8388 
 367   0.0000       2.392690        65.1084 
 368   0.0000       2.405101        65.4461 
 369   0.0000       2.418414        65.8084 
 370   0.0000       2.428624        66.0862 
 371   0.0000       2.450883        66.6919 
 372   0.0000       2.461125        66.9706 
 373   0.0000       2.468129        67.1612 
 374   0.0000       2.478946        67.4555 
 375   0.0000       2.491445        67.7957 
 376   0.0000       2.499429        68.0129 
 377   0.0000       2.516078        68.4660 
 378   0.0000       2.532694        68.9181 
 379   0.0000       2.544340        69.2350 
 380   0.0000       2.558069        69.6086 
 381   0.0000       2.575531        70.0838 
 382   0.0000       2.581027        70.2333 
 383   0.0000       2.592450        70.5441 
 384   0.0000       2.600550        70.7646 
 385   0.0000       2.612402        71.0871 
 386   0.0000       2.629745        71.5590 
 387   0.0000       2.642378        71.9028 
 388   0.0000       2.651868        72.1610 
 389   0.0000       2.653562        72.2071 
 390   0.0000       2.669197        72.6325 
 391   0.0000       2.679687        72.9180 
 392   0.0000       2.690123        73.2020 
 393   0.0000       2.711715        73.7895 
 394   0.0000       2.715545        73.8937 
 395   0.0000       2.725745        74.1713 
 396   0.0000       2.730547        74.3020 
 397   0.0000       2.739221        74.5380 
 398   0.0000       2.744231        74.6743 
 399   0.0000       2.749446        74.8162 
 400   0.0000       2.759007        75.0764 
 401   0.0000       2.775387        75.5221 
 402   0.0000       2.785452        75.7960 
 403   0.0000       2.799506        76.1784 
 404   0.0000       2.810045        76.4652 
 405   0.0000       2.825840        76.8950 
 406   0.0000       2.831931        77.0608 
 407   0.0000       2.835260        77.1513 
 408   0.0000       2.843144        77.3659 
 409   0.0000       2.847710        77.4901 
 410   0.0000       2.867200        78.0205 
 411   0.0000       2.875420        78.2442 
 412   0.0000       2.882039        78.4243 
 413   0.0000       2.895141        78.7808 
 414   0.0000       2.906059        79.0779 
 415   0.0000       2.908901        79.1552 
 416   0.0000       2.931655        79.7744 
 417   0.0000       2.935082        79.8676 
 418   0.0000       2.948419        80.2306 
 419   0.0000       2.951951        80.3267 
 420   0.0000       2.954701        80.4015 
 421   0.0000       2.969550        80.8056 
 422   0.0000       2.976767        81.0019 
 423   0.0000       2.990198        81.3674 
 424   0.0000       2.994697        81.4899 
 425   0.0000       3.009425        81.8906 
 426   0.0000       3.016279        82.0771 
 427   0.0000       3.023277        82.2675 
 428   0.0000       3.027980        82.3955 
 429   0.0000       3.034627        82.5764 
 430   0.0000       3.040266        82.7298 
 431   0.0000       3.043768        82.8251 
 432   0.0000       3.064911        83.4005 
 433   0.0000       3.065511        83.4168 
 434   0.0000       3.077619        83.7463 
 435   0.0000       3.080638        83.8284 
 436   0.0000       3.086743        83.9946 
 437   0.0000       3.090830        84.1058 
 438   0.0000       3.097364        84.2836 
 439   0.0000       3.102765        84.4305 
 440   0.0000       3.107717        84.5653 
 441   0.0000       3.109760        84.6209 
 442   0.0000       3.120541        84.9142 
 443   0.0000       3.127017        85.0905 
 444   0.0000       3.139054        85.4180 
 445   0.0000       3.148979        85.6881 
 446   0.0000       3.157493        85.9198 
 447   0.0000       3.162186        86.0475 
 448   0.0000       3.182986        86.6134 
 449   0.0000       3.186928        86.7207 
 450   0.0000       3.197996        87.0219 
 451   0.0000       3.200134        87.0801 
 452   0.0000       3.206180        87.2446 
 453   0.0000       3.214659        87.4753 
 454   0.0000       3.221867        87.6714 
 455   0.0000       3.223682        87.7209 
 456   0.0000       3.233515        87.9884 
 457   0.0000       3.245354        88.3106 
 458   0.0000       3.251530        88.4786 
 459   0.0000       3.260671        88.7274 
 460   0.0000       3.266916        88.8973 
 461   0.0000       3.269879        88.9779 
 462   0.0000       3.277319        89.1804 
 463   0.0000       3.281666        89.2987 
 464   0.0000       3.290113        89.5285 
 465   0.0000       3.302721        89.8716 
 466   0.0000       3.304508        89.9202 
 467   0.0000       3.311001        90.0969 
 468   0.0000       3.315768        90.2266 
 469   0.0000       3.323718        90.4430 
 470   0.0000       3.327274        90.5397 
 471   0.0000       3.334940        90.7483 
 472   0.0000       3.347437        91.0884 
 473   0.0000       3.353874        91.2635 
 474   0.0000       3.361673        91.4758 
 475   0.0000       3.364253        91.5460 
 476   0.0000       3.368632        91.6651 
 477   0.0000       3.374915        91.8361 
 478   0.0000       3.380118        91.9777 
 479   0.0000       3.386728        92.1576 
 480   0.0000       3.393007        92.3284 
 481   0.0000       3.397977        92.4637 
 482   0.0000       3.400863        92.5422 
 483   0.0000       3.405853        92.6780 
 484   0.0000       3.406940        92.7076 
 485   0.0000       3.411064        92.8198 
 486   0.0000       3.412001        92.8453 
 487   0.0000       3.421839        93.1130 
 488   0.0000       3.431813        93.3844 
 489   0.0000       3.440594        93.6233 
 490   0.0000       3.443512        93.7027 
 491   0.0000       3.448246        93.8315 
 492   0.0000       3.454633        94.0054 
 493   0.0000       3.462409        94.2169 
 494   0.0000       3.465727        94.3072 
 495   0.0000       3.468641        94.3865 
 496   0.0000       3.482086        94.7524 
 497   0.0000       3.484635        94.8217 
 498   0.0000       3.491237        95.0014 
 499   0.0000       3.504185        95.3537 
 500   0.0000       3.507493        95.4437 
 501   0.0000       3.511594        95.5553 
 502   0.0000       3.517864        95.7260 
 503   0.0000       3.530915        96.0811 
 504   0.0000       3.534866        96.1886 
 505   0.0000       3.542219        96.3887 
 506   0.0000       3.550340        96.6097 
 507   0.0000       3.561715        96.9192 
 508   0.0000       3.568494        97.1036 
 509   0.0000       3.575674        97.2990 
 510   0.0000       3.583656        97.5162 
 511   0.0000       3.587638        97.6246 
 512   0.0000       3.609334        98.2150 
 513   0.0000       3.615683        98.3877 
 514   0.0000       3.618932        98.4761 
 515   0.0000       3.628977        98.7495 
 516   0.0000       3.630548        98.7922 
 517   0.0000       3.635233        98.9197 
 518   0.0000       3.637967        98.9941 
 519   0.0000       3.639444        99.0343 
 520   0.0000       3.649685        99.3130 
 521   0.0000       3.659352        99.5760 
 522   0.0000       3.660071        99.5956 
 523   0.0000       3.667879        99.8081 
 524   0.0000       3.671224        99.8991 
 525   0.0000       3.678903       100.1081 
 526   0.0000       3.684223       100.2528 
 527   0.0000       3.689399       100.3937 
 528   0.0000       3.691677       100.4556 
 529   0.0000       3.701520       100.7235 
 530   0.0000       3.710882       100.9782 
 531   0.0000       3.719574       101.2148 
 532   0.0000       3.726304       101.3979 
 533   0.0000       3.733784       101.6014 
 534   0.0000       3.738296       101.7242 
 535   0.0000       3.747927       101.9863 
 536   0.0000       3.750094       102.0452 
 537   0.0000       3.756831       102.2286 
 538   0.0000       3.765791       102.4724 
 539   0.0000       3.770495       102.6004 
 540   0.0000       3.773614       102.6852 
 541   0.0000       3.775472       102.7358 
 542   0.0000       3.791746       103.1787 
 543   0.0000       3.794004       103.2401 
 544   0.0000       3.801032       103.4313 
 545   0.0000       3.802748       103.4780 
 546   0.0000       3.829107       104.1953 
 547   0.0000       3.830790       104.2411 
 548   0.0000       3.835729       104.3755 
 549   0.0000       3.844689       104.6193 
 550   0.0000       3.851815       104.8132 
 551   0.0000       3.860144       105.0399 
 552   0.0000       3.865075       105.1740 
 553   0.0000       3.876599       105.4876 
 554   0.0000       3.886062       105.7451 
 555   0.0000       3.893954       105.9599 
 556   0.0000       3.903859       106.2294 
 557   0.0000       3.914720       106.5250 
 558   0.0000       3.927845       106.8821 
 559   0.0000       3.937839       107.1540 
 560   0.0000       3.940673       107.2312 
 561   0.0000       3.946022       107.3767 
 562   0.0000       3.953218       107.5725 
 563   0.0000       3.964187       107.8710 
 564   0.0000       3.970519       108.0433 
 565   0.0000       3.974711       108.1574 
 566   0.0000       3.987435       108.5036 
 567   0.0000       3.997950       108.7898 
 568   0.0000       4.001168       108.8773 
 569   0.0000       4.018077       109.3374 
 570   0.0000       4.026224       109.5591 
 571   0.0000       4.039210       109.9125 
 572   0.0000       4.048741       110.1719 
 573   0.0000       4.055332       110.3512 
 574   0.0000       4.062837       110.5554 
 575   0.0000       4.065089       110.6167 
 576   0.0000       4.069704       110.7423 
 577   0.0000       4.082045       111.0781 
 578   0.0000       4.088478       111.2531 
 579   0.0000       4.096819       111.4801 
 580   0.0000       4.107700       111.7762 
 581   0.0000       4.117847       112.0523 
 582   0.0000       4.122409       112.1764 
 583   0.0000       4.132264       112.4446 
 584   0.0000       4.134147       112.4959 
 585   0.0000       4.139490       112.6413 
 586   0.0000       4.146161       112.8228 
 587   0.0000       4.152250       112.9885 
 588   0.0000       4.157334       113.1268 
 589   0.0000       4.161700       113.2456 
 590   0.0000       4.173349       113.5626 
 591   0.0000       4.178514       113.7032 
 592   0.0000       4.182992       113.8250 
 593   0.0000       4.194933       114.1499 
 594   0.0000       4.196386       114.1895 
 595   0.0000       4.204784       114.4180 
 596   0.0000       4.222132       114.8900 
 597   0.0000       4.227743       115.0427 
 598   0.0000       4.232651       115.1763 
 599   0.0000       4.239546       115.3639 
 600   0.0000       4.247100       115.5695 
 601   0.0000       4.255152       115.7886 
 602   0.0000       4.261860       115.9711 
 603   0.0000       4.266624       116.1007 
 604   0.0000       4.278235       116.4167 
 605   0.0000       4.285027       116.6015 
 606   0.0000       4.305706       117.1642 
 607   0.0000       4.309972       117.2803 
 608   0.0000       4.317785       117.4929 
 609   0.0000       4.325312       117.6977 
 610   0.0000       4.338304       118.0513 
 611   0.0000       4.346312       118.2692 
 612   0.0000       4.348167       118.3196 
 613   0.0000       4.355796       118.5272 
 614   0.0000       4.363777       118.7444 
 615   0.0000       4.372714       118.9876 
 616   0.0000       4.379662       119.1767 
 617   0.0000       4.380800       119.2076 
 618   0.0000       4.389114       119.4339 
 619   0.0000       4.390987       119.4848 
 620   0.0000       4.401787       119.7787 
 621   0.0000       4.405569       119.8816 
 622   0.0000       4.418010       120.2202 
 623   0.0000       4.436823       120.7321 
 624   0.0000       4.443295       120.9082 
 625   0.0000       4.452337       121.1542 
 626   0.0000       4.456320       121.2626 
 627   0.0000       4.470858       121.6582 
 628   0.0000       4.475264       121.7781 
 629   0.0000       4.486768       122.0912 
 630   0.0000       4.492232       122.2399 
 631   0.0000       4.501876       122.5023 
 632   0.0000       4.509037       122.6971 
 633   0.0000       4.518674       122.9594 
 634   0.0000       4.531591       123.3109 
 635   0.0000       4.534626       123.3934 
 636   0.0000       4.544868       123.6722 
 637   0.0000       4.557117       124.0055 
 638   0.0000       4.559453       124.0690 
 639   0.0000       4.575525       124.5064 
 640   0.0000       4.585417       124.7755 
 641   0.0000       4.588144       124.8497 
 642   0.0000       4.596645       125.0811 
 643   0.0000       4.605120       125.3117 
 644   0.0000       4.617748       125.6553 
 645   0.0000       4.628495       125.9477 
 646   0.0000       4.635796       126.1464 
 647   0.0000       4.640692       126.2796 
 648   0.0000       4.646606       126.4406 
 649   0.0000       4.655851       126.6921 
 650   0.0000       4.666523       126.9826 
 651   0.0000       4.669916       127.0749 
 652   0.0000       4.681514       127.3905 
 653   0.0000       4.684964       127.4844 
 654   0.0000       4.692379       127.6861 
 655   0.0000       4.696163       127.7891 
 656   0.0000       4.708960       128.1373 
 657   0.0000       4.712264       128.2272 
 658   0.0000       4.728245       128.6621 
 659   0.0000       4.730575       128.7255 
 660   0.0000       4.748600       129.2160 
 661   0.0000       4.751537       129.2959 
 662   0.0000       4.763324       129.6166 
 663   0.0000       4.780401       130.0813 
 664   0.0000       4.809168       130.8641 
 665   0.0000       4.836457       131.6067 
 666   0.0000       4.842879       131.7814 
 667   0.0000       4.853164       132.0613 
 668   0.0000       4.887890       133.0062 
 669   0.0000       4.896919       133.2519 
 670   0.0000       4.906063       133.5008 
 671   0.0000       4.918002       133.8256 
 672   0.0000       4.925995       134.0431 
 673   0.0000       4.944616       134.5498 
 674   0.0000       4.949443       134.6812 
 675   0.0000       4.990808       135.8068 
 676   0.0000       5.007495       136.2609 
 677   0.0000       5.018906       136.5714 
 678   0.0000       5.026200       136.7698 
 679   0.0000       5.042246       137.2065 
 680   0.0000       5.052182       137.4769 
 681   0.0000       5.074493       138.0840 
 682   0.0000       5.075769       138.1187 
 683   0.0000       5.083857       138.3388 
 684   0.0000       5.092726       138.5801 
 685   0.0000       5.105042       138.9152 
 686   0.0000       5.124735       139.4511 
 687   0.0000       5.141353       139.9033 
 688   0.0000       5.146030       140.0306 
 689   0.0000       5.158373       140.3665 
 690   0.0000       5.163048       140.4937 
 691   0.0000       5.174361       140.8015 
 692   0.0000       5.178192       140.9058 
 693   0.0000       5.189178       141.2047 
 694   0.0000       5.200781       141.5204 
 695   0.0000       5.211803       141.8204 
 696   0.0000       5.223227       142.1312 
 697   0.0000       5.227658       142.2518 
 698   0.0000       5.235956       142.4776 
 699   0.0000       5.243142       142.6732 
 700   0.0000       5.260738       143.1520 
 701   0.0000       5.271016       143.4316 
 702   0.0000       5.295380       144.0946 
 703   0.0000       5.302642       144.2922 
 704   0.0000       5.317077       144.6850 
 705   0.0000       5.328051       144.9836 
 706   0.0000       5.339837       145.3044 
 707   0.0000       5.351774       145.6292 
 708   0.0000       5.361212       145.8860 
 709   0.0000       5.374464       146.2466 
 710   0.0000       5.397706       146.8790 
 711   0.0000       5.416590       147.3929 
 712   0.0000       5.423218       147.5733 
 713   0.0000       5.460957       148.6002 
 714   0.0000       5.469242       148.8256 
 715   0.0000       5.488093       149.3386 
 716   0.0000       5.499961       149.6615 
 717   0.0000       5.502860       149.7404 
 718   0.0000       5.517506       150.1390 
 719   0.0000       5.518794       150.1740 
 720   0.0000       5.526848       150.3932 
 721   0.0000       5.545923       150.9122 
 722   0.0000       5.555052       151.1607 
 723   0.0000       5.566511       151.4725 
 724   0.0000       5.588555       152.0723 
 725   0.0000       5.608559       152.6166 
 726   0.0000       5.622093       152.9849 
 727   0.0000       5.631227       153.2335 
 728   0.0000       5.641980       153.5261 
 729   0.0000       5.644640       153.5985 
 730   0.0000       5.649497       153.7306 
 731   0.0000       5.658698       153.9810 
 732   0.0000       5.665994       154.1795 
 733   0.0000       5.673242       154.3768 
 734   0.0000       5.695042       154.9700 
 735   0.0000       5.708465       155.3352 
 736   0.0000       5.714272       155.4932 
 737   0.0000       5.731533       155.9629 
 738   0.0000       5.738797       156.1606 
 739   0.0000       5.757302       156.6641 
 740   0.0000       5.765208       156.8793 
 741   0.0000       5.777051       157.2016 
 742   0.0000       5.783912       157.3883 
 743   0.0000       5.800168       157.8306 
 744   0.0000       5.826028       158.5343 
 745   0.0000       5.831170       158.6742 
 746   0.0000       5.848472       159.1450 
 747   0.0000       5.861502       159.4996 
 748   0.0000       5.902342       160.6109 
 749   0.0000       5.925205       161.2330 
 750   0.0000       5.927709       161.3012 
 751   0.0000       5.966236       162.3495 
 752   0.0000       5.977896       162.6668 
 753   0.0000       5.993318       163.0865 
 754   0.0000       6.005925       163.4295 
 755   0.0000       6.038602       164.3187 
 756   0.0000       6.051888       164.6802 
 757   0.0000       6.071935       165.2257 
 758   0.0000       6.074762       165.3027 
 759   0.0000       6.086688       165.6272 
 760   0.0000       6.097902       165.9323 
 761   0.0000       6.164152       167.7351 
 762   0.0000       6.219050       169.2289 
 763   0.0000       6.223684       169.3551 
 764   0.0000       6.224769       169.3846 
 765   0.0000       6.255705       170.2264 
 766   0.0000       6.270480       170.6284 
 767   0.0000       6.317130       171.8978 
 768   0.0000       6.333855       172.3530 
 769   0.0000       6.349866       172.7886 
 770   0.0000       6.370478       173.3495 
 771   0.0000       6.379690       173.6002 
 772   0.0000       6.401886       174.2042 
 773   0.0000       6.409923       174.4229 
 774   0.0000       6.456484       175.6898 
 775   0.0000       6.472116       176.1152 
 776   0.0000       6.508241       177.0982 
 777   0.0000       6.557965       178.4513 
 778   0.0000       6.590381       179.3334 
 779   0.0000       6.647280       180.8817 
 780   0.0000       6.671772       181.5482 
 781   0.0000       6.686873       181.9591 
 782   0.0000       6.733503       183.2279 
 783   0.0000       6.767736       184.1595 
 784   0.0000       6.853925       186.5048 
 785   0.0000       6.864771       186.7999 
 786   0.0000       6.913457       188.1247 
 787   0.0000       6.923757       188.4050 
 788   0.0000       6.961667       189.4366 
 789   0.0000       7.008378       190.7077 
 790   0.0000       7.046526       191.7457 
 791   0.0000       7.059645       192.1027 
 792   0.0000       7.083422       192.7497 
 793   0.0000       7.115509       193.6229 
 794   0.0000       7.245347       197.1559 
 795   0.0000       7.260229       197.5609 
 796   0.0000       7.282978       198.1799 
 797   0.0000       7.296276       198.5418 
 798   0.0000       7.341241       199.7653 
 799   0.0000       7.372833       200.6250 
 800   0.0000       7.399787       201.3584 
 801   0.0000       7.569524       205.9772 
 802   0.0000       7.581094       206.2921 
 803   0.0000       7.610824       207.1010 
 804   0.0000       7.714689       209.9274 
 805   0.0000       7.798150       212.1985 
 806   0.0000       7.817823       212.7338 
 807   0.0000       7.854176       213.7230 
 808   0.0000       7.934621       215.9120 
 809   0.0000       9.348171       254.3767 
 810   0.0000       9.535342       259.4698 
 811   0.0000      10.756825       292.7081 
 812   0.0000      11.195987       304.6583 
 813   0.0000      12.000025       326.5373 
 814   0.0000      12.563718       341.8761 
 815   0.0000      12.929726       351.8357 
 816   0.0000      13.053765       355.2110 
 817   0.0000      13.145176       357.6984 
 818   0.0000      13.235036       360.1436 
 819   0.0000      13.389601       364.3496 
 820   0.0000      13.488626       367.0442 
 821   0.0000      13.837110       376.5269 
 822   0.0000      13.925207       378.9242 
 823   0.0000      13.939350       379.3090 
 824   0.0000      14.022239       381.5645 
 825   0.0000      14.528931       395.3523 
 826   0.0000      14.592274       397.0760 
 827   0.0000      15.948161       433.9715 

                    ********************************
                    * MULLIKEN POPULATION ANALYSIS *
                    ********************************

-----------------------
MULLIKEN ATOMIC CHARGES
-----------------------
   0 C :   -0.256739
   1 C :    0.030074
   2 O :   -0.366859
   3 C :    0.451745
   4 O :   -0.382993
   5 C :   -0.226588
   6 C :    0.159816
   7 C :   -0.289244
   8 N :   -0.128737
   9 C :    0.205971
  10 S :   -0.439578
  11 N :   -0.212369
  12 C :    0.050335
  13 C :    0.029110
  14 C :   -0.181972
  15 C :   -0.132683
  16 C :   -0.278013
  17 C :    0.313742
  18 O :   -0.358484
  19 C :   -0.253577
  20 H :    0.108626
  21 H :    0.093127
  22 H :    0.088179
  23 H :    0.091899
  24 H :    0.104206
  25 H :    0.133625
  26 H :    0.108140
  27 H :    0.120109
  28 H :    0.198456
  29 H :    0.199988
  30 H :    0.157685
  31 H :    0.165145
  32 H :    0.161953
  33 H :    0.129709
  34 H :    0.240569
  35 H :    0.165628
Sum of atomic charges:   -0.0000000

--------------------------------
MULLIKEN REDUCED ORBITAL CHARGES
--------------------------------
  0 C s       :     3.258659  s :     3.258659
      pz      :     0.950923  p :     2.922025
      px      :     0.985033
      py      :     0.986069
      dz2     :     0.014157  d :     0.071597
      dxz     :     0.012730
      dyz     :     0.021456
      dx2y2   :     0.009599
      dxy     :     0.013654
      f0      :     0.000272  f :     0.004458
      f+1     :     0.000431
      f-1     :     0.001060
      f+2     :     0.000649
      f-2     :     0.001096
      f+3     :     0.000469
      f-3     :     0.000481
  1 C s       :     3.162591  s :     3.162591
      pz      :     0.971471  p :     2.633882
      px      :     0.706031
      py      :     0.956380
      dz2     :     0.027524  d :     0.161458
      dxz     :     0.031989
      dyz     :     0.029498
      dx2y2   :     0.030980
      dxy     :     0.041466
      f0      :     0.000904  f :     0.011996
      f+1     :     0.001756
      f-1     :     0.001361
      f+2     :     0.001831
      f-2     :     0.001860
      f+3     :     0.002331
      f-3     :     0.001952
  2 O s       :     3.727947  s :     3.727947
      pz      :     1.551294  p :     4.602699
      px      :     1.230220
      py      :     1.821184
      dz2     :     0.005297  d :     0.033928
      dxz     :     0.015934
      dyz     :     0.003602
      dx2y2   :     0.004157
      dxy     :     0.004938
      f0      :     0.000106  f :     0.002285
      f+1     :     0.000413
      f-1     :     0.000061
      f+2     :     0.000562
      f-2     :     0.000268
      f+3     :     0.000439
      f-3     :     0.000436
  3 C s       :     3.043738  s :     3.043738
      pz      :     0.683608  p :     2.190701
      px      :     0.697260
      py      :     0.809833
      dz2     :     0.037590  d :     0.287325
      dxz     :     0.056818
      dyz     :     0.055655
      dx2y2   :     0.076985
      dxy     :     0.060277
      f0      :     0.002707  f :     0.026491
      f+1     :     0.003201
      f-1     :     0.002487
      f+2     :     0.002885
      f-2     :     0.005778
      f+3     :     0.003386
      f-3     :     0.006046
  4 O s       :     3.768963  s :     3.768963
      pz      :     1.608261  p :     4.575877
      px      :     1.502552
      py      :     1.465064
      dz2     :     0.003935  d :     0.035707
      dxz     :     0.003006
      dyz     :     0.007476
      dx2y2   :     0.009620
      dxy     :     0.011669
      f0      :     0.000267  f :     0.002447
      f+1     :     0.000167
      f-1     :     0.000279
      f+2     :     0.000099
      f-2     :     0.000383
      f+3     :     0.000631
      f-3     :     0.000621
  5 C s       :     3.191129  s :     3.191129
      pz      :     0.940679  p :     2.940754
      px      :     1.118499
      py      :     0.881576
      dz2     :     0.016701  d :     0.084429
      dxz     :     0.014426
      dyz     :     0.026868
      dx2y2   :     0.009782
      dxy     :     0.016653
      f0      :     0.000960  f :     0.010276
      f+1     :     0.001221
      f-1     :     0.001671
      f+2     :     0.002348
      f-2     :     0.000976
      f+3     :     0.001594
      f-3     :     0.001506
  6 C s       :     3.180766  s :     3.180766
      pz      :     0.861505  p :     2.466665
      px      :     0.826119
      py      :     0.779041
      dz2     :     0.033706  d :     0.178400
      dxz     :     0.019001
      dyz     :     0.050055
      dx2y2   :     0.022187
      dxy     :     0.053451
      f0      :     0.001573  f :     0.014353
      f+1     :     0.001070
      f-1     :     0.003159
      f+2     :     0.002663
      f-2     :     0.002029
      f+3     :     0.002298
      f-3     :     0.001561
  7 C s       :     3.281861  s :     3.281861
      pz      :     0.894606  p :     2.932478
      px      :     1.010016
      py      :     1.027856
      dz2     :     0.019704  d :     0.070240
      dxz     :     0.014446
      dyz     :     0.010114
      dx2y2   :     0.020026
      dxy     :     0.005949
      f0      :     0.000763  f :     0.004666
      f+1     :     0.001341
      f-1     :     0.000757
      f+2     :     0.000342
      f-2     :     0.000410
      f+3     :     0.000251
      f-3     :     0.000802
  8 N s       :     3.347188  s :     3.347188
      pz      :     1.219019  p :     3.717163
      px      :     1.437561
      py      :     1.060582
      dz2     :     0.012779  d :     0.059430
      dxz     :     0.008805
      dyz     :     0.016450
      dx2y2   :     0.010948
      dxy     :     0.010448
      f0      :     0.000610  f :     0.004957
      f+1     :     0.001004
      f-1     :     0.000601
      f+2     :     0.000981
      f-2     :     0.000861
      f+3     :     0.000413
      f-3     :     0.000488
  9 C s       :     3.160847  s :     3.160847
      pz      :     0.750578  p :     2.353636
      px      :     0.709238
      py      :     0.893820
      dz2     :     0.061587  d :     0.261979
      dxz     :     0.030567
      dyz     :     0.058106
      dx2y2   :     0.050103
      dxy     :     0.061616
      f0      :     0.002771  f :     0.017567
      f+1     :     0.002129
      f-1     :     0.002807
      f+2     :     0.003168
      f-2     :     0.001912
      f+3     :     0.002445
      f-3     :     0.002336
 10 S s       :     5.854994  s :     5.854994
      pz      :     3.620668  p :    10.489587
      px      :     3.651416
      py      :     3.217504
      dz2     :     0.008773  d :     0.084866
      dxz     :     0.003679
      dyz     :     0.031900
      dx2y2   :     0.020033
      dxy     :     0.020480
      f0      :     0.001298  f :     0.010131
      f+1     :     0.000147
      f-1     :     0.001373
      f+2     :     0.002620
      f-2     :     0.001330
      f+3     :     0.002031
      f-3     :     0.001331
 11 N s       :     3.381623  s :     3.381623
      pz      :     1.307175  p :     3.768174
      px      :     1.443409
      py      :     1.017590
      dz2     :     0.009245  d :     0.058149
      dxz     :     0.006945
      dyz     :     0.014279
      dx2y2   :     0.012384
      dxy     :     0.015296
      f0      :     0.000369  f :     0.004423
      f+1     :     0.000563
      f-1     :     0.000553
      f+2     :     0.000695
      f-2     :     0.000694
      f+3     :     0.000817
      f-3     :     0.000733
 12 C s       :     3.114665  s :     3.114665
      pz      :     0.860430  p :     2.638520
      px      :     0.987756
      py      :     0.790334
      dz2     :     0.038138  d :     0.185088
      dxz     :     0.030029
      dyz     :     0.037564
      dx2y2   :     0.036225
      dxy     :     0.043133
      f0      :     0.001264  f :     0.011392
      f+1     :     0.001437
      f-1     :     0.001813
      f+2     :     0.002168
      f-2     :     0.001718
      f+3     :     0.001532
      f-3     :     0.001460
 13 C s       :     3.100493  s :     3.100493
      pz      :     0.902029  p :     2.750049
      px      :     0.908015
      py      :     0.940005
      dz2     :     0.020095  d :     0.109128
      dxz     :     0.012001
      dyz     :     0.029237
      dx2y2   :     0.023012
      dxy     :     0.024783
      f0      :     0.001024  f :     0.011219
      f+1     :     0.001572
      f-1     :     0.001420
[...]
      f-1     :     0.005344
      f+2     :     0.007501
      f-2     :     0.005081
      f+3     :     0.005918
      f-3     :     0.007733
 15 C s       :     2.705850  s :     2.705850
      pz      :     0.917243  p :     2.796396
      px      :     0.921391
      py      :     0.957762
      dz2     :     0.100175  d :     0.415075
      dxz     :     0.073055
      dyz     :     0.066419
      dx2y2   :     0.095676
      dxy     :     0.079750
      f0      :     0.003965  f :     0.040960
      f+1     :     0.005963
      f-1     :     0.006105
      f+2     :     0.007658
      f-2     :     0.005960
      f+3     :     0.006267
      f-3     :     0.005043
 16 C s       :     2.702101  s :     2.702101
      pz      :     0.941448  p :     2.867817
      px      :     0.956689
      py      :     0.969680
      dz2     :     0.051056  d :     0.390852
      dxz     :     0.059357
      dyz     :     0.091150
      dx2y2   :     0.090985
      dxy     :     0.098303
      f0      :     0.004075  f :     0.040288
      f+1     :     0.005289
      f-1     :     0.004665
      f+2     :     0.006032
      f-2     :     0.005216
      f+3     :     0.008095
      f-3     :     0.006917
 17 C s       :     2.701691  s :     2.701691
      pz      :     0.867230  p :     2.684684
      px      :     0.818341
      py      :     0.999113
      dz2     :     0.135422  d :     0.707532
      dxz     :     0.111854
      dyz     :     0.144735
      dx2y2   :     0.158044
      dxy     :     0.157478
      f0      :     0.010419  f :     0.099178
      f+1     :     0.016191
      f-1     :     0.010257
      f+2     :     0.016850
      f-2     :     0.014449
      f+3     :     0.015682
      f-3     :     0.015330
 18 O s       :     3.177387  s :     3.177387
      pz      :     1.393631  p :     4.348703
      px      :     1.441366
      py      :     1.513706
      dz2     :     0.009315  d :     0.075584
      dxz     :     0.017053
      dyz     :     0.020436
      dx2y2   :     0.014410
      dxy     :     0.014371
      f0      :     0.000616  f :     0.005075
      f+1     :     0.000696
      f-1     :     0.000524
      f+2     :     0.000746
      f-2     :     0.001047
      f+3     :     0.000636
      f-3     :     0.000809
 19 C s       :     2.695670  s :     2.695670
      pz      :     0.941439  p :     2.846973
      px      :     0.945169
      py      :     0.960365
      dz2     :     0.084279  d :     0.388585
      dxz     :     0.071003
      dyz     :     0.067352
      dx2y2   :     0.084017
      dxy     :     0.081935
      f0      :     0.003887  f :     0.040809
      f+1     :     0.006261
      f-1     :     0.005850
      f+2     :     0.007565
      f-2     :     0.006427
      f+3     :     0.006137
      f-3     :     0.004684
 20 H s       :     0.843765  s :     0.843765
      pz      :     0.040402  p :     0.149426
      px      :     0.049280
      py      :     0.059744
      dz2     :     0.002721  d :     0.027478
      dxz     :     0.003380
      dyz     :     0.006354
      dx2y2   :     0.008504
      dxy     :     0.006520
 21 H s       :     0.849679  s :     0.849679
      pz      :     0.062947  p :     0.150786
      px      :     0.039502
      py      :     0.048337
      dz2     :     0.008499  d :     0.027478
      dxz     :     0.006351
      dyz     :     0.007007
      dx2y2   :     0.002281
      dxy     :     0.003339
 22 H s       :     0.847645  s :     0.847645
      pz      :     0.041139  p :     0.150937
      px      :     0.065997
      py      :     0.043802
      dz2     :     0.003347  d :     0.027389
      dxz     :     0.006867
      dyz     :     0.002331
      dx2y2   :     0.006971
      dxy     :     0.007873
 23 H s       :     0.864665  s :     0.864665
      pz      :     0.042120  p :     0.145849
      px      :     0.043336
      py      :     0.060393
      dz2     :     0.003002  d :     0.026811
      dxz     :     0.003311
      dyz     :     0.006961
      dx2y2   :     0.006189
      dxy     :     0.007347
 24 H s       :     0.852049  s :     0.852049
      pz      :     0.067016  p :     0.145515
      px      :     0.025435
      py      :     0.053064
      dz2     :     0.009035  d :     0.027014
      dxz     :     0.004491
      dyz     :     0.007967
      dx2y2   :     0.002847
      dxy     :     0.002674
 25 H s       :     0.827707  s :     0.827707
      pz      :     0.056236  p :     0.150925
      px      :     0.046631
      py      :     0.048058
      dz2     :     0.007830  d :     0.027725
      dxz     :     0.005935
      dyz     :     0.005682
      dx2y2   :     0.005135
      dxy     :     0.003144
 26 H s       :     0.841666  s :     0.841666
      pz      :     0.037300  p :     0.149933
      px      :     0.040662
      py      :     0.071971
      dz2     :     0.002825  d :     0.027719
      dxz     :     0.000393
      dyz     :     0.008893
      dx2y2   :     0.006636
      dxy     :     0.008972
 27 H s       :     0.832727  s :     0.832727
      pz      :     0.037734  p :     0.151719
      px      :     0.071327
      py      :     0.042658
      dz2     :     0.002426  d :     0.027794
      dxz     :     0.008411
      dyz     :     0.000449
      dx2y2   :     0.008205
      dxy     :     0.008304
 28 H s       :     0.742502  s :     0.742502
      pz      :     0.064666  p :     0.253892
      px      :     0.081857
      py      :     0.107368
      dz2     :     0.008226  d :     0.061830
      dxz     :     0.003140
      dyz     :     0.017104
      dx2y2   :     0.014452
      dxy     :     0.018907
 29 H s       :     0.747966  s :     0.747966
      pz      :     0.114034  p :     0.253992
      px      :     0.097701
      py      :     0.042257
      dz2     :     0.022070  d :     0.061320
      dxz     :     0.016233
      dyz     :     0.010479
      dx2y2   :     0.007434
      dxy     :     0.005103
 30 H s       :     0.824521  s :     0.824521
      pz      :     0.040921  p :     0.153327
      px      :     0.069440
      py      :     0.042966
      dz2     :     0.003218  d :     0.029159
      dxz     :     0.008094
      dyz     :     0.002467
      dx2y2   :     0.008271
      dxy     :     0.007109
 31 H s       :     0.839329  s :     0.839329
      pz      :     0.053897  p :     0.156080
      px      :     0.063704
      py      :     0.038479
      dz2     :     0.005446  d :     0.027434
      dxz     :     0.006727
      dyz     :     0.003851
      dx2y2   :     0.005634
      dxy     :     0.005775
 32 H s       :     0.842512  s :     0.842512
      pz      :     0.036841  p :     0.151172
      px      :     0.040630
      py      :     0.073701
      dz2     :     0.002796  d :     0.026457
      dxz     :     0.001025
      dyz     :     0.007194
      dx2y2   :     0.007645
      dxy     :     0.007796
 33 H s       :     0.848890  s :     0.848890
      pz      :     0.061553  p :     0.159020
      px      :     0.047360
      py      :     0.050108
      dz2     :     0.007002  d :     0.027751
      dxz     :     0.005326
      dyz     :     0.006423
      dx2y2   :     0.004655
      dxy     :     0.004345
 34 H s       :     0.706741  s :     0.706741
      pz      :     0.119881  p :     0.347861
      px      :     0.086113
      py      :     0.141866
      dz2     :     0.026203  d :     0.099556
      dxz     :     0.014337
      dyz     :     0.024313
      dx2y2   :     0.017225
      dxy     :     0.017478
 35 H s       :     0.839121  s :     0.839121
      pz      :     0.039270  p :     0.156857
      px      :     0.042492
      py      :     0.075095
      dz2     :     0.002799  d :     0.027917
      dxz     :     0.001207
      dyz     :     0.007708
      dx2y2   :     0.008001
      dxy     :     0.008203


                      *****************************
                      * MAYER POPULATION ANALYSIS *
                      *****************************

  NA   - Mulliken gross atomic population
  ZA   - Total nuclear charge
  QA   - Mulliken gross atomic charge
  VA   - Mayer's total valence
  BVA  - Mayer's bonded valence
  FA   - Mayer's free valence

  ATOM       NA         ZA         QA         VA         BVA        FA
  0 C      6.2567     6.0000    -0.2567     3.9046     3.9046    -0.0000
  1 C      5.9699     6.0000     0.0301     3.8731     3.8731    -0.0000
  2 O      8.3669     8.0000    -0.3669     1.9777     1.9777    -0.0000
  3 C      5.5483     6.0000     0.4517     4.2435     4.2435    -0.0000
  4 O      8.3830     8.0000    -0.3830     2.1228     2.1228     0.0000
  5 C      6.2266     6.0000    -0.2266     3.6033     3.6033    -0.0000
  6 C      5.8402     6.0000     0.1598     3.8493     3.8493     0.0000
  7 C      6.2892     6.0000    -0.2892     3.8949     3.8949     0.0000
  8 N      7.1287     7.0000    -0.1287     3.2930     3.2930    -0.0000
  9 C      5.7940     6.0000     0.2060     4.1557     4.1557    -0.0000
 10 S     16.4396    16.0000    -0.4396     1.7574     1.7574    -0.0000
 11 N      7.2124     7.0000    -0.2124     3.2519     3.2519     0.0000
 12 C      5.9497     6.0000     0.0503     3.9322     3.9322    -0.0000
 13 C      5.9709     6.0000     0.0291     3.7654     3.7654    -0.0000
 14 C      6.1820     6.0000    -0.1820     3.8670     3.8670    -0.0000
 15 C      6.1327     6.0000    -0.1327     3.8030     3.8030    -0.0000
 16 C      6.2780     6.0000    -0.2780     3.7956     3.7956    -0.0000
 17 C      5.6863     6.0000     0.3137     3.8596     3.8596     0.0000
 18 O      8.3585     8.0000    -0.3585     2.1154     2.1154    -0.0000
 19 C      6.2536     6.0000    -0.2536     3.8438     3.8438    -0.0000
 20 H      0.8914     1.0000     0.1086     0.9858     0.9858    -0.0000
 21 H      0.9069     1.0000     0.0931     0.9842     0.9842     0.0000
 22 H      0.9118     1.0000     0.0882     0.9827     0.9827    -0.0000
 23 H      0.9081     1.0000     0.0919     0.9695     0.9695    -0.0000
 24 H      0.8958     1.0000     0.1042     0.9798     0.9798    -0.0000
 25 H      0.8664     1.0000     0.1336     0.9789     0.9789     0.0000
 26 H      0.8919     1.0000     0.1081     0.9864     0.9864    -0.0000
 27 H      0.8799     1.0000     0.1201     0.9748     0.9748    -0.0000
 28 H      0.8015     1.0000     0.1985     1.0219     1.0219     0.0000
 29 H      0.8000     1.0000     0.2000     1.0144     1.0144    -0.0000
 30 H      0.8423     1.0000     0.1577     0.9917     0.9917    -0.0000
 31 H      0.8349     1.0000     0.1651     0.9885     0.9885     0.0000
 32 H      0.8380     1.0000     0.1620     0.9766     0.9766    -0.0000
 33 H      0.8703     1.0000     0.1297     0.9918     0.9918    -0.0000
 34 H      0.7594     1.0000     0.2406     1.0106     1.0106    -0.0000
 35 H      0.8344     1.0000     0.1656     0.9896     0.9896     0.0000

  Mayer bond orders larger than 0.100000
B(  0-C ,  1-C ) :   0.9818 B(  0-C , 20-H ) :   0.9767 B(  0-C , 21-H ) :   0.9788 
B(  0-C , 22-H ) :   0.9756 B(  1-C ,  2-O ) :   0.8892 B(  1-C , 23-H ) :   0.9743 
B(  1-C , 24-H ) :   0.9719 B(  2-O ,  3-C ) :   1.0915 B(  3-C ,  4-O ) :   2.0658 
B(  3-C ,  5-C ) :   1.0024 B(  5-C ,  6-C ) :   1.6665 B(  5-C , 12-C ) :   0.9502 
B(  6-C ,  7-C ) :   0.9490 B(  6-C ,  8-N ) :   1.1370 B(  7-C , 25-H ) :   0.9652 
B(  7-C , 26-H ) :   0.9887 B(  7-C , 27-H ) :   0.9677 B(  8-N ,  9-C ) :   1.1840 
B(  8-N , 28-H ) :   0.9473 B(  9-C , 10-S ) :   1.6125 B(  9-C , 11-N ) :   1.3027 
B( 11-N , 12-C ) :   0.9808 B( 11-N , 29-H ) :   0.9486 B( 12-C , 13-C ) :   0.9722 
B( 12-C , 30-H ) :   0.9940 B( 13-C , 14-C ) :   1.3802 B( 13-C , 19-C ) :   1.3618 
B( 14-C , 15-C ) :   1.3961 B( 14-C , 31-H ) :   0.9615 B( 15-C , 16-C ) :   1.3598 
B( 15-C , 32-H ) :   0.9706 B( 16-C , 17-C ) :   1.3322 B( 16-C , 33-H ) :   0.9855 
B( 17-C , 18-O ) :   1.1051 B( 17-C , 19-C ) :   1.3675 B( 18-O , 34-H ) :   0.9801 
B( 19-C , 35-H ) :   0.9596 

-------
TIMINGS
-------

Total SCF time: 0 days 1 hours 26 min 34 sec 

Total time                  ....    5194.280 sec
Sum of individual times     ....    5187.000 sec  ( 99.9%)

Fock matrix formation       ....    5165.889 sec  ( 99.5%)
Diagonalization             ....       4.421 sec  (  0.1%)
Density matrix formation    ....       0.189 sec  (  0.0%)
Population analysis         ....       0.688 sec  (  0.0%)
Initial guess               ....       4.694 sec  (  0.1%)
Orbital Transformation      ....       0.000 sec  (  0.0%)
Orbital Orthonormalization  ....       0.000 sec  (  0.0%)
DIIS solution               ....       4.290 sec  (  0.1%)
SOSCF solution              ....       5.747 sec  (  0.1%)

------------------------------------------------------------------------------
                                ORCA  MP2 
------------------------------------------------------------------------------

Freezing NCore=48 chemical core electrons

-------------
RI-MP2 ENERGY
-------------
Dimension of the basis                    ...  828
Memory devoted to MP2                     ...  256 MB   
Data format for buffers                   ... DOUBLE
Compression type for matrix containers    ... UNCOMPRESSED
Overall scaling of the MP2 energy         ...   1.000e+00
Calculating two index integrals           ... done (    0.032 sec)
Cholesky decomposition of V**-1           ... done (    1.570 sec)

-----------------
RI-TRANSFORMATION (AUX index driven)
-----------------

Dimension of the orbital-basis         ... 828
Dimension of the aux-basis             ... 2141
Transformation of internal/external MOs...   24-  76 to   77- 827
Number Format for Storage              ... Double (8 Byte)
Integral mode                          ... Direct

First Phase: integral generation and transformation of MO indices
  Aux angular momentum 0               ... done (    7.971 sec)
  Aux angular momentum 1               ... done (   15.176 sec)
  Aux angular momentum 2               ... done (   19.696 sec)
  Aux angular momentum 3               ... done (   15.589 sec)
  Aux angular momentum 4               ... done (    5.362 sec)
Closing buffer VIA ( 0.63 GB; CompressionRatio= 1.00)
  Phase 1 completed in    63.940 sec
Second Phase: sorting and transformation of aux index

IA-Transformation
Memory available                       ... 167 MB 
Max. # MO pairs treated in a batch     ... 12    
# of internal orbitals                 ... 53
# batches for internal orbitals        ... 5
Closing buffer IAV ( 0.63 GB; CompressionRatio= 1.00)
(ia|v) transformation done in    66.423 sec

  Phase 2 completed in    66.439 sec
RI-Integral transformation completed in   130.403 sec
Opening buffers                              ... done

Starting loop over batches of integrals:

Operator 0  - window                       ... ( 24- 76)x( 77-827)
Operator 0  - Memory available             ...   256 MB
Operator 0  - Memory needed per MO         ...  12.3 MB
Operator 0  - Number of orbitals per batch ... 13
Operator 0  - Number of batches            ... 5

OPERATOR  0   PASS   0:  MOs    24 ...   36
  Reading integrals       ... ok
  Internal MO  26
  Internal MO  29
  Internal MO  32
  Internal MO  35
OPERATOR  0   PASS   1:  MOs    37 ...   49
  Reading integrals       ... ok
  Internal MO  38
  Internal MO  41
  Internal MO  44
  Internal MO  47
OPERATOR  0   PASS   2:  MOs    50 ...   62
  Reading integrals       ... ok
  Internal MO  50
  Internal MO  53
  Internal MO  56
  Internal MO  59
  Internal MO  62
OPERATOR  0   PASS   3:  MOs    63 ...   75
  Reading integrals       ... ok
  Internal MO  65
  Internal MO  68
  Internal MO  71
  Internal MO  74
OPERATOR  0   PASS   4:  MOs    76 ...   76
  Reading integrals       ... ok
Time spent in pair loops =   420.584 sec
Deleting buffer (Ka|jb)[aa] ...done

-----------------------------------------------
 RI-MP2 CORRELATION ENERGY:     -3.528064256 Eh
-----------------------------------------------


-------
TIMINGS
-------

Total time                :  552.761 sec
Integral trafo            :  130.422 sec ( 23.6%)
I/O of integrals          :    6.776 sec (  1.2%)
K(i,j) Operators          :  373.745 sec ( 67.6%)
T(i,j) pair energies      :    3.560 sec (  0.6%)
V-calculation             :    0.032 sec (  0.0%)
V**(-1/2)                 :    1.570 sec (  0.3%)
Gamma(ia|P)               :    0.000 sec (  0.0%)
Gamma-Trafo               :    0.000 sec (  0.0%)
D(virtual)                :    0.000 sec (  0.0%)
D(internal)               :    0.000 sec (  0.0%)
W(virtual)                :    0.000 sec (  0.0%)
W(internal)               :    0.000 sec (  0.0%)
L(virtual)                :    0.000 sec (  0.0%)
L(internal)               :    0.000 sec (  0.0%)
G(D)                      :    0.000 sec (  0.0%)
G(Z)                      :    0.000 sec (  0.0%)
Z-Vector Solution         :    0.000 sec (  0.0%)
3-Index Derivative        :    0.000 sec (  0.0%)
2-Index Derivative        :    0.000 sec (  0.0%)
Separable Gradient        :    0.000 sec (  0.0%)


---------------------------------------
MP2 TOTAL ENERGY:    -1274.326460281 Eh
---------------------------------------

-------------------------   --------------------
FINAL SINGLE POINT ENERGY     -1274.326460280721
-------------------------   --------------------


                            ***************************************
                            *     ORCA property calculations      *
                            ***************************************


  WARNING: The energy has been calculated at the MP2 level but the densities
           used in the property calculations are still SCF densities
           MP2 response densities have not been calculated 
           use %mp2 Density relaxed end
           or  %mp2 Density unrelaxed end

                                    ---------------------
                                    Active property flags
                                    ---------------------
   (+) Dipole Moment


------------------------------------------------------------------------------
                       ORCA ELECTRIC PROPERTIES CALCULATION
------------------------------------------------------------------------------

Dipole Moment Calculation                       ... on
Quadrupole Moment Calculation                   ... off
Polarizability Calculation                      ... off
GBWName                                         ... CONFS/Conf102.orca.gbw
Electron density file                           ... CONFS/Conf102.orca.scfp
The origin for moment calculation is the CENTER OF MASS  = (31.913942, 33.041455 33.490337)

-------------
DIPOLE MOMENT
-------------
                                X             Y             Z
Electronic contribution:     10.64520       9.50462      10.07923
Nuclear contribution   :    -12.17814     -10.63434     -10.63781
                        -----------------------------------------
Total Dipole Moment    :     -1.53294      -1.12972      -0.55858
                        -----------------------------------------
Magnitude (a.u.)       :      1.98449
Magnitude (Debye)      :      5.04417



--------------------
Rotational spectrum 
--------------------
 
Rotational constants in cm-1:     0.009930     0.009340     0.005860 
Rotational constants in MHz :   297.680027   280.009958   175.669645 

 Dipole components along the rotational axes: 
x,y,z [a.u.] :    -1.665786     0.580516     0.909041 
x,y,z [Debye]:    -4.234091     1.475553     2.310597 

 

Timings for individual modules:

Sum of individual times         ...     5752.009 sec (=  95.867 min)
GTO integral calculation        ...        2.911 sec (=   0.049 min)   0.1 %
SCF iterations                  ...     5195.972 sec (=  86.600 min)  90.3 %
MP2 module                      ...      553.126 sec (=   9.219 min)   9.6 %
                             ****ORCA TERMINATED NORMALLY****
TOTAL RUN TIME: 0 days 1 hours 35 minutes 53 seconds 766 msec
