
                                 *****************
                                 * O   R   C   A *
                                 *****************

           --- An Ab Initio, DFT and Semiempirical electronic structure package ---

                  #######################################################
                  #                        -***-                        #
                  #          Department of theory and spectroscopy      #
                  #               Directorship: Frank Neese             #
                  #        Max Planck Institute fuer Kohlenforschung    #
                  #                Kaiser Wilhelm Platz 1               #
                  #                 D-45470 Muelheim/Ruhr               #
                  #                      Germany                        #
                  #                                                     #
                  #                  All rights reserved                #
                  #                        -***-                        #
                  #######################################################


                         Program Version 4.2.0 -  RELEASE  -


 With contributions from (in alphabetic order):
   Daniel Aravena         : Magnetic Suceptibility
   Michael Atanasov       : Ab Initio Ligand Field Theory (pilot matlab implementation)
   Alexander A. Auer      : GIAO ZORA, VPT2
   Ute Becker             : Parallelization
   Giovanni Bistoni       : ED, misc. LED, open-shell LED, HFLED
   Martin Brehm           : Molecular dynamics
   Dmytro Bykov           : SCF Hessian
   Vijay G. Chilkuri      : MRCI spin determinant printing, contributions to CSF-ICE
   Dipayan Datta          : RHF DLPNO-CCSD density
   Achintya Kumar Dutta   : EOM-CC, STEOM-CC
   Dmitry Ganyushin       : Spin-Orbit,Spin-Spin,Magnetic field MRCI
   Miquel Garcia          : C-PCM Hessian, Gaussian charge scheme
   Yang Guo               : DLPNO-NEVPT2, CIM, IAO-localization
   Andreas Hansen         : Spin unrestricted coupled pair/coupled cluster methods
   Benjamin Helmich-Paris : CASSCF linear response (MC-RPA)
   Lee Huntington         : MR-EOM, pCC
   Robert Izsak           : Overlap fitted RIJCOSX, COSX-SCS-MP3, EOM
   Christian Kollmar      : KDIIS, OOCD, Brueckner-CCSD(T), CCSD density
   Simone Kossmann        : Meta GGA functionals, TD-DFT gradient, OOMP2, MP2 Hessian
   Martin Krupicka        : AUTO-CI
   Lucas Lang             : DCDCAS
   Dagmar Lenk            : GEPOL surface, SMD
   Dimitrios Liakos       : Extrapolation schemes; Compound Job, initial MDCI parallelization
   Dimitrios Manganas     : Further ROCIS development; embedding schemes
   Dimitrios Pantazis     : SARC Basis sets
   Taras Petrenko         : DFT Hessian,TD-DFT gradient, ASA, ECA, R-Raman, ABS, FL, XAS/XES, NRVS
   Peter Pinski           : DLPNO-MP2, DLPNO-MP2 Gradient
   Christoph Reimann      : Effective Core Potentials
   Marius Retegan         : Local ZFS, SOC
   Christoph Riplinger    : Optimizer, TS searches, QM/MM, DLPNO-CCSD(T), (RO)-DLPNO pert. Triples
   Tobias Risthaus        : Range-separated hybrids, TD-DFT gradient, RPA, STAB
   Michael Roemelt        : Original ROCIS implementation
   Masaaki Saitow         : Open-shell DLPNO-CCSD energy and density
   Barbara Sandhoefer     : DKH picture change effects
   Avijit Sen             : IP-ROCIS
   Kantharuban Sivalingam : CASSCF convergence, NEVPT2, FIC-MRCI
   Bernardo de Souza      : ESD, SOC TD-DFT
   Georgi Stoychev        : AutoAux, RI-MP2 NMR
   Willem Van den Heuvel  : Paramagnetic NMR
   Boris Wezisla          : Elementary symmetry handling
   Frank Wennmohs         : Technical directorship


 We gratefully acknowledge several colleagues who have allowed us to
 interface, adapt or use parts of their codes:
   Stefan Grimme, W. Hujo, H. Kruse,             : VdW corrections, initial TS optimization,
                  C. Bannwarth                     DFT functionals, gCP, sTDA/sTD-DF
   Ed Valeev, F. Pavosevic, A. Kumar             : LibInt (2-el integral package), F12 methods
   Garnet Chan, S. Sharma, J. Yang, R. Olivares  : DMRG
   Ulf Ekstrom                                   : XCFun DFT Library
   Mihaly Kallay                                 : mrcc  (arbitrary order and MRCC methods)
   Andreas Klamt, Michael Diedenhofen            : otool_cosmo (COSMO solvation model)
   Jiri Pittner, Ondrej Demel                    : Mk-CCSD
   Frank Weinhold                                : gennbo (NPA and NBO analysis)
   Christopher J. Cramer and Donald G. Truhlar   : smd solvation model
   Lars Goerigk                                  : TD-DFT with DH, B97 family of functionals
   V. Asgeirsson, H. Jonsson                     : NEB implementation
   FAccTs GmbH                                   : IRC, NEB, NEB-TS, Multilevel, MM, QM/MM, CI optimization
   S Lehtola, MJT Oliveira, MAL Marques          : LibXC Library


 Your calculation uses the libint2 library for the computation of 2-el integrals
 For citations please refer to: http://libint.valeyev.net

 Your ORCA version has been built with support for libXC version: 4.2.3
 For citations please refer to: https://tddft.org/programs/libxc/

 This ORCA versions uses:
   CBLAS   interface :  Fast vector & matrix operations
   LAPACKE interface :  Fast linear algebra routines
   SCALAPACK package :  Parallel linear algebra routines


----- Orbital basis set information -----
Your calculation utilizes the basis: cc-pVTZ 
       H, B-Ne : Obtained from the ccRepo (grant-hill.group.shef.ac.uk/ccrepo) Feb. 2017
                 T. H. Dunning, Jr., J. Chem. Phys. 90, 1007 (1989)
            He : Obtained from the ccRepo (grant-hill.group.shef.ac.uk/ccrepo) Feb. 2017
                 D. E. Woon, T. H. Dunning, Jr., J. Chem. Phys. 100, 2975 (1994)
  Li-Be, Na-Mg : Obtained from the ccRepo (grant-hill.group.shef.ac.uk/ccrepo) Feb. 2017
                 B. P. Prascher, D. E. Woon, K. A. Peterson, T. H. Dunning, Jr., A. K. Wilson, Theor. Chem. Acc. 128, 69 (2011)
         Al-Ar : Obtained from the ccRepo (grant-hill.group.shef.ac.uk/ccrepo) Feb. 2017
                 D. E. Woon, T. H. Dunning, Jr., J. Chem. Phys. 98, 1358 (1993)
            Ca : Obtained from the Peterson Research Group Website (tyr0.chem.wsu.edu/~kipeters) Feb. 2017
                 J. Koput, K. A. Peterson, J. Phys. Chem. 106, 9595 (2002)
         Sc-Zn : Obtained from the ccRepo (grant-hill.group.shef.ac.uk/ccrepo) Feb. 2017
                 N. B. Balabanov, K. A. Peterson, J. Chem. Phys. 123, 064107 (2005)
                 N. B. Balabanov, K. A. Peterson, J. Chem. Phys. 125, 074110 (2006)
         Ga-Kr : Obtained from the ccRepo (grant-hill.group.shef.ac.uk/ccrepo) Feb. 2017
                 A. K. Wilson, D. E. Woon, K. A. Peterson, T. H. Dunning, Jr., J. Chem. Phys. 110, 7667 (1999)
             Y : Obtained from the ccRepo (grant-hill.group.shef.ac.uk/ccrepo) Feb. 2017
                 K. A. Peterson, D. Figgen, M. Dolg, H. Stoll, J. Chem. Phys. 126, 124101 (2007)
        Ag, Au : Obtained from the Peterson Research Group Website (tyr0.chem.wsu.edu/~kipeters) Feb. 2017
                 K. A. Peterson, C. Puzzarini, Theor. Chem. Acc. 114, 283 (2005)

----- AuxC basis set information -----
Your calculation utilizes the auxiliary basis: cc-pVTZ/C 
  Obtained from the EMSL Basis Set Exchange (bse.pnl.gov) Feb. 2017
  H-He, B-F, Al-Ar, Ga-Kr : F. Weigend, A. Kohn, C. Hattig, J. Chem. Phys. 116, 3175 (2002)
             Li-Be, Na-Mg : C. Haettig, Phys. Chem. Chem. Phys. 7, 59 (2005)
                       Ne : C. Haettig, Phys. Chem. Chem. Phys. 7, 59 (2005)
                            F. Weigend, A. Kohn, C. Hattig, J. Chem. Phys. 116, 3175 (2002)
                    Sc-Zn : J. G. Hill, J. A. Platts, J. Chem. Phys. 128, 044104 (2008)

================================================================================
                                        WARNINGS
                       Please study these warnings very carefully!
================================================================================


WARNING: No MP2 level density has been requested!
         To caclulate MP2 level properties use
         %mp2 Density relaxed end
         or
         %mp2 Density unrelaxed end

WARNING: Post HF methods need fully converged wavefunctions
  ===> : Setting SCFConvForced true
         You can overwrite this default with %scf ConvForced false 


INFO   : the flag for use of LIBINT has been found!

================================================================================
                                       INPUT FILE
================================================================================
NAME = CONFS/Conf828.orca
|  1> ! ri-mp2 cc-pvtz cc-pvtz/c TightSCF NoKeepInts
|  2> 
|  3> %scf
|  4>   MaxCore 4096
|  5> end
|  6> *xyz  0  1
|  7>     C       14.5529973   14.5068537   15.2298217
|  8>     C       15.1944551   15.5839487   16.1195209
|  9>     O       16.4023244   16.0094552   15.4627360
| 10>     C       16.5677219   17.3431253   15.2374746
| 11>     O       16.3609117   17.7963050   14.1271321
| 12>     C       16.9369613   18.1609223   16.4487153
| 13>     C       16.9110284   19.5175111   16.3719194
| 14>     C       16.1941872   20.3625809   15.3386989
| 15>     N       17.5678587   20.3103702   17.3150043
| 16>     C       18.4722181   19.8354054   18.2245422
| 17>     S       19.3134136   20.8401319   19.2334107
| 18>     N       18.6646277   18.4777373   18.2372423
| 19>     C       17.8665671   17.4940467   17.4811862
| 20>     C       17.2327046   16.4588611   18.3957333
| 21>     C       17.7373353   15.1463864   18.4499689
| 22>     C       17.1549827   14.1947662   19.3041420
| 23>     C       16.0664318   14.5613458   20.1144999
| 24>     C       15.5712907   15.8720302   20.0710576
| 25>     O       14.5205882   16.2287816   20.8511753
| 26>     C       16.1507478   16.8167305   19.2181366
| 27>     H       13.6225770   14.1387698   15.6787000
| 28>     H       15.2339648   13.6562869   15.1013571
| 29>     H       14.3195650   14.9152306   14.2382244
| 30>     H       14.4937691   16.4201051   16.2507167
| 31>     H       15.4094560   15.1481357   17.1006684
| 32>     H       15.2140026   19.9347008   15.0933079
| 33>     H       16.7742786   20.4054071   14.4075840
| 34>     H       16.0213410   21.3917085   15.6751346
| 35>     H       17.4625652   21.3121319   17.2877582
| 36>     H       19.3229319   18.1539385   18.9348944
| 37>     H       18.6681490   17.0361855   16.8838103
| 38>     H       18.5773528   14.8608249   17.8216736
| 39>     H       17.5478598   13.1796739   19.3369285
| 40>     H       15.6144023   13.8292581   20.7760001
| 41>     H       14.3032000   15.4705306   21.4147042
| 42>     H       15.7622313   17.8298165   19.2044198
| 43> *
| 44> 
| 45>                          ****END OF INPUT****
================================================================================

                       ****************************
                       * Single Point Calculation *
                       ****************************

---------------------------------
CARTESIAN COORDINATES (ANGSTROEM)
---------------------------------
  C     14.552997   14.506854   15.229822
  C     15.194455   15.583949   16.119521
  O     16.402324   16.009455   15.462736
  C     16.567722   17.343125   15.237475
  O     16.360912   17.796305   14.127132
  C     16.936961   18.160922   16.448715
  C     16.911028   19.517511   16.371919
  C     16.194187   20.362581   15.338699
  N     17.567859   20.310370   17.315004
  C     18.472218   19.835405   18.224542
  S     19.313414   20.840132   19.233411
  N     18.664628   18.477737   18.237242
  C     17.866567   17.494047   17.481186
  C     17.232705   16.458861   18.395733
  C     17.737335   15.146386   18.449969
  C     17.154983   14.194766   19.304142
  C     16.066432   14.561346   20.114500
  C     15.571291   15.872030   20.071058
  O     14.520588   16.228782   20.851175
  C     16.150748   16.816730   19.218137
  H     13.622577   14.138770   15.678700
  H     15.233965   13.656287   15.101357
  H     14.319565   14.915231   14.238224
  H     14.493769   16.420105   16.250717
  H     15.409456   15.148136   17.100668
  H     15.214003   19.934701   15.093308
  H     16.774279   20.405407   14.407584
  H     16.021341   21.391709   15.675135
  H     17.462565   21.312132   17.287758
  H     19.322932   18.153938   18.934894
  H     18.668149   17.036185   16.883810
  H     18.577353   14.860825   17.821674
  H     17.547860   13.179674   19.336928
  H     15.614402   13.829258   20.776000
  H     14.303200   15.470531   21.414704
  H     15.762231   17.829816   19.204420

----------------------------
CARTESIAN COORDINATES (A.U.)
----------------------------
  NO LB      ZA    FRAG     MASS         X           Y           Z
   0 C     6.0000    0    12.011   27.501179   27.413981   28.780192
   1 C     6.0000    0    12.011   28.713359   29.449395   30.461480
   2 O     8.0000    0    15.999   30.995901   30.253486   29.220336
   3 C     6.0000    0    12.011   31.308457   32.773757   28.794654
   4 O     8.0000    0    15.999   30.917642   33.630143   26.696411
   5 C     6.0000    0    12.011   32.006218   34.319169   31.083567
   6 C     6.0000    0    12.011   31.957212   36.882751   30.938444
   7 C     6.0000    0    12.011   30.602579   38.479701   28.985940
   8 N     7.0000    0    14.007   33.198442   38.381037   32.720616
   9 C     6.0000    0    12.011   34.907433   37.483484   34.439394
  10 S    16.0000    0    32.060   36.497062   39.382142   36.345879
  11 N     7.0000    0    14.007   35.271035   34.917863   34.463393
  12 C     6.0000    0    12.011   33.762919   33.058957   33.034654
  13 C     6.0000    0    12.011   32.565092   31.102740   34.762898
  14 C     6.0000    0    12.011   33.518706   28.622522   34.865388
  15 C     6.0000    0    12.011   32.418219   26.824221   36.479542
  16 C     6.0000    0    12.011   30.361156   27.516956   38.010896
  17 C     6.0000    0    12.011   29.425475   29.993790   37.928802
  18 O     8.0000    0    15.999   27.439935   30.667953   39.403011
  19 C     6.0000    0    12.011   30.520490   31.779015   36.317015
  20 H     1.0000    0     1.008   25.742940   26.718403   29.628449
  21 H     1.0000    0     1.008   28.788021   25.806642   28.537429
  22 H     1.0000    0     1.008   27.060056   28.185701   26.906345
  23 H     1.0000    0     1.008   27.389254   31.029502   30.709404
  24 H     1.0000    0     1.008   29.119652   28.625828   32.315580
  25 H     1.0000    0     1.008   28.750298   37.671125   28.522218
  26 H     1.0000    0     1.008   31.698793   38.560631   27.226388
  27 H     1.0000    0     1.008   30.275947   40.424471   29.621712
  28 H     1.0000    0     1.008   32.999466   40.274093   32.669128
  29 H     1.0000    0     1.008   36.515049   34.305972   35.781765
  30 H     1.0000    0     1.008   35.277689   32.193725   31.905778
  31 H     1.0000    0     1.008   35.106109   28.082889   33.678082
  32 H     1.0000    0     1.008   33.160649   24.905974   36.541499
  33 H     1.0000    0     1.008   29.506944   26.133510   39.260950
  34 H     1.0000    0     1.008   27.029131   29.235066   40.467926
  35 H     1.0000    0     1.008   29.786300   33.693470   36.291094

--------------------------------
INTERNAL COORDINATES (ANGSTROEM)
--------------------------------
 C      0   0   0     0.000000000000     0.00000000     0.00000000
 C      1   0   0     1.537259384322     0.00000000     0.00000000
 O      2   1   0     1.439225636338   107.05160810     0.00000000
 C      3   2   1     1.362635302262   117.81858976   126.57938898
 O      4   3   2     1.216964570816   119.64810405   258.51933910
 C      4   3   2     1.507393014797   115.33370756    75.48123077
 C      6   4   3     1.359008203744   119.43772667   190.59100969
 C      7   6   4     1.515106885507   127.18091799    18.43017742
 N      7   6   4     1.396230899264   121.31213185   197.23482500
 C      9   7   6     1.367741451132   124.26535573    12.45737456
 S     10   9   7     1.653753566682   122.07497971   174.76026362
 N     10   9   7     1.371293337135   116.27921833   356.01142182
 C     12  10   9     1.475184308535   125.41858925   351.97300439
 C     13  12  10     1.519798438436   111.80313269   237.53407818
 C     14  13  12     1.407189923866   120.59161339   254.08462940
 C     15  14  13     1.405107554794   120.42937285   179.52194450
 C     16  15  14     1.405703948603   119.65489577   359.61647990
 C     17  16  15     1.401765151066   119.96707586   359.75223416
 O     18  17  16     1.356403675445   120.11366249   179.96389673
 C     18  17  16     1.398464665196   120.27659968     0.38018599
 H      1   2   3     1.096658296965   110.62790124   179.95594309
 H      1   2   3     1.097125230214   110.60798467    59.93251689
 H      1   2   3     1.097509697681   110.54513494   299.93402293
 H      2   1   3     1.098786027302   109.64560955   120.96556194
 H      2   1   3     1.094901262547   108.76431528   239.74188496
 H      8   7   6     1.097296665872   110.95558528    39.30773347
 H      8   7   6     1.097868422336   110.49536499   280.40726252
 H      8   7   6     1.096434405777   112.88341471   159.51529387
 H      9   7   6     1.007648537286   119.80952197   185.76260633
 H     12  10   9     1.012387542028   114.47393032   181.36246615
 H     13  12  10     1.099558268931    99.30726126   121.13268447
 H     15  14  13     1.087165927810   119.98661292   358.96253282
 H     16  15  14     1.088962693487   120.00604618   179.69229089
 H     17  16  15     1.085295159835   119.86733498   180.03938594
 H     19  18  17     0.969415818746   107.59680558     4.65604423
 H     20  18  17     1.085115876195   119.34318936   180.64867779

---------------------------
INTERNAL COORDINATES (A.U.)
---------------------------
 C      0   0   0     0.000000000000     0.00000000     0.00000000
 C      1   0   0     2.904999233169     0.00000000     0.00000000
 O      2   1   0     2.719742297598   107.05160810     0.00000000
 C      3   2   1     2.575007541688   117.81858976   126.57938898
 O      4   3   2     2.299729753528   119.64810405   258.51933910
 C      4   3   2     2.848559974152   115.33370756    75.48123077
 C      6   4   3     2.568153318829   119.43772667   190.59100969
 C      7   6   4     2.863137077226   127.18091799    18.43017742
 N      7   6   4     2.638494019327   121.31213185   197.23482500
 C      9   7   6     2.584656764651   124.26535573    12.45737456
 S     10   9   7     3.125141334025   122.07497971   174.76026362
 N     10   9   7     2.591368856455   116.27921833   356.01142182
 C     12  10   9     2.787694340189   125.41858925   351.97300439
 C     13  12  10     2.872002827405   111.80313269   237.53407818
 C     14  13  12     2.659203574520   120.59161339   254.08462940
 C     15  14  13     2.655268467264   120.42937285   179.52194450
 C     16  15  14     2.656395488232   119.65489577   359.61647990
 C     17  16  15     2.648952239589   119.96707586   359.75223416
 O     18  17  16     2.563231473636   120.11366249   179.96389673
 C     18  17  16     2.642715225186   120.27659968     0.38018599
 H      1   2   3     2.072383843756   110.62790124   179.95594309
 H      1   2   3     2.073266219719   110.60798467    59.93251689
 H      1   2   3     2.073992757940   110.54513494   299.93402293
 H      2   1   3     2.076404671381   109.64560955   120.96556194
 H      2   1   3     2.069063529898   108.76431528   239.74188496
 H      8   7   6     2.073590186163   110.95558528    39.30773347
 H      8   7   6     2.074670649295   110.49536499   280.40726252
 H      8   7   6     2.071960750726   112.88341471   159.51529387
 H      9   7   6     1.904179774717   119.80952197   185.76260633
 H     12  10   9     1.913135195827   114.47393032   181.36246615
 H     13  12  10     2.077863996568    99.30726126   121.13268447
 H     15  14  13     2.054445865691   119.98661292   358.96253282
 H     16  15  14     2.057841260747   120.00604618   179.69229089
 H     17  16  15     2.050910626559   119.86733498   180.03938594
 H     19  18  17     1.831930407321   107.59680558     4.65604423
 H     20  18  17     2.050571829579   119.34318936   180.64867779

---------------------
BASIS SET INFORMATION
---------------------
There are 5 groups of distinct atoms

 Group   1 Type C   : 18s5p2d1f contracted to 4s3p2d1f pattern {8811/311/11/1}
 Group   2 Type O   : 18s5p2d1f contracted to 4s3p2d1f pattern {8811/311/11/1}
 Group   3 Type N   : 18s5p2d1f contracted to 4s3p2d1f pattern {8811/311/11/1}
 Group   4 Type S   : 41s16p2d1f contracted to 5s4p2d1f pattern {13131311/7711/11/1}
 Group   5 Type H   : 5s2p1d contracted to 3s2p1d pattern {311/11/1}

Atom   0C    basis set group =>   1
Atom   1C    basis set group =>   1
Atom   2O    basis set group =>   2
Atom   3C    basis set group =>   1
Atom   4O    basis set group =>   2
Atom   5C    basis set group =>   1
Atom   6C    basis set group =>   1
Atom   7C    basis set group =>   1
Atom   8N    basis set group =>   3
Atom   9C    basis set group =>   1
Atom  10S    basis set group =>   4
Atom  11N    basis set group =>   3
Atom  12C    basis set group =>   1
Atom  13C    basis set group =>   1
Atom  14C    basis set group =>   1
Atom  15C    basis set group =>   1
Atom  16C    basis set group =>   1
Atom  17C    basis set group =>   1
Atom  18O    basis set group =>   2
Atom  19C    basis set group =>   1
Atom  20H    basis set group =>   5
Atom  21H    basis set group =>   5
Atom  22H    basis set group =>   5
Atom  23H    basis set group =>   5
Atom  24H    basis set group =>   5
Atom  25H    basis set group =>   5
Atom  26H    basis set group =>   5
Atom  27H    basis set group =>   5
Atom  28H    basis set group =>   5
Atom  29H    basis set group =>   5
Atom  30H    basis set group =>   5
Atom  31H    basis set group =>   5
Atom  32H    basis set group =>   5
Atom  33H    basis set group =>   5
Atom  34H    basis set group =>   5
Atom  35H    basis set group =>   5
---------------------------------
AUXILIARY/C BASIS SET INFORMATION
---------------------------------
There are 5 groups of distinct atoms

 Group   1 Type C   : 8s6p5d3f1g contracted to 8s6p5d3f1g pattern {11111111/111111/11111/111/1}
 Group   2 Type O   : 8s6p5d3f1g contracted to 8s6p5d3f1g pattern {11111111/111111/11111/111/1}
 Group   3 Type N   : 8s6p5d3f1g contracted to 8s6p5d3f1g pattern {11111111/111111/11111/111/1}
 Group   4 Type S   : 10s8p7d5f2g contracted to 10s8p7d5f2g pattern {1111111111/11111111/1111111/11111/11}
 Group   5 Type H   : 4s3p2d1f contracted to 4s3p2d1f pattern {1111/111/11/1}

Atom   0C    basis set group =>   1
Atom   1C    basis set group =>   1
Atom   2O    basis set group =>   2
Atom   3C    basis set group =>   1
Atom   4O    basis set group =>   2
Atom   5C    basis set group =>   1
Atom   6C    basis set group =>   1
Atom   7C    basis set group =>   1
Atom   8N    basis set group =>   3
Atom   9C    basis set group =>   1
Atom  10S    basis set group =>   4
Atom  11N    basis set group =>   3
Atom  12C    basis set group =>   1
Atom  13C    basis set group =>   1
Atom  14C    basis set group =>   1
Atom  15C    basis set group =>   1
Atom  16C    basis set group =>   1
Atom  17C    basis set group =>   1
Atom  18O    basis set group =>   2
Atom  19C    basis set group =>   1
Atom  20H    basis set group =>   5
Atom  21H    basis set group =>   5
Atom  22H    basis set group =>   5
Atom  23H    basis set group =>   5
Atom  24H    basis set group =>   5
Atom  25H    basis set group =>   5
Atom  26H    basis set group =>   5
Atom  27H    basis set group =>   5
Atom  28H    basis set group =>   5
Atom  29H    basis set group =>   5
Atom  30H    basis set group =>   5
Atom  31H    basis set group =>   5
Atom  32H    basis set group =>   5
Atom  33H    basis set group =>   5
Atom  34H    basis set group =>   5
Atom  35H    basis set group =>   5
------------------------------------------------------------------------------
                           ORCA GTO INTEGRAL CALCULATION
------------------------------------------------------------------------------

                         BASIS SET STATISTICS AND STARTUP INFO

 # of primitive gaussian shells          ...  682
 # of primitive gaussian functions       ... 1312
 # of contracted shells                  ...  298
 # of contracted basis functions         ...  828
 Highest angular momentum                ...    3
 Maximum contraction depth               ...   13
 Integral package used                   ... LIBINT
 Integral threshhold            Thresh   ...  2.500e-11
 Primitive cut-off              TCut     ...  2.500e-12


------------------------------ INTEGRAL EVALUATION ----------------------------


 * One electron integrals 
 Pre-screening matrix                    ... done
 Shell pair data                         ... done (   0.013 sec)

-------------------------------------------------------------------------------
                                 ORCA SCF
-------------------------------------------------------------------------------

------------
SCF SETTINGS
------------
Hamiltonian:
 Ab initio Hamiltonian  Method          .... Hartree-Fock(GTOs)


General Settings:
 Integral files         IntName         .... CONFS/Conf828.orca
 Hartree-Fock type      HFTyp           .... RHF
 Total Charge           Charge          ....    0
 Multiplicity           Mult            ....    1
 Number of Electrons    NEL             ....  154
 Basis Dimension        Dim             ....  828
 Nuclear Repulsion      ENuc            ....   1704.6764935500 Eh

Convergence Acceleration:
 DIIS                   CNVDIIS         .... on
   Start iteration      DIISMaxIt       ....    12
   Startup error        DIISStart       ....  0.200000
   # of expansion vecs  DIISMaxEq       ....     5
   Bias factor          DIISBfac        ....   1.050
   Max. coefficient     DIISMaxC        ....  10.000
 Newton-Raphson         CNVNR           .... off
 SOSCF                  CNVSOSCF        .... on
   Start iteration      SOSCFMaxIt      ....   150
   Startup grad/error   SOSCFStart      ....  0.003300
 Level Shifting         CNVShift        .... on
   Level shift para.    LevelShift      ....    0.2500
   Turn off err/grad.   ShiftErr        ....    0.0010
 Zerner damping         CNVZerner       .... off
 Static damping         CNVDamp         .... on
   Fraction old density DampFac         ....    0.7000
   Max. Damping (<1)    DampMax         ....    0.9800
   Min. Damping (>=0)   DampMin         ....    0.0000
   Turn off err/grad.   DampErr         ....    0.1000
 Fernandez-Rico         CNVRico         .... off

SCF Procedure:
 Maximum # iterations   MaxIter         ....   125
 SCF integral mode      SCFMode         .... Direct
   Integral package                     .... LIBINT
 Reset frequency        DirectResetFreq ....    20
 Integral Threshold     Thresh          ....  2.500e-11 Eh
 Primitive CutOff       TCut            ....  2.500e-12 Eh

Convergence Tolerance:
 Convergence Check Mode ConvCheckMode   .... Total+1el-Energy
 Convergence forced     ConvForced      .... 1
 Energy Change          TolE            ....  1.000e-08 Eh
 1-El. energy change                    ....  1.000e-05 Eh
 Orbital Gradient       TolG            ....  1.000e-05
 Orbital Rotation angle TolX            ....  1.000e-05
 DIIS Error             TolErr          ....  5.000e-07


Diagonalization of the overlap matrix:
Smallest eigenvalue                        ... 3.295e-05
Time for diagonalization                   ...    0.281 sec
Threshold for overlap eigenvalues          ... 1.000e-08
Number of eigenvalues below threshold      ... 0
Time for construction of square roots      ...    0.331 sec
Total time needed                          ...    0.613 sec

-------------------
DFT GRID GENERATION
-------------------

General Integration Accuracy     IntAcc      ...  4.340
Radial Grid Type                 RadialGrid  ... Gauss-Chebyshev
Angular Grid (max. acc.)         AngularGrid ... Lebedev-110
Angular grid pruning method      GridPruning ... 3 (G Style)
Weight generation scheme         WeightScheme... Becke
Basis function cutoff            BFCut       ...    1.0000e-11
Integration weight cutoff        WCut        ...    1.0000e-14
Grids for H and He will be reduced by one unit

# of grid points (after initial pruning)     ...  46246 (   0.0 sec)
# of grid points (after weights+screening)   ...  41323 (   0.3 sec)
nearest neighbour list constructed           ...    0.0 sec
Grid point re-assignment to atoms done       ...    0.0 sec
Grid point division into batches done        ...    0.0 sec
Reduced shell lists constructed in    0.8 sec

Total number of grid points                  ...    41323
Total number of batches                      ...      669
Average number of points per batch           ...       61
Average number of grid points per atom       ...     1148
Average number of shells per batch           ...   149.39 (50.13%)
Average number of basis functions per batch  ...   380.23 (45.92%)
Average number of large shells per batch     ...    96.13 (64.35%)
Average number of large basis fcns per batch ...   246.62 (64.86%)
Maximum spatial batch extension              ...  19.98, 20.85, 22.03 au
Average spatial batch extension              ...   3.50,  3.27,  3.45 au

Time for grid setup =    1.130 sec

------------------------------
INITIAL GUESS: MODEL POTENTIAL
------------------------------
Loading Hartree-Fock densities                     ... done
Calculating cut-offs                               ... done
Setting up the integral package                    ... done
Initializing the effective Hamiltonian             ... done
Starting the Coulomb interaction                   ... done (   2.9 sec)
Reading the grid                                   ... done
Mapping shells                                     ... done
Starting the XC term evaluation                    ... done (   1.0 sec)
Transforming the Hamiltonian                       ... done (   0.2 sec)
Diagonalizing the Hamiltonian                      ... done (   0.3 sec)
Back transforming the eigenvectors                 ... done (   0.1 sec)
Now organizing SCF variables                       ... done
                      ------------------
                      INITIAL GUESS DONE (   6.0 sec)
                      ------------------
--------------
SCF ITERATIONS
--------------
ITER       Energy         Delta-E        Max-DP      RMS-DP      [F,P]     Damp
               ***  Starting incremental Fock matrix formation  ***
  0  -1269.9941231258   0.000000000000 0.04933496  0.00042592  0.3258876 0.7000
  1  -1270.2617972661  -0.267674140331 0.03608870  0.00034251  0.1961657 0.7000
                               ***Turning on DIIS***
  2  -1270.4286276493  -0.166830383227 0.02583883  0.00023053  0.1104663 0.7000
  3  -1272.5451535207  -2.116525871369 0.06311883  0.00050174  0.0828449 0.0000
  4  -1270.7379942702   1.807159250467 0.00885627  0.00009507  0.0069844 0.0000
  5  -1270.7952226090  -0.057228338743 0.00359880  0.00004955  0.0050702 0.0000
  6  -1270.7757512804   0.019471328540 0.00186175  0.00002537  0.0036252 0.0000
                      *** Initiating the SOSCF procedure ***
                           *** Shutting down DIIS ***
                      *** Re-Reading the Fockian *** 
                      *** Removing any level shift *** 
ITER      Energy       Delta-E        Grad      Rot      Max-DP    RMS-DP
  7  -1270.79090518  -0.0151538964  0.001254  0.001254  0.001098  0.000014
               *** Restarting incremental Fock matrix formation ***
  8  -1270.79112584  -0.0002206669  0.000675  0.001715  0.000559  0.000007
  9  -1270.79114025  -0.0000144042  0.000316  0.001964  0.000731  0.000009
 10  -1270.79114612  -0.0000058717  0.000059  0.000105  0.000195  0.000002
 11  -1270.79114662  -0.0000004982  0.000031  0.000066  0.000058  0.000001
 12  -1270.79114674  -0.0000001184  0.000010  0.000044  0.000034  0.000000
 13  -1270.79114675  -0.0000000159  0.000009  0.000040  0.000017  0.000000
                  ***Gradient check signals convergence***
              ***Rediagonalizing the Fockian in SOSCF/NRSCF***

               *****************************************************
               *                     SUCCESS                       *
               *           SCF CONVERGED AFTER  14 CYCLES          *
               *****************************************************


----------------
TOTAL SCF ENERGY
----------------

Total Energy       :        -1270.79114676 Eh          -34579.98512 eV

Components:
Nuclear Repulsion  :         1704.67649355 Eh           46386.60564 eV
Electronic Energy  :        -2975.46764031 Eh          -80966.59075 eV
One Electron Energy:        -5130.16157067 Eh         -139598.79340 eV
Two Electron Energy:         2154.69393035 Eh           58632.20265 eV

Virial components:
Potential Energy   :        -2539.83041140 Eh          -69112.29910 eV
Kinetic Energy     :         1269.03926464 Eh           34532.31398 eV
Virial Ratio       :            2.00138048


---------------
SCF CONVERGENCE
---------------

  Last Energy change         ...   -1.1099e-08  Tolerance :   1.0000e-08
  Last MAX-Density change    ...    2.4062e-06  Tolerance :   1.0000e-07
  Last RMS-Density change    ...    4.2660e-08  Tolerance :   5.0000e-09
  Last Orbital Gradient      ...    1.6498e-06  Tolerance :   1.0000e-05
  Last Orbital Rotation      ...    6.1449e-06  Tolerance :   1.0000e-05

             **** THE GBW FILE WAS UPDATED (CONFS/Conf828.orca.gbw) ****
             **** DENSITY FILE WAS UPDATED (CONFS/Conf828.orca.scfp) ****
             **** ENERGY FILE WAS UPDATED (CONFS/Conf828.orca.en.tmp) ****
             **** THE GBW FILE WAS UPDATED (CONFS/Conf828.orca.gbw) ****
             **** DENSITY FILE WAS UPDATED (CONFS/Conf828.orca.scfp) ****
----------------
ORBITAL ENERGIES
----------------

  NO   OCC          E(Eh)            E(eV) 
   0   2.0000     -91.891466     -2500.4939 
   1   2.0000     -20.603838      -560.6589 
   2   2.0000     -20.582368      -560.0747 
   3   2.0000     -20.548026      -559.1402 
   4   2.0000     -15.631201      -425.3466 
   5   2.0000     -15.610009      -424.7699 
   6   2.0000     -11.392007      -309.9923 
   7   2.0000     -11.385766      -309.8224 
   8   2.0000     -11.338892      -308.5469 
   9   2.0000     -11.321896      -308.0844 
  10   2.0000     -11.313387      -307.8529 
  11   2.0000     -11.295174      -307.3573 
  12   2.0000     -11.267355      -306.6003 
  13   2.0000     -11.263180      -306.4867 
  14   2.0000     -11.259415      -306.3843 
  15   2.0000     -11.253986      -306.2365 
  16   2.0000     -11.252016      -306.1829 
  17   2.0000     -11.246136      -306.0229 
  18   2.0000     -11.246083      -306.0215 
  19   2.0000     -11.222889      -305.3903 
  20   2.0000      -8.896514      -242.0865 
  21   2.0000      -6.578080      -178.9987 
  22   2.0000      -6.576088      -178.9444 
  23   2.0000      -6.575490      -178.9282 
  24   2.0000      -1.446785       -39.3690 
  25   2.0000      -1.423576       -38.7375 
  26   2.0000      -1.354317       -36.8528 
  27   2.0000      -1.343387       -36.5554 
  28   2.0000      -1.241795       -33.7910 
  29   2.0000      -1.164892       -31.6983 
  30   2.0000      -1.123421       -30.5698 
  31   2.0000      -1.048841       -28.5404 
  32   2.0000      -1.032404       -28.0931 
  33   2.0000      -1.022810       -27.8321 
  34   2.0000      -1.000583       -27.2273 
  35   2.0000      -0.987900       -26.8821 
  36   2.0000      -0.926415       -25.2090 
  37   2.0000      -0.875495       -23.8234 
  38   2.0000      -0.851248       -23.1636 
  39   2.0000      -0.844313       -22.9749 
  40   2.0000      -0.841473       -22.8977 
  41   2.0000      -0.833943       -22.6927 
  42   2.0000      -0.760515       -20.6947 
  43   2.0000      -0.739177       -20.1140 
  44   2.0000      -0.723807       -19.6958 
  45   2.0000      -0.702590       -19.1185 
  46   2.0000      -0.691475       -18.8160 
  47   2.0000      -0.677704       -18.4413 
  48   2.0000      -0.673237       -18.3197 
  49   2.0000      -0.661492       -18.0001 
  50   2.0000      -0.649040       -17.6613 
  51   2.0000      -0.647713       -17.6252 
  52   2.0000      -0.639672       -17.4064 
  53   2.0000      -0.613840       -16.7034 
  54   2.0000      -0.608617       -16.5613 
  55   2.0000      -0.604202       -16.4412 
  56   2.0000      -0.592502       -16.1228 
  57   2.0000      -0.582806       -15.8589 
  58   2.0000      -0.573593       -15.6083 
  59   2.0000      -0.568921       -15.4811 
  60   2.0000      -0.564910       -15.3720 
  61   2.0000      -0.545145       -14.8341 
  62   2.0000      -0.540739       -14.7142 
  63   2.0000      -0.530381       -14.4324 
  64   2.0000      -0.518603       -14.1119 
  65   2.0000      -0.511587       -13.9210 
  66   2.0000      -0.504648       -13.7322 
  67   2.0000      -0.496270       -13.5042 
  68   2.0000      -0.486946       -13.2505 
  69   2.0000      -0.467630       -12.7249 
  70   2.0000      -0.453009       -12.3270 
  71   2.0000      -0.446610       -12.1529 
  72   2.0000      -0.357457        -9.7269 
  73   2.0000      -0.355146        -9.6640 
  74   2.0000      -0.332025        -9.0349 
  75   2.0000      -0.328715        -8.9448 
  76   2.0000      -0.321272        -8.7423 
  77   0.0000       0.072496         1.9727 
  78   0.0000       0.097125         2.6429 
  79   0.0000       0.120706         3.2846 
  80   0.0000       0.128117         3.4862 
  81   0.0000       0.128863         3.5066 
  82   0.0000       0.140935         3.8350 
  83   0.0000       0.147339         4.0093 
  84   0.0000       0.154520         4.2047 
  85   0.0000       0.159972         4.3531 
  86   0.0000       0.165427         4.5015 
  87   0.0000       0.176787         4.8106 
  88   0.0000       0.186681         5.0798 
  89   0.0000       0.193043         5.2530 
  90   0.0000       0.199459         5.4276 
  91   0.0000       0.209911         5.7120 
  92   0.0000       0.212693         5.7877 
  93   0.0000       0.219465         5.9720 
  94   0.0000       0.224232         6.1017 
  95   0.0000       0.231473         6.2987 
  96   0.0000       0.244111         6.6426 
  97   0.0000       0.247059         6.7228 
  98   0.0000       0.258309         7.0289 
  99   0.0000       0.275877         7.5070 
 100   0.0000       0.297135         8.0855 
 101   0.0000       0.304358         8.2820 
 102   0.0000       0.308532         8.3956 
 103   0.0000       0.310363         8.4454 
 104   0.0000       0.318016         8.6536 
 105   0.0000       0.319596         8.6966 
 106   0.0000       0.337139         9.1740 
 107   0.0000       0.339613         9.2413 
 108   0.0000       0.359863         9.7924 
 109   0.0000       0.364749         9.9253 
 110   0.0000       0.366959         9.9855 
 111   0.0000       0.372156        10.1269 
 112   0.0000       0.379345        10.3225 
 113   0.0000       0.391240        10.6462 
 114   0.0000       0.396971        10.8021 
 115   0.0000       0.406661        11.0658 
 116   0.0000       0.415462        11.3053 
 117   0.0000       0.426681        11.6106 
 118   0.0000       0.427894        11.6436 
 119   0.0000       0.437214        11.8972 
 120   0.0000       0.441165        12.0047 
 121   0.0000       0.445610        12.1257 
 122   0.0000       0.452747        12.3199 
 123   0.0000       0.458339        12.4720 
 124   0.0000       0.467002        12.7078 
 125   0.0000       0.470060        12.7910 
 126   0.0000       0.474520        12.9123 
 127   0.0000       0.481358        13.0984 
 128   0.0000       0.486451        13.2370 
 129   0.0000       0.493125        13.4186 
 130   0.0000       0.501959        13.6590 
 131   0.0000       0.502978        13.6867 
 132   0.0000       0.511634        13.9223 
 133   0.0000       0.515584        14.0298 
 134   0.0000       0.520377        14.1602 
 135   0.0000       0.527221        14.3464 
 136   0.0000       0.530165        14.4265 
 137   0.0000       0.536577        14.6010 
 138   0.0000       0.540447        14.7063 
 139   0.0000       0.551229        14.9997 
 140   0.0000       0.555895        15.1267 
 141   0.0000       0.557877        15.1806 
 142   0.0000       0.564703        15.3663 
 143   0.0000       0.565104        15.3773 
 144   0.0000       0.570234        15.5168 
 145   0.0000       0.575399        15.6574 
 146   0.0000       0.588937        16.0258 
 147   0.0000       0.592433        16.1209 
 148   0.0000       0.597027        16.2459 
 149   0.0000       0.602767        16.4021 
 150   0.0000       0.603415        16.4198 
 151   0.0000       0.607404        16.5283 
 152   0.0000       0.614546        16.7227 
 153   0.0000       0.616958        16.7883 
 154   0.0000       0.622226        16.9316 
 155   0.0000       0.624308        16.9883 
 156   0.0000       0.626398        17.0451 
 157   0.0000       0.632954        17.2236 
 158   0.0000       0.635460        17.2918 
 159   0.0000       0.642075        17.4717 
 160   0.0000       0.647259        17.6128 
 161   0.0000       0.653154        17.7732 
 162   0.0000       0.657246        17.8846 
 163   0.0000       0.664658        18.0863 
 164   0.0000       0.666186        18.1278 
 165   0.0000       0.667719        18.1696 
 166   0.0000       0.674340        18.3497 
 167   0.0000       0.681086        18.5333 
 168   0.0000       0.691568        18.8185 
 169   0.0000       0.696440        18.9511 
 170   0.0000       0.703159        19.1339 
 171   0.0000       0.709594        19.3090 
 172   0.0000       0.712936        19.4000 
 173   0.0000       0.719998        19.5922 
 174   0.0000       0.728625        19.8269 
 175   0.0000       0.731681        19.9100 
 176   0.0000       0.739387        20.1197 
 177   0.0000       0.745898        20.2969 
 178   0.0000       0.753543        20.5050 
 179   0.0000       0.755460        20.5571 
 180   0.0000       0.764699        20.8085 
 181   0.0000       0.776952        21.1419 
 182   0.0000       0.790723        21.5167 
 183   0.0000       0.795467        21.6458 
 184   0.0000       0.803841        21.8736 
 185   0.0000       0.809717        22.0335 
 186   0.0000       0.813816        22.1451 
 187   0.0000       0.825757        22.4700 
 188   0.0000       0.830043        22.5866 
 189   0.0000       0.833905        22.6917 
 190   0.0000       0.847195        23.0533 
 191   0.0000       0.851135        23.1606 
 192   0.0000       0.855968        23.2921 
 193   0.0000       0.867133        23.5959 
 194   0.0000       0.870677        23.6923 
 195   0.0000       0.878927        23.9168 
 196   0.0000       0.885169        24.0867 
 197   0.0000       0.891410        24.2565 
 198   0.0000       0.893902        24.3243 
 199   0.0000       0.899029        24.4638 
 200   0.0000       0.916525        24.9399 
 201   0.0000       0.923934        25.1415 
 202   0.0000       0.930951        25.3325 
 203   0.0000       0.933859        25.4116 
 204   0.0000       0.944958        25.7136 
 205   0.0000       0.949567        25.8390 
 206   0.0000       0.951650        25.8957 
 207   0.0000       0.960562        26.1382 
 208   0.0000       0.962062        26.1790 
 209   0.0000       0.977390        26.5961 
 210   0.0000       0.979846        26.6630 
 211   0.0000       0.991714        26.9859 
 212   0.0000       0.998488        27.1702 
 213   0.0000       1.006582        27.3905 
 214   0.0000       1.011823        27.5331 
 215   0.0000       1.018265        27.7084 
 216   0.0000       1.019346        27.7378 
 217   0.0000       1.027274        27.9536 
 218   0.0000       1.034414        28.1478 
 219   0.0000       1.040178        28.3047 
 220   0.0000       1.050393        28.5827 
 221   0.0000       1.056186        28.7403 
 222   0.0000       1.065620        28.9970 
 223   0.0000       1.073250        29.2046 
 224   0.0000       1.075351        29.2618 
 225   0.0000       1.089381        29.6436 
 226   0.0000       1.092631        29.7320 
 227   0.0000       1.102182        29.9919 
 228   0.0000       1.108704        30.1694 
 229   0.0000       1.121278        30.5115 
 230   0.0000       1.124528        30.6000 
 231   0.0000       1.130669        30.7671 
 232   0.0000       1.136513        30.9261 
 233   0.0000       1.140286        31.0288 
 234   0.0000       1.152035        31.3485 
 235   0.0000       1.166288        31.7363 
 236   0.0000       1.168940        31.8085 
 237   0.0000       1.177187        32.0329 
 238   0.0000       1.182490        32.1772 
 239   0.0000       1.190135        32.3852 
 240   0.0000       1.194786        32.5118 
 241   0.0000       1.200265        32.6609 
 242   0.0000       1.205077        32.7918 
 243   0.0000       1.209404        32.9095 
 244   0.0000       1.215831        33.0844 
 245   0.0000       1.219595        33.1869 
 246   0.0000       1.234081        33.5810 
 247   0.0000       1.235199        33.6115 
 248   0.0000       1.245155        33.8824 
 249   0.0000       1.250918        34.0392 
 250   0.0000       1.263298        34.3761 
 251   0.0000       1.272589        34.6289 
 252   0.0000       1.275982        34.7212 
 253   0.0000       1.284950        34.9653 
 254   0.0000       1.296980        35.2926 
 255   0.0000       1.303106        35.4593 
 256   0.0000       1.313423        35.7400 
 257   0.0000       1.320126        35.9224 
 258   0.0000       1.322899        35.9979 
 259   0.0000       1.329240        36.1705 
 260   0.0000       1.346172        36.6312 
 261   0.0000       1.350524        36.7496 
 262   0.0000       1.355684        36.8900 
 263   0.0000       1.364481        37.1294 
 264   0.0000       1.367646        37.2155 
 265   0.0000       1.379866        37.5481 
 266   0.0000       1.388072        37.7714 
 267   0.0000       1.398370        38.0516 
 268   0.0000       1.416432        38.5431 
 269   0.0000       1.421318        38.6760 
 270   0.0000       1.434185        39.0261 
 271   0.0000       1.440873        39.2081 
 272   0.0000       1.441811        39.2337 
 273   0.0000       1.452447        39.5231 
 274   0.0000       1.453612        39.5548 
 275   0.0000       1.462668        39.8012 
 276   0.0000       1.466025        39.8926 
 277   0.0000       1.479642        40.2631 
 278   0.0000       1.487565        40.4787 
 279   0.0000       1.492773        40.6204 
 280   0.0000       1.494456        40.6662 
 281   0.0000       1.507331        41.0166 
 282   0.0000       1.509176        41.0668 
 283   0.0000       1.514711        41.2174 
 284   0.0000       1.520078        41.3634 
 285   0.0000       1.528341        41.5883 
 286   0.0000       1.531654        41.6784 
 287   0.0000       1.536400        41.8076 
 288   0.0000       1.546345        42.0782 
 289   0.0000       1.552054        42.2335 
 290   0.0000       1.556126        42.3443 
 291   0.0000       1.566678        42.6315 
 292   0.0000       1.568399        42.6783 
 293   0.0000       1.573623        42.8204 
 294   0.0000       1.580387        43.0045 
 295   0.0000       1.598149        43.4878 
 296   0.0000       1.600462        43.5508 
 297   0.0000       1.610241        43.8169 
 298   0.0000       1.614394        43.9299 
 299   0.0000       1.617938        44.0263 
 300   0.0000       1.632415        44.4203 
 301   0.0000       1.638220        44.5782 
 302   0.0000       1.657956        45.1153 
 303   0.0000       1.661407        45.2092 
 304   0.0000       1.665698        45.3260 
 305   0.0000       1.676588        45.6223 
 306   0.0000       1.687942        45.9312 
 307   0.0000       1.693377        46.0791 
 308   0.0000       1.702992        46.3408 
 309   0.0000       1.710935        46.5569 
 310   0.0000       1.716824        46.7171 
 311   0.0000       1.730321        47.0844 
 312   0.0000       1.743715        47.4489 
 313   0.0000       1.752845        47.6973 
 314   0.0000       1.766071        48.0572 
 315   0.0000       1.768480        48.1228 
 316   0.0000       1.772985        48.2454 
 317   0.0000       1.779209        48.4147 
 318   0.0000       1.794311        48.8257 
 319   0.0000       1.802799        49.0567 
 320   0.0000       1.809813        49.2475 
 321   0.0000       1.822970        49.6055 
 322   0.0000       1.828430        49.7541 
 323   0.0000       1.833941        49.9041 
 324   0.0000       1.847831        50.2820 
 325   0.0000       1.858591        50.5748 
 326   0.0000       1.877192        51.0810 
 327   0.0000       1.894461        51.5509 
 328   0.0000       1.906396        51.8757 
 329   0.0000       1.914603        52.0990 
 330   0.0000       1.930723        52.5376 
 331   0.0000       1.937322        52.7172 
 332   0.0000       1.945902        52.9507 
 333   0.0000       1.950174        53.0669 
 334   0.0000       1.960341        53.3436 
 335   0.0000       1.987875        54.0928 
 336   0.0000       1.995485        54.2999 
 337   0.0000       2.009706        54.6869 
 338   0.0000       2.013775        54.7976 
 339   0.0000       2.017406        54.8964 
 340   0.0000       2.026566        55.1457 
 341   0.0000       2.035905        55.3998 
 342   0.0000       2.055511        55.9333 
 343   0.0000       2.075887        56.4878 
 344   0.0000       2.099987        57.1435 
 345   0.0000       2.115632        57.5693 
 346   0.0000       2.123964        57.7960 
 347   0.0000       2.129086        57.9354 
 348   0.0000       2.148990        58.4770 
 349   0.0000       2.160847        58.7996 
 350   0.0000       2.189260        59.5728 
 351   0.0000       2.199827        59.8603 
 352   0.0000       2.208655        60.1006 
 353   0.0000       2.219961        60.4082 
 354   0.0000       2.235666        60.8356 
 355   0.0000       2.261225        61.5310 
 356   0.0000       2.271755        61.8176 
 357   0.0000       2.278132        61.9911 
 358   0.0000       2.287806        62.2544 
 359   0.0000       2.298766        62.5526 
 360   0.0000       2.314437        62.9790 
 361   0.0000       2.328191        63.3533 
 362   0.0000       2.349012        63.9199 
 363   0.0000       2.357854        64.1605 
 364   0.0000       2.366140        64.3859 
 365   0.0000       2.373545        64.5874 
 366   0.0000       2.382548        64.8324 
 367   0.0000       2.389743        65.0282 
 368   0.0000       2.399625        65.2971 
 369   0.0000       2.429573        66.1121 
 370   0.0000       2.448012        66.6138 
 371   0.0000       2.464408        67.0599 
 372   0.0000       2.470583        67.2280 
 373   0.0000       2.479442        67.4690 
 374   0.0000       2.488810        67.7240 
 375   0.0000       2.496144        67.9235 
 376   0.0000       2.511805        68.3497 
 377   0.0000       2.520988        68.5996 
 378   0.0000       2.535348        68.9903 
 379   0.0000       2.544995        69.2528 
 380   0.0000       2.570228        69.9395 
 381   0.0000       2.572351        69.9972 
 382   0.0000       2.592145        70.5358 
 383   0.0000       2.598691        70.7140 
 384   0.0000       2.610977        71.0483 
 385   0.0000       2.617901        71.2367 
 386   0.0000       2.626602        71.4735 
 387   0.0000       2.644859        71.9703 
 388   0.0000       2.647190        72.0337 
 389   0.0000       2.666981        72.5722 
 390   0.0000       2.675900        72.8149 
 391   0.0000       2.697173        73.3938 
 392   0.0000       2.710159        73.7472 
 393   0.0000       2.712339        73.8065 
 394   0.0000       2.725419        74.1624 
 395   0.0000       2.734686        74.4146 
 396   0.0000       2.738932        74.5301 
 397   0.0000       2.748059        74.7785 
 398   0.0000       2.756864        75.0181 
 399   0.0000       2.763858        75.2084 
 400   0.0000       2.771834        75.4254 
 401   0.0000       2.778277        75.6008 
 402   0.0000       2.787422        75.8496 
 403   0.0000       2.795382        76.0662 
 404   0.0000       2.807527        76.3967 
 405   0.0000       2.833081        77.0921 
 406   0.0000       2.835451        77.1565 
 407   0.0000       2.842038        77.3358 
 408   0.0000       2.844136        77.3929 
 409   0.0000       2.852775        77.6280 
 410   0.0000       2.871951        78.1498 
 411   0.0000       2.880403        78.3798 
 412   0.0000       2.901628        78.9573 
 413   0.0000       2.904489        79.0352 
 414   0.0000       2.917363        79.3855 
 415   0.0000       2.930496        79.7429 
 416   0.0000       2.932694        79.8027 
 417   0.0000       2.942796        80.0775 
 418   0.0000       2.945968        80.1639 
 419   0.0000       2.957725        80.4838 
 420   0.0000       2.961608        80.5895 
 421   0.0000       2.972352        80.8818 
 422   0.0000       2.981127        81.1206 
 423   0.0000       2.994333        81.4799 
 424   0.0000       3.009717        81.8986 
 425   0.0000       3.013961        82.0141 
 426   0.0000       3.017774        82.1178 
 427   0.0000       3.024912        82.3120 
 428   0.0000       3.030699        82.4695 
 429   0.0000       3.037056        82.6425 
 430   0.0000       3.044176        82.8362 
 431   0.0000       3.055506        83.1446 
 432   0.0000       3.064596        83.3919 
 433   0.0000       3.071951        83.5920 
 434   0.0000       3.079322        83.7926 
 435   0.0000       3.086903        83.9989 
 436   0.0000       3.090104        84.0860 
 437   0.0000       3.096388        84.2570 
 438   0.0000       3.101946        84.4082 
 439   0.0000       3.108003        84.5731 
 440   0.0000       3.113913        84.7339 
 441   0.0000       3.118359        84.8549 
 442   0.0000       3.119727        84.8921 
 443   0.0000       3.132579        85.2418 
 444   0.0000       3.143540        85.5401 
 445   0.0000       3.149402        85.6996 
 446   0.0000       3.154988        85.8516 
 447   0.0000       3.160730        86.0078 
 448   0.0000       3.173880        86.3657 
 449   0.0000       3.177722        86.4702 
 450   0.0000       3.190451        86.8166 
 451   0.0000       3.203048        87.1594 
 452   0.0000       3.207736        87.2869 
 453   0.0000       3.226019        87.7845 
 454   0.0000       3.229313        87.8741 
 455   0.0000       3.233334        87.9835 
 456   0.0000       3.240902        88.1894 
 457   0.0000       3.258308        88.6631 
 458   0.0000       3.261157        88.7406 
 459   0.0000       3.263757        88.8113 
 460   0.0000       3.276343        89.1538 
 461   0.0000       3.281213        89.2863 
 462   0.0000       3.290217        89.5313 
 463   0.0000       3.300316        89.8062 
 464   0.0000       3.300949        89.8234 
 465   0.0000       3.306699        89.9798 
 466   0.0000       3.308876        90.0391 
 467   0.0000       3.318212        90.2931 
 468   0.0000       3.321294        90.3770 
 469   0.0000       3.327487        90.5455 
 470   0.0000       3.336434        90.7890 
 471   0.0000       3.341749        90.9336 
 472   0.0000       3.345711        91.0414 
 473   0.0000       3.352790        91.2341 
 474   0.0000       3.362335        91.4938 
 475   0.0000       3.370286        91.7101 
 476   0.0000       3.372252        91.7636 
 477   0.0000       3.379745        91.9675 
 478   0.0000       3.386480        92.1508 
 479   0.0000       3.391452        92.2861 
 480   0.0000       3.396993        92.4369 
 481   0.0000       3.400008        92.5189 
 482   0.0000       3.401975        92.5724 
 483   0.0000       3.408473        92.7493 
 484   0.0000       3.417221        92.9873 
 485   0.0000       3.421379        93.1005 
 486   0.0000       3.429851        93.3310 
 487   0.0000       3.434969        93.4703 
 488   0.0000       3.438177        93.5575 
 489   0.0000       3.442597        93.6778 
 490   0.0000       3.446214        93.7763 
 491   0.0000       3.455806        94.0373 
 492   0.0000       3.460230        94.1577 
 493   0.0000       3.465668        94.3056 
 494   0.0000       3.468357        94.3788 
 495   0.0000       3.482045        94.7513 
 496   0.0000       3.491548        95.0099 
 497   0.0000       3.500077        95.2419 
 498   0.0000       3.507375        95.4405 
 499   0.0000       3.511570        95.5547 
 500   0.0000       3.517339        95.7117 
 501   0.0000       3.520926        95.8093 
 502   0.0000       3.528178        96.0066 
 503   0.0000       3.542549        96.3977 
 504   0.0000       3.550226        96.6066 
 505   0.0000       3.553112        96.6851 
 506   0.0000       3.560450        96.8848 
 507   0.0000       3.564529        96.9958 
 508   0.0000       3.571930        97.1972 
 509   0.0000       3.574153        97.2576 
 510   0.0000       3.583074        97.5004 
 511   0.0000       3.593914        97.7954 
 512   0.0000       3.610831        98.2557 
 513   0.0000       3.614279        98.3495 
 514   0.0000       3.615839        98.3920 
 515   0.0000       3.625356        98.6510 
 516   0.0000       3.629044        98.7513 
 517   0.0000       3.633316        98.8676 
 518   0.0000       3.634857        98.9095 
 519   0.0000       3.644075        99.1603 
 520   0.0000       3.650031        99.3224 
 521   0.0000       3.653978        99.4298 
 522   0.0000       3.663827        99.6978 
 523   0.0000       3.668210        99.8171 
 524   0.0000       3.671959        99.9191 
 525   0.0000       3.674914        99.9995 
 526   0.0000       3.684817       100.2690 
 527   0.0000       3.699058       100.6565 
 528   0.0000       3.702453       100.7489 
 529   0.0000       3.708301       100.9080 
 530   0.0000       3.716022       101.1181 
 531   0.0000       3.722421       101.2922 
 532   0.0000       3.733486       101.5933 
 533   0.0000       3.737177       101.6938 
 534   0.0000       3.746598       101.9501 
 535   0.0000       3.750237       102.0491 
 536   0.0000       3.757183       102.2382 
 537   0.0000       3.759432       102.2993 
 538   0.0000       3.768782       102.5538 
 539   0.0000       3.775084       102.7253 
 540   0.0000       3.783010       102.9409 
 541   0.0000       3.787772       103.0705 
 542   0.0000       3.792348       103.1950 
 543   0.0000       3.799001       103.3761 
 544   0.0000       3.802428       103.4693 
 545   0.0000       3.809715       103.6676 
 546   0.0000       3.820776       103.9686 
 547   0.0000       3.837144       104.4140 
 548   0.0000       3.845545       104.6426 
 549   0.0000       3.851131       104.7946 
 550   0.0000       3.863053       105.1190 
 551   0.0000       3.864057       105.1463 
 552   0.0000       3.874393       105.4276 
 553   0.0000       3.883175       105.6666 
 554   0.0000       3.885208       105.7219 
 555   0.0000       3.899446       106.1093 
 556   0.0000       3.908890       106.3663 
 557   0.0000       3.911405       106.4347 
 558   0.0000       3.922369       106.7331 
 559   0.0000       3.929392       106.9242 
 560   0.0000       3.944899       107.3462 
 561   0.0000       3.957090       107.6779 
 562   0.0000       3.960378       107.7674 
 563   0.0000       3.967229       107.9538 
 564   0.0000       3.980976       108.3279 
 565   0.0000       3.998445       108.8032 
 566   0.0000       4.000047       108.8468 
 567   0.0000       4.009387       109.1010 
 568   0.0000       4.012214       109.1779 
 569   0.0000       4.023645       109.4889 
 570   0.0000       4.030194       109.6672 
 571   0.0000       4.037825       109.8748 
 572   0.0000       4.045414       110.0813 
 573   0.0000       4.051863       110.2568 
 574   0.0000       4.059202       110.4565 
 575   0.0000       4.067935       110.6941 
 576   0.0000       4.076874       110.9374 
 577   0.0000       4.083714       111.1235 
 578   0.0000       4.087720       111.2325 
 579   0.0000       4.103104       111.6511 
 580   0.0000       4.109701       111.8306 
 581   0.0000       4.115025       111.9755 
 582   0.0000       4.129745       112.3761 
 583   0.0000       4.138587       112.6167 
 584   0.0000       4.143159       112.7411 
 585   0.0000       4.157643       113.1352 
 586   0.0000       4.160719       113.2189 
 587   0.0000       4.164092       113.3107 
 588   0.0000       4.167791       113.4114 
 589   0.0000       4.176078       113.6369 
 590   0.0000       4.180531       113.7580 
 591   0.0000       4.183521       113.8394 
 592   0.0000       4.194987       114.1514 
 593   0.0000       4.196730       114.1988 
 594   0.0000       4.199921       114.2857 
 595   0.0000       4.211702       114.6062 
 596   0.0000       4.220957       114.8581 
 597   0.0000       4.223940       114.9393 
 598   0.0000       4.229676       115.0953 
 599   0.0000       4.242881       115.4547 
 600   0.0000       4.249352       115.6308 
 601   0.0000       4.253886       115.7541 
 602   0.0000       4.266214       116.0896 
 603   0.0000       4.273069       116.2761 
 604   0.0000       4.287867       116.6788 
 605   0.0000       4.298181       116.9595 
 606   0.0000       4.303302       117.0988 
 607   0.0000       4.317336       117.4807 
 608   0.0000       4.330456       117.8377 
 609   0.0000       4.331390       117.8631 
 610   0.0000       4.335690       117.9801 
 611   0.0000       4.343060       118.1807 
 612   0.0000       4.344594       118.2224 
 613   0.0000       4.358176       118.5920 
 614   0.0000       4.360012       118.6420 
 615   0.0000       4.376364       119.0869 
 616   0.0000       4.383708       119.2868 
 617   0.0000       4.385378       119.3322 
 618   0.0000       4.398939       119.7012 
 619   0.0000       4.407340       119.9298 
 620   0.0000       4.411277       120.0369 
 621   0.0000       4.422839       120.3516 
 622   0.0000       4.428381       120.5024 
 623   0.0000       4.441108       120.8487 
 624   0.0000       4.447530       121.0234 
 625   0.0000       4.455844       121.2497 
 626   0.0000       4.458478       121.3213 
 627   0.0000       4.472071       121.6912 
 628   0.0000       4.483613       122.0053 
 629   0.0000       4.488116       122.1278 
 630   0.0000       4.492774       122.2546 
 631   0.0000       4.508205       122.6745 
 632   0.0000       4.513240       122.8115 
 633   0.0000       4.518149       122.9451 
 634   0.0000       4.538023       123.4859 
 635   0.0000       4.543698       123.6403 
 636   0.0000       4.554676       123.9390 
 637   0.0000       4.570710       124.3753 
 638   0.0000       4.572711       124.4298 
 639   0.0000       4.577221       124.5525 
 640   0.0000       4.589212       124.8788 
 641   0.0000       4.599349       125.1546 
 642   0.0000       4.604316       125.2898 
 643   0.0000       4.609384       125.4277 
 644   0.0000       4.618183       125.6671 
 645   0.0000       4.626845       125.9028 
 646   0.0000       4.631372       126.0260 
 647   0.0000       4.638196       126.2117 
 648   0.0000       4.647489       126.4646 
 649   0.0000       4.658561       126.7659 
 650   0.0000       4.662689       126.8782 
 651   0.0000       4.674415       127.1973 
 652   0.0000       4.684566       127.4735 
 653   0.0000       4.695252       127.7643 
 654   0.0000       4.698537       127.8537 
 655   0.0000       4.708263       128.1184 
 656   0.0000       4.717433       128.3679 
 657   0.0000       4.726208       128.6067 
 658   0.0000       4.744830       129.1134 
 659   0.0000       4.751450       129.2935 
 660   0.0000       4.763591       129.6239 
 661   0.0000       4.772782       129.8740 
 662   0.0000       4.797491       130.5464 
 663   0.0000       4.810189       130.8919 
 664   0.0000       4.828428       131.3882 
 665   0.0000       4.833011       131.5129 
 666   0.0000       4.835744       131.5873 
 667   0.0000       4.864144       132.3601 
 668   0.0000       4.872032       132.5747 
 669   0.0000       4.890557       133.0788 
 670   0.0000       4.898618       133.2982 
 671   0.0000       4.925455       134.0284 
 672   0.0000       4.948162       134.6463 
 673   0.0000       4.953229       134.7842 
 674   0.0000       4.968666       135.2043 
 675   0.0000       4.986153       135.6801 
 676   0.0000       5.015330       136.4741 
 677   0.0000       5.018634       136.5640 
 678   0.0000       5.046825       137.3311 
 679   0.0000       5.048814       137.3852 
 680   0.0000       5.061700       137.7359 
 681   0.0000       5.080439       138.2458 
 682   0.0000       5.092035       138.5613 
 683   0.0000       5.098339       138.7329 
 684   0.0000       5.115811       139.2083 
 685   0.0000       5.123505       139.4177 
 686   0.0000       5.126589       139.5016 
 687   0.0000       5.138819       139.8344 
 688   0.0000       5.144289       139.9832 
 689   0.0000       5.160081       140.4130 
 690   0.0000       5.174265       140.7989 
 691   0.0000       5.176890       140.8703 
 692   0.0000       5.191255       141.2612 
 693   0.0000       5.192743       141.3017 
 694   0.0000       5.196433       141.4021 
 695   0.0000       5.206354       141.6721 
 696   0.0000       5.212257       141.8327 
 697   0.0000       5.227461       142.2465 
 698   0.0000       5.229166       142.2928 
 699   0.0000       5.243730       142.6892 
 700   0.0000       5.265592       143.2840 
 701   0.0000       5.285750       143.8326 
 702   0.0000       5.288687       143.9125 
 703   0.0000       5.322426       144.8306 
 704   0.0000       5.325509       144.9145 
 705   0.0000       5.337816       145.2493 
 706   0.0000       5.353977       145.6891 
 707   0.0000       5.356988       145.7711 
 708   0.0000       5.372022       146.1802 
 709   0.0000       5.377813       146.3377 
 710   0.0000       5.390842       146.6923 
 711   0.0000       5.397245       146.8665 
 712   0.0000       5.415754       147.3701 
 713   0.0000       5.449427       148.2865 
 714   0.0000       5.471931       148.8988 
 715   0.0000       5.481050       149.1470 
 716   0.0000       5.498156       149.6124 
 717   0.0000       5.502599       149.7333 
 718   0.0000       5.511053       149.9634 
 719   0.0000       5.519809       150.2016 
 720   0.0000       5.538274       150.7041 
 721   0.0000       5.545380       150.8975 
 722   0.0000       5.562839       151.3725 
 723   0.0000       5.570536       151.5820 
 724   0.0000       5.582338       151.9032 
 725   0.0000       5.614126       152.7681 
 726   0.0000       5.621665       152.9733 
 727   0.0000       5.635801       153.3580 
 728   0.0000       5.649694       153.7360 
 729   0.0000       5.653558       153.8411 
 730   0.0000       5.662414       154.0821 
 731   0.0000       5.668894       154.2584 
 732   0.0000       5.671558       154.3309 
 733   0.0000       5.680516       154.5747 
 734   0.0000       5.703495       155.2000 
 735   0.0000       5.713647       155.4763 
 736   0.0000       5.720010       155.6494 
 737   0.0000       5.736201       156.0900 
 738   0.0000       5.751670       156.5109 
 739   0.0000       5.767253       156.9349 
 740   0.0000       5.769512       156.9964 
 741   0.0000       5.783122       157.3667 
 742   0.0000       5.796939       157.7427 
 743   0.0000       5.812091       158.1550 
 744   0.0000       5.826289       158.5414 
 745   0.0000       5.850215       159.1924 
 746   0.0000       5.854932       159.3208 
 747   0.0000       5.874620       159.8565 
 748   0.0000       5.904623       160.6730 
 749   0.0000       5.925636       161.2448 
 750   0.0000       5.931917       161.4157 
 751   0.0000       5.963265       162.2687 
 752   0.0000       5.977954       162.6684 
 753   0.0000       5.993625       163.0948 
 754   0.0000       6.013718       163.6416 
 755   0.0000       6.028721       164.0498 
 756   0.0000       6.046729       164.5399 
 757   0.0000       6.058714       164.8660 
 758   0.0000       6.080251       165.4520 
 759   0.0000       6.087096       165.6383 
 760   0.0000       6.106045       166.1539 
 761   0.0000       6.156292       167.5212 
 762   0.0000       6.210829       169.0053 
 763   0.0000       6.233004       169.6087 
 764   0.0000       6.250514       170.0851 
 765   0.0000       6.284925       171.0215 
 766   0.0000       6.291008       171.1870 
 767   0.0000       6.319420       171.9602 
 768   0.0000       6.339621       172.5099 
 769   0.0000       6.345359       172.6660 
 770   0.0000       6.358901       173.0345 
 771   0.0000       6.371634       173.3810 
 772   0.0000       6.398228       174.1046 
 773   0.0000       6.426561       174.8756 
 774   0.0000       6.455853       175.6727 
 775   0.0000       6.468085       176.0056 
 776   0.0000       6.505495       177.0235 
 777   0.0000       6.549747       178.2277 
 778   0.0000       6.598961       179.5668 
 779   0.0000       6.624286       180.2560 
 780   0.0000       6.658416       181.1847 
 781   0.0000       6.692169       182.1032 
 782   0.0000       6.754081       183.7879 
 783   0.0000       6.783176       184.5796 
 784   0.0000       6.825316       185.7263 
 785   0.0000       6.873372       187.0340 
 786   0.0000       6.902882       187.8370 
 787   0.0000       6.918244       188.2550 
 788   0.0000       6.944839       188.9787 
 789   0.0000       7.037189       191.4916 
 790   0.0000       7.047024       191.7593 
 791   0.0000       7.060104       192.1152 
 792   0.0000       7.076401       192.5587 
 793   0.0000       7.098559       193.1616 
 794   0.0000       7.231421       196.7770 
 795   0.0000       7.251249       197.3165 
 796   0.0000       7.277534       198.0318 
 797   0.0000       7.292757       198.4460 
 798   0.0000       7.339415       199.7156 
 799   0.0000       7.381286       200.8550 
 800   0.0000       7.404644       201.4906 
 801   0.0000       7.558873       205.6874 
 802   0.0000       7.578191       206.2131 
 803   0.0000       7.604944       206.9410 
 804   0.0000       7.715853       209.9590 
 805   0.0000       7.811530       212.5625 
 806   0.0000       7.819883       212.7898 
 807   0.0000       7.871171       214.1855 
 808   0.0000       7.927894       215.7290 
 809   0.0000       9.402115       255.8446 
 810   0.0000       9.570280       260.4206 
 811   0.0000      10.678605       290.5796 
 812   0.0000      11.289991       307.2163 
 813   0.0000      12.020863       327.1043 
 814   0.0000      12.613951       343.2431 
 815   0.0000      12.901230       351.0603 
 816   0.0000      13.047557       355.0421 
 817   0.0000      13.166693       358.2839 
 818   0.0000      13.351690       363.3180 
 819   0.0000      13.471257       366.5715 
 820   0.0000      13.600329       370.0838 
 821   0.0000      13.659518       371.6944 
 822   0.0000      13.861979       377.2036 
 823   0.0000      14.012435       381.2978 
 824   0.0000      14.109517       383.9395 
 825   0.0000      14.467561       393.6824 
 826   0.0000      14.612857       397.6361 
 827   0.0000      15.990670       435.1283 

                    ********************************
                    * MULLIKEN POPULATION ANALYSIS *
                    ********************************

-----------------------
MULLIKEN ATOMIC CHARGES
-----------------------
   0 C :   -0.255733
   1 C :    0.022584
   2 O :   -0.362777
   3 C :    0.441334
   4 O :   -0.382287
   5 C :   -0.274734
   6 C :    0.184757
   7 C :   -0.266948
   8 N :   -0.127748
   9 C :    0.209665
  10 S :   -0.438275
  11 N :   -0.211252
  12 C :    0.051816
  13 C :   -0.026009
  14 C :   -0.154053
  15 C :   -0.136907
  16 C :   -0.270775
  17 C :    0.299593
  18 O :   -0.356555
  19 C :   -0.206215
  20 H :    0.085050
  21 H :    0.094988
  22 H :    0.106161
  23 H :    0.088996
  24 H :    0.117329
  25 H :    0.123860
  26 H :    0.137415
  27 H :    0.094212
  28 H :    0.199848
  29 H :    0.200472
  30 H :    0.151639
  31 H :    0.154021
  32 H :    0.164041
  33 H :    0.134694
  34 H :    0.242111
  35 H :    0.165681
Sum of atomic charges:   -0.0000000

--------------------------------
MULLIKEN REDUCED ORBITAL CHARGES
--------------------------------
  0 C s       :     3.259646  s :     3.259646
      pz      :     0.982480  p :     2.919146
      px      :     0.980006
      py      :     0.956659
      dz2     :     0.017975  d :     0.072453
      dxz     :     0.013613
      dyz     :     0.015083
      dx2y2   :     0.010343
      dxy     :     0.015440
      f0      :     0.000559  f :     0.004488
      f+1     :     0.000345
      f-1     :     0.000816
      f+2     :     0.000485
      f-2     :     0.001062
      f+3     :     0.000673
      f-3     :     0.000546
  1 C s       :     3.160907  s :     3.160907
      pz      :     0.962934  p :     2.643569
      px      :     0.719268
      py      :     0.961367
      dz2     :     0.037292  d :     0.161025
      dxz     :     0.032534
      dyz     :     0.023855
      dx2y2   :     0.026365
      dxy     :     0.040980
      f0      :     0.000953  f :     0.011914
      f+1     :     0.002548
      f-1     :     0.001306
      f+2     :     0.001803
      f-2     :     0.001946
      f+3     :     0.001800
      f-3     :     0.001558
  2 O s       :     3.722340  s :     3.722340
      pz      :     1.750984  p :     4.604275
      px      :     1.504364
      py      :     1.348926
      dz2     :     0.005059  d :     0.033881
      dxz     :     0.005450
      dyz     :     0.003920
      dx2y2   :     0.014024
      dxy     :     0.005427
      f0      :     0.000356  f :     0.002282
      f+1     :     0.000196
      f-1     :     0.000379
      f+2     :     0.000362
      f-2     :     0.000242
      f+3     :     0.000225
      f-3     :     0.000522
  3 C s       :     3.040680  s :     3.040680
      pz      :     0.839139  p :     2.204718
      px      :     0.656503
      py      :     0.709075
      dz2     :     0.073768  d :     0.286716
      dxz     :     0.051128
      dyz     :     0.083535
      dx2y2   :     0.036560
      dxy     :     0.041724
      f0      :     0.005971  f :     0.026552
      f+1     :     0.003447
      f-1     :     0.005673
      f+2     :     0.004196
      f-2     :     0.002399
      f+3     :     0.002862
      f-3     :     0.002004
  4 O s       :     3.767006  s :     3.767006
      pz      :     1.403913  p :     4.577419
      px      :     1.423351
      py      :     1.750155
      dz2     :     0.012463  d :     0.035416
      dxz     :     0.010695
      dyz     :     0.009289
      dx2y2   :     0.001028
      dxy     :     0.001942
      f0      :     0.000670  f :     0.002446
      f+1     :     0.000465
      f-1     :     0.000775
      f+2     :     0.000201
      f-2     :     0.000294
      f+3     :     0.000015
      f-3     :     0.000025
  5 C s       :     3.193602  s :     3.193602
      pz      :     0.976844  p :     2.989564
      px      :     1.142920
      py      :     0.869800
      dz2     :     0.010944  d :     0.081534
      dxz     :     0.008916
      dyz     :     0.030241
      dx2y2   :     0.009203
      dxy     :     0.022229
      f0      :     0.000837  f :     0.010035
      f+1     :     0.001210
      f-1     :     0.001862
      f+2     :     0.002088
      f-2     :     0.001087
      f+3     :     0.001661
      f-3     :     0.001289
  6 C s       :     3.182860  s :     3.182860
      pz      :     0.801531  p :     2.439044
      px      :     0.803142
      py      :     0.834371
      dz2     :     0.034108  d :     0.178853
      dxz     :     0.018778
      dyz     :     0.046670
      dx2y2   :     0.020763
      dxy     :     0.058535
      f0      :     0.001942  f :     0.014486
      f+1     :     0.001365
      f-1     :     0.002384
      f+2     :     0.002727
      f-2     :     0.002050
      f+3     :     0.002582
      f-3     :     0.001436
  7 C s       :     3.266979  s :     3.266979
      pz      :     0.956406  p :     2.926431
      px      :     1.013141
      py      :     0.956884
      dz2     :     0.013703  d :     0.068880
      dxz     :     0.014911
      dyz     :     0.013979
      dx2y2   :     0.015687
      dxy     :     0.010600
      f0      :     0.000322  f :     0.004658
      f+1     :     0.000984
      f-1     :     0.000519
      f+2     :     0.000871
      f-2     :     0.000945
      f+3     :     0.000284
      f-3     :     0.000733
  8 N s       :     3.345657  s :     3.345657
      pz      :     1.278878  p :     3.718030
      px      :     1.360374
      py      :     1.078779
      dz2     :     0.012458  d :     0.059109
      dxz     :     0.010751
      dyz     :     0.012015
      dx2y2   :     0.014364
      dxy     :     0.009521
      f0      :     0.000563  f :     0.004952
      f+1     :     0.001071
      f-1     :     0.000477
      f+2     :     0.000947
      f-2     :     0.001040
      f+3     :     0.000360
      f-3     :     0.000493
  9 C s       :     3.157061  s :     3.157061
      pz      :     0.771295  p :     2.353490
      px      :     0.753138
      py      :     0.829057
      dz2     :     0.056301  d :     0.262180
      dxz     :     0.029448
      dyz     :     0.058240
      dx2y2   :     0.063752
      dxy     :     0.054439
      f0      :     0.002271  f :     0.017604
      f+1     :     0.002430
      f-1     :     0.002226
      f+2     :     0.003545
      f-2     :     0.001727
      f+3     :     0.002820
      f-3     :     0.002585
 10 S s       :     5.855679  s :     5.855679
      pz      :     3.417712  p :    10.487565
      px      :     3.509135
      py      :     3.560718
      dz2     :     0.012818  d :     0.084908
      dxz     :     0.015965
      dyz     :     0.027689
      dx2y2   :     0.005982
      dxy     :     0.022453
      f0      :     0.001062  f :     0.010123
      f+1     :     0.000928
      f-1     :     0.001804
      f+2     :     0.001023
      f-2     :     0.003310
      f+3     :     0.001006
      f-3     :     0.000989
 11 N s       :     3.386228  s :     3.386228
      pz      :     1.388789  p :     3.762849
      px      :     1.363525
      py      :     1.010536
      dz2     :     0.006324  d :     0.057733
      dxz     :     0.008231
      dyz     :     0.014756
      dx2y2   :     0.012738
      dxy     :     0.015684
      f0      :     0.000465  f :     0.004441
      f+1     :     0.000488
      f-1     :     0.000593
      f+2     :     0.000689
      f-2     :     0.000668
      f+3     :     0.000768
      f-3     :     0.000770
 12 C s       :     3.130200  s :     3.130200
      pz      :     0.851127  p :     2.621456
      px      :     0.910826
      py      :     0.859504
      dz2     :     0.031366  d :     0.185126
      dxz     :     0.038084
      dyz     :     0.041357
      dx2y2   :     0.027768
      dxy     :     0.046551
      f0      :     0.001107  f :     0.011403
      f+1     :     0.001360
      f-1     :     0.001724
      f+2     :     0.001887
      f-2     :     0.002819
      f+3     :     0.001191
      f-3     :     0.001314
 13 C s       :     3.140888  s :     3.140888
      pz      :     0.892104  p :     2.762431
      px      :     0.940228
      py      :     0.930098
      dz2     :     0.019130  d :     0.111350
      dxz     :     0.011016
      dyz     :     0.031578
      dx2y2   :     0.023567
      dxy     :     0.026059
      f0      :     0.001110  f :     0.011340
      f+1     :     0.001637
      f-1     :     0.001092
[...]
      f-1     :     0.005493
      f+2     :     0.006687
      f-2     :     0.005538
      f+3     :     0.006180
      f-3     :     0.009120
 15 C s       :     2.705634  s :     2.705634
      pz      :     0.903645  p :     2.795035
      px      :     0.924673
      py      :     0.966718
      dz2     :     0.097923  d :     0.416300
      dxz     :     0.068258
      dyz     :     0.061854
      dx2y2   :     0.098333
      dxy     :     0.089933
      f0      :     0.003290  f :     0.041056
      f+1     :     0.005427
      f-1     :     0.006367
      f+2     :     0.007040
      f-2     :     0.006597
      f+3     :     0.006355
      f-3     :     0.005980
 16 C s       :     2.701769  s :     2.701769
      pz      :     0.938803  p :     2.867225
      px      :     0.958886
      py      :     0.969536
      dz2     :     0.047676  d :     0.390246
      dxz     :     0.056055
      dyz     :     0.091139
      dx2y2   :     0.091701
      dxy     :     0.103675
      f0      :     0.004676  f :     0.040262
      f+1     :     0.004958
      f-1     :     0.003530
      f+2     :     0.005697
      f-2     :     0.005910
      f+3     :     0.007737
      f-3     :     0.007755
 17 C s       :     2.701299  s :     2.701299
      pz      :     0.841585  p :     2.682123
      px      :     0.818338
      py      :     1.022200
      dz2     :     0.131971  d :     0.709093
      dxz     :     0.111737
      dyz     :     0.142395
      dx2y2   :     0.162880
      dxy     :     0.160108
      f0      :     0.010581  f :     0.099285
      f+1     :     0.016198
      f-1     :     0.009372
      f+2     :     0.015429
      f-2     :     0.016071
      f+3     :     0.014364
      f-3     :     0.017271
 18 O s       :     3.177239  s :     3.177239
      pz      :     1.412827  p :     4.345582
      px      :     1.440993
      py      :     1.491763
      dz2     :     0.008952  d :     0.075488
      dxz     :     0.017785
      dyz     :     0.019203
      dx2y2   :     0.016474
      dxy     :     0.013074
      f0      :     0.000627  f :     0.005059
      f+1     :     0.000755
      f-1     :     0.000384
      f+2     :     0.000855
      f-2     :     0.000972
      f+3     :     0.000624
      f-3     :     0.000842
 19 C s       :     2.695019  s :     2.695019
      pz      :     0.932146  p :     2.841193
      px      :     0.945254
      py      :     0.963793
      dz2     :     0.079124  d :     0.388176
      dxz     :     0.066162
      dyz     :     0.066781
      dx2y2   :     0.086315
      dxy     :     0.089794
      f0      :     0.003364  f :     0.040870
      f+1     :     0.005612
      f-1     :     0.005957
      f+2     :     0.007083
      f-2     :     0.007182
      f+3     :     0.006127
      f-3     :     0.005547
 20 H s       :     0.850122  s :     0.850122
      pz      :     0.044201  p :     0.151136
      px      :     0.063407
      py      :     0.043527
      dz2     :     0.004560  d :     0.027421
      dxz     :     0.006444
      dyz     :     0.002628
      dx2y2   :     0.006362
      dxy     :     0.007427
 21 H s       :     0.848709  s :     0.848709
      pz      :     0.039632  p :     0.150208
      px      :     0.051147
      py      :     0.059430
      dz2     :     0.002270  d :     0.027501
      dxz     :     0.003686
      dyz     :     0.005893
      dx2y2   :     0.008850
      dxy     :     0.006800
 22 H s       :     0.846257  s :     0.846257
      pz      :     0.068326  p :     0.149948
      px      :     0.039387
      py      :     0.042235
      dz2     :     0.009067  d :     0.027489
      dxz     :     0.007744
      dyz     :     0.007438
      dx2y2   :     0.001167
      dxy     :     0.002072
 23 H s       :     0.858778  s :     0.858778
      pz      :     0.038434  p :     0.146746
      px      :     0.048121
      py      :     0.060190
      dz2     :     0.002527  d :     0.027090
      dxz     :     0.003763
      dyz     :     0.006160
      dx2y2   :     0.006899
      dxy     :     0.007742
 24 H s       :     0.848660  s :     0.848660
      pz      :     0.076359  p :     0.154321
      px      :     0.030856
      py      :     0.047106
      dz2     :     0.009969  d :     0.027641
      dxz     :     0.005635
      dyz     :     0.008648
      dx2y2   :     0.001389
      dxy     :     0.002000
 25 H s       :     0.829176  s :     0.829176
      pz      :     0.040702  p :     0.149473
      px      :     0.065960
      py      :     0.042811
      dz2     :     0.002714  d :     0.027748
      dxz     :     0.007858
      dyz     :     0.002026
      dx2y2   :     0.008197
      dxy     :     0.006953
 26 H s       :     0.824299  s :     0.824299
      pz      :     0.065872  p :     0.151910
      px      :     0.048118
      py      :     0.037921
      dz2     :     0.008757  d :     0.027722
      dxz     :     0.007214
      dyz     :     0.006786
      dx2y2   :     0.002535
      dxy     :     0.002431
 27 H s       :     0.844669  s :     0.844669
      pz      :     0.040347  p :     0.150557
      px      :     0.041359
      py      :     0.068851
      dz2     :     0.003465  d :     0.027705
      dxz     :     0.001442
      dyz     :     0.007671
      dx2y2   :     0.006562
      dxy     :     0.008565
 28 H s       :     0.741311  s :     0.741311
      pz      :     0.062172  p :     0.253160
      px      :     0.069815
      py      :     0.121173
      dz2     :     0.005454  d :     0.061731
      dxz     :     0.000484
      dyz     :     0.019303
      dx2y2   :     0.015938
      dxy     :     0.020552
 29 H s       :     0.748261  s :     0.748261
      pz      :     0.107063  p :     0.254037
      px      :     0.099442
      py      :     0.047532
      dz2     :     0.018757  d :     0.061423
      dxz     :     0.013755
      dyz     :     0.009598
      dx2y2   :     0.010528
      dxy     :     0.008785
 30 H s       :     0.828213  s :     0.828213
      pz      :     0.049949  p :     0.153886
      px      :     0.058957
      py      :     0.044980
      dz2     :     0.005186  d :     0.029388
      dxz     :     0.007335
      dyz     :     0.004738
      dx2y2   :     0.005785
      dxy     :     0.006344
 31 H s       :     0.842497  s :     0.842497
      pz      :     0.055880  p :     0.157029
      px      :     0.065572
      py      :     0.035577
      dz2     :     0.005591  d :     0.027446
      dxz     :     0.007091
      dyz     :     0.003563
      dx2y2   :     0.005515
      dxy     :     0.005686
 32 H s       :     0.841533  s :     0.841533
      pz      :     0.036379  p :     0.150998
      px      :     0.041312
      py      :     0.073307
      dz2     :     0.002620  d :     0.026410
      dxz     :     0.001081
      dyz     :     0.006915
      dx2y2   :     0.007874
      dxy     :     0.007920
 33 H s       :     0.847301  s :     0.847301
      pz      :     0.057268  p :     0.158544
      px      :     0.046280
      py      :     0.054996
      dz2     :     0.006116  d :     0.027701
      dxz     :     0.004409
      dyz     :     0.006450
      dx2y2   :     0.005545
      dxy     :     0.005181
 34 H s       :     0.705654  s :     0.705654
      pz      :     0.111589  p :     0.347181
      px      :     0.084359
      py      :     0.151232
      dz2     :     0.023223  d :     0.099381
      dxz     :     0.011370
      dyz     :     0.024721
      dx2y2   :     0.019898
      dxy     :     0.020169
 35 H s       :     0.837944  s :     0.837944
      pz      :     0.038620  p :     0.156597
      px      :     0.043361
      py      :     0.074616
      dz2     :     0.002643  d :     0.027906
      dxz     :     0.001131
      dyz     :     0.007650
      dx2y2   :     0.008232
      dxy     :     0.008250


                      *****************************
                      * MAYER POPULATION ANALYSIS *
                      *****************************

  NA   - Mulliken gross atomic population
  ZA   - Total nuclear charge
  QA   - Mulliken gross atomic charge
  VA   - Mayer's total valence
  BVA  - Mayer's bonded valence
  FA   - Mayer's free valence

  ATOM       NA         ZA         QA         VA         BVA        FA
  0 C      6.2557     6.0000    -0.2557     3.9129     3.9129    -0.0000
  1 C      5.9774     6.0000     0.0226     3.8617     3.8617    -0.0000
  2 O      8.3628     8.0000    -0.3628     1.9895     1.9895     0.0000
  3 C      5.5587     6.0000     0.4413     4.2991     4.2991     0.0000
  4 O      8.3823     8.0000    -0.3823     2.1223     2.1223    -0.0000
  5 C      6.2747     6.0000    -0.2747     3.6055     3.6055    -0.0000
  6 C      5.8152     6.0000     0.1848     3.8356     3.8356    -0.0000
  7 C      6.2669     6.0000    -0.2669     3.9047     3.9047    -0.0000
  8 N      7.1277     7.0000    -0.1277     3.3076     3.3076    -0.0000
  9 C      5.7903     6.0000     0.2097     4.1553     4.1553    -0.0000
 10 S     16.4383    16.0000    -0.4383     1.7590     1.7590    -0.0000
 11 N      7.2113     7.0000    -0.2113     3.2364     3.2364     0.0000
 12 C      5.9482     6.0000     0.0518     3.9427     3.9427    -0.0000
 13 C      6.0260     6.0000    -0.0260     3.7661     3.7661     0.0000
 14 C      6.1541     6.0000    -0.1541     3.8283     3.8283     0.0000
 15 C      6.1369     6.0000    -0.1369     3.8083     3.8083     0.0000
 16 C      6.2708     6.0000    -0.2708     3.7872     3.7872    -0.0000
 17 C      5.7004     6.0000     0.2996     3.8779     3.8779    -0.0000
 18 O      8.3566     8.0000    -0.3566     2.1193     2.1193     0.0000
 19 C      6.2062     6.0000    -0.2062     3.8258     3.8258    -0.0000
 20 H      0.9149     1.0000     0.0851     0.9816     0.9816    -0.0000
 21 H      0.9050     1.0000     0.0950     0.9855     0.9855     0.0000
 22 H      0.8938     1.0000     0.1062     0.9880     0.9880    -0.0000
 23 H      0.9110     1.0000     0.0890     0.9784     0.9784     0.0000
 24 H      0.8827     1.0000     0.1173     0.9575     0.9575    -0.0000
 25 H      0.8761     1.0000     0.1239     0.9810     0.9810    -0.0000
 26 H      0.8626     1.0000     0.1374     0.9786     0.9786     0.0000
 27 H      0.9058     1.0000     0.0942     0.9845     0.9845    -0.0000
 28 H      0.8002     1.0000     0.1998     1.0202     1.0202    -0.0000
 29 H      0.7995     1.0000     0.2005     1.0154     1.0154    -0.0000
 30 H      0.8484     1.0000     0.1516     0.9838     0.9838    -0.0000
 31 H      0.8460     1.0000     0.1540     0.9853     0.9853     0.0000
 32 H      0.8360     1.0000     0.1640     0.9766     0.9766    -0.0000
 33 H      0.8653     1.0000     0.1347     0.9905     0.9905    -0.0000
 34 H      0.7579     1.0000     0.2421     1.0095     1.0095     0.0000
 35 H      0.8343     1.0000     0.1657     0.9896     0.9896    -0.0000

  Mayer bond orders larger than 0.100000
B(  0-C ,  1-C ) :   0.9876 B(  0-C , 20-H ) :   0.9769 B(  0-C , 21-H ) :   0.9793 
B(  0-C , 22-H ) :   0.9787 B(  1-C ,  2-O ) :   0.8790 B(  1-C , 23-H ) :   0.9719 
B(  1-C , 24-H ) :   0.9691 B(  2-O ,  3-C ) :   1.1181 B(  3-C ,  4-O ) :   2.0735 
B(  3-C ,  5-C ) :   1.0346 B(  5-C ,  6-C ) :   1.6275 B(  5-C , 12-C ) :   0.9617 
B(  6-C ,  7-C ) :   0.9651 B(  6-C ,  8-N ) :   1.1547 B(  7-C , 25-H ) :   0.9681 
B(  7-C , 26-H ) :   0.9540 B(  7-C , 27-H ) :   0.9873 B(  8-N ,  9-C ) :   1.1872 
B(  8-N , 28-H ) :   0.9472 B(  9-C , 10-S ) :   1.6104 B(  9-C , 11-N ) :   1.3056 
B( 11-N , 12-C ) :   0.9651 B( 11-N , 29-H ) :   0.9485 B( 12-C , 13-C ) :   0.9668 
B( 12-C , 30-H ) :   1.0055 B( 13-C , 14-C ) :   1.3534 B( 13-C , 19-C ) :   1.3737 
B( 14-C , 15-C ) :   1.3961 B( 14-C , 31-H ) :   0.9717 B( 15-C , 16-C ) :   1.3596 
B( 15-C , 32-H ) :   0.9703 B( 16-C , 17-C ) :   1.3292 B( 16-C , 33-H ) :   0.9837 
B( 17-C , 18-O ) :   1.1084 B( 17-C , 19-C ) :   1.3696 B( 18-O , 34-H ) :   0.9784 
B( 19-C , 35-H ) :   0.9599 

-------
TIMINGS
-------

Total SCF time: 0 days 1 hours 33 min 29 sec 

Total time                  ....    5609.520 sec
Sum of individual times     ....    5599.015 sec  ( 99.8%)

Fock matrix formation       ....    5573.064 sec  ( 99.4%)
Diagonalization             ....       5.854 sec  (  0.1%)
Density matrix formation    ....       0.205 sec  (  0.0%)
Population analysis         ....       0.876 sec  (  0.0%)
Initial guess               ....       4.906 sec  (  0.1%)
Orbital Transformation      ....       0.000 sec  (  0.0%)
Orbital Orthonormalization  ....       0.000 sec  (  0.0%)
DIIS solution               ....       8.009 sec  (  0.1%)
SOSCF solution              ....       4.970 sec  (  0.1%)

------------------------------------------------------------------------------
                                ORCA  MP2 
------------------------------------------------------------------------------

Freezing NCore=48 chemical core electrons

-------------
RI-MP2 ENERGY
-------------
Dimension of the basis                    ...  828
Memory devoted to MP2                     ...  256 MB   
Data format for buffers                   ... DOUBLE
Compression type for matrix containers    ... UNCOMPRESSED
Overall scaling of the MP2 energy         ...   1.000e+00
Calculating two index integrals           ... done (    0.032 sec)
Cholesky decomposition of V**-1           ... done (    2.023 sec)

-----------------
RI-TRANSFORMATION (AUX index driven)
-----------------

Dimension of the orbital-basis         ... 828
Dimension of the aux-basis             ... 2141
Transformation of internal/external MOs...   24-  76 to   77- 827
Number Format for Storage              ... Double (8 Byte)
Integral mode                          ... Direct

First Phase: integral generation and transformation of MO indices
  Aux angular momentum 0               ... done (   12.202 sec)
  Aux angular momentum 1               ... done (   21.535 sec)
  Aux angular momentum 2               ... done (   27.622 sec)
  Aux angular momentum 3               ... done (   22.351 sec)
  Aux angular momentum 4               ... done (    7.577 sec)
Closing buffer VIA ( 0.63 GB; CompressionRatio= 1.00)
  Phase 1 completed in    91.490 sec
Second Phase: sorting and transformation of aux index

IA-Transformation
Memory available                       ... 167 MB 
Max. # MO pairs treated in a batch     ... 12    
# of internal orbitals                 ... 53
# batches for internal orbitals        ... 5
Closing buffer IAV ( 0.63 GB; CompressionRatio= 1.00)
(ia|v) transformation done in    95.627 sec

  Phase 2 completed in    95.679 sec
RI-Integral transformation completed in   187.232 sec
Opening buffers                              ... done

Starting loop over batches of integrals:

Operator 0  - window                       ... ( 24- 76)x( 77-827)
Operator 0  - Memory available             ...   256 MB
Operator 0  - Memory needed per MO         ...  12.3 MB
Operator 0  - Number of orbitals per batch ... 13
Operator 0  - Number of batches            ... 5

OPERATOR  0   PASS   0:  MOs    24 ...   36
  Reading integrals       ... ok
  Internal MO  26
  Internal MO  29
  Internal MO  32
  Internal MO  35
OPERATOR  0   PASS   1:  MOs    37 ...   49
  Reading integrals       ... ok
  Internal MO  38
  Internal MO  41
  Internal MO  44
  Internal MO  47
OPERATOR  0   PASS   2:  MOs    50 ...   62
  Reading integrals       ... ok
  Internal MO  50
  Internal MO  53
  Internal MO  56
  Internal MO  59
  Internal MO  62
OPERATOR  0   PASS   3:  MOs    63 ...   75
  Reading integrals       ... ok
  Internal MO  65
  Internal MO  68
  Internal MO  71
  Internal MO  74
OPERATOR  0   PASS   4:  MOs    76 ...   76
  Reading integrals       ... ok
Time spent in pair loops =   548.294 sec
Deleting buffer (Ka|jb)[aa] ...done

-----------------------------------------------
 RI-MP2 CORRELATION ENERGY:     -3.532393853 Eh
-----------------------------------------------


-------
TIMINGS
-------

Total time                :  738.083 sec
Integral trafo            :  187.253 sec ( 25.4%)
I/O of integrals          :    6.959 sec (  0.9%)
K(i,j) Operators          :  476.059 sec ( 64.5%)
T(i,j) pair energies      :    3.637 sec (  0.5%)
V-calculation             :    0.032 sec (  0.0%)
V**(-1/2)                 :    2.023 sec (  0.3%)
Gamma(ia|P)               :    0.000 sec (  0.0%)
Gamma-Trafo               :    0.000 sec (  0.0%)
D(virtual)                :    0.000 sec (  0.0%)
D(internal)               :    0.000 sec (  0.0%)
W(virtual)                :    0.000 sec (  0.0%)
W(internal)               :    0.000 sec (  0.0%)
L(virtual)                :    0.000 sec (  0.0%)
L(internal)               :    0.000 sec (  0.0%)
G(D)                      :    0.000 sec (  0.0%)
G(Z)                      :    0.000 sec (  0.0%)
Z-Vector Solution         :    0.000 sec (  0.0%)
3-Index Derivative        :    0.000 sec (  0.0%)
2-Index Derivative        :    0.000 sec (  0.0%)
Separable Gradient        :    0.000 sec (  0.0%)


---------------------------------------
MP2 TOTAL ENERGY:    -1274.323540616 Eh
---------------------------------------

-------------------------   --------------------
FINAL SINGLE POINT ENERGY     -1274.323540616272
-------------------------   --------------------


                            ***************************************
                            *     ORCA property calculations      *
                            ***************************************


  WARNING: The energy has been calculated at the MP2 level but the densities
           used in the property calculations are still SCF densities
           MP2 response densities have not been calculated 
           use %mp2 Density relaxed end
           or  %mp2 Density unrelaxed end

                                    ---------------------
                                    Active property flags
                                    ---------------------
   (+) Dipole Moment


------------------------------------------------------------------------------
                       ORCA ELECTRIC PROPERTIES CALCULATION
------------------------------------------------------------------------------

Dipole Moment Calculation                       ... on
Quadrupole Moment Calculation                   ... off
Polarizability Calculation                      ... off
GBWName                                         ... CONFS/Conf828.orca.gbw
Electron density file                           ... CONFS/Conf828.orca.scfp
The origin for moment calculation is the CENTER OF MASS  = (31.915127, 33.060108 33.313318)

-------------
DIPOLE MOMENT
-------------
                                X             Y             Z
Electronic contribution:     10.02617      10.10116       6.91197
Nuclear contribution   :    -11.24518     -11.58773      -6.50984
                        -----------------------------------------
Total Dipole Moment    :     -1.21901      -1.48657       0.40213
                        -----------------------------------------
Magnitude (a.u.)       :      1.96407
Magnitude (Debye)      :      4.99227



--------------------
Rotational spectrum 
--------------------
 
Rotational constants in cm-1:     0.012096     0.008683     0.005974 
Rotational constants in MHz :   362.622750   260.302057   179.100616 

 Dipole components along the rotational axes: 
x,y,z [a.u.] :    -1.893601    -0.212895     0.475949 
x,y,z [Debye]:    -4.813150    -0.541137     1.209766 

 

Timings for individual modules:

Sum of individual times         ...     6353.001 sec (= 105.883 min)
GTO integral calculation        ...        3.197 sec (=   0.053 min)   0.1 %
SCF iterations                  ...     5610.942 sec (=  93.516 min)  88.3 %
MP2 module                      ...      738.862 sec (=  12.314 min)  11.6 %
                             ****ORCA TERMINATED NORMALLY****
TOTAL RUN TIME: 0 days 1 hours 45 minutes 53 seconds 922 msec
