
                                 *****************
                                 * O   R   C   A *
                                 *****************

           --- An Ab Initio, DFT and Semiempirical electronic structure package ---

                  #######################################################
                  #                        -***-                        #
                  #          Department of theory and spectroscopy      #
                  #               Directorship: Frank Neese             #
                  #        Max Planck Institute fuer Kohlenforschung    #
                  #                Kaiser Wilhelm Platz 1               #
                  #                 D-45470 Muelheim/Ruhr               #
                  #                      Germany                        #
                  #                                                     #
                  #                  All rights reserved                #
                  #                        -***-                        #
                  #######################################################


                         Program Version 4.2.0 -  RELEASE  -


 With contributions from (in alphabetic order):
   Daniel Aravena         : Magnetic Suceptibility
   Michael Atanasov       : Ab Initio Ligand Field Theory (pilot matlab implementation)
   Alexander A. Auer      : GIAO ZORA, VPT2
   Ute Becker             : Parallelization
   Giovanni Bistoni       : ED, misc. LED, open-shell LED, HFLED
   Martin Brehm           : Molecular dynamics
   Dmytro Bykov           : SCF Hessian
   Vijay G. Chilkuri      : MRCI spin determinant printing, contributions to CSF-ICE
   Dipayan Datta          : RHF DLPNO-CCSD density
   Achintya Kumar Dutta   : EOM-CC, STEOM-CC
   Dmitry Ganyushin       : Spin-Orbit,Spin-Spin,Magnetic field MRCI
   Miquel Garcia          : C-PCM Hessian, Gaussian charge scheme
   Yang Guo               : DLPNO-NEVPT2, CIM, IAO-localization
   Andreas Hansen         : Spin unrestricted coupled pair/coupled cluster methods
   Benjamin Helmich-Paris : CASSCF linear response (MC-RPA)
   Lee Huntington         : MR-EOM, pCC
   Robert Izsak           : Overlap fitted RIJCOSX, COSX-SCS-MP3, EOM
   Christian Kollmar      : KDIIS, OOCD, Brueckner-CCSD(T), CCSD density
   Simone Kossmann        : Meta GGA functionals, TD-DFT gradient, OOMP2, MP2 Hessian
   Martin Krupicka        : AUTO-CI
   Lucas Lang             : DCDCAS
   Dagmar Lenk            : GEPOL surface, SMD
   Dimitrios Liakos       : Extrapolation schemes; Compound Job, initial MDCI parallelization
   Dimitrios Manganas     : Further ROCIS development; embedding schemes
   Dimitrios Pantazis     : SARC Basis sets
   Taras Petrenko         : DFT Hessian,TD-DFT gradient, ASA, ECA, R-Raman, ABS, FL, XAS/XES, NRVS
   Peter Pinski           : DLPNO-MP2, DLPNO-MP2 Gradient
   Christoph Reimann      : Effective Core Potentials
   Marius Retegan         : Local ZFS, SOC
   Christoph Riplinger    : Optimizer, TS searches, QM/MM, DLPNO-CCSD(T), (RO)-DLPNO pert. Triples
   Tobias Risthaus        : Range-separated hybrids, TD-DFT gradient, RPA, STAB
   Michael Roemelt        : Original ROCIS implementation
   Masaaki Saitow         : Open-shell DLPNO-CCSD energy and density
   Barbara Sandhoefer     : DKH picture change effects
   Avijit Sen             : IP-ROCIS
   Kantharuban Sivalingam : CASSCF convergence, NEVPT2, FIC-MRCI
   Bernardo de Souza      : ESD, SOC TD-DFT
   Georgi Stoychev        : AutoAux, RI-MP2 NMR
   Willem Van den Heuvel  : Paramagnetic NMR
   Boris Wezisla          : Elementary symmetry handling
   Frank Wennmohs         : Technical directorship


 We gratefully acknowledge several colleagues who have allowed us to
 interface, adapt or use parts of their codes:
   Stefan Grimme, W. Hujo, H. Kruse,             : VdW corrections, initial TS optimization,
                  C. Bannwarth                     DFT functionals, gCP, sTDA/sTD-DF
   Ed Valeev, F. Pavosevic, A. Kumar             : LibInt (2-el integral package), F12 methods
   Garnet Chan, S. Sharma, J. Yang, R. Olivares  : DMRG
   Ulf Ekstrom                                   : XCFun DFT Library
   Mihaly Kallay                                 : mrcc  (arbitrary order and MRCC methods)
   Andreas Klamt, Michael Diedenhofen            : otool_cosmo (COSMO solvation model)
   Jiri Pittner, Ondrej Demel                    : Mk-CCSD
   Frank Weinhold                                : gennbo (NPA and NBO analysis)
   Christopher J. Cramer and Donald G. Truhlar   : smd solvation model
   Lars Goerigk                                  : TD-DFT with DH, B97 family of functionals
   V. Asgeirsson, H. Jonsson                     : NEB implementation
   FAccTs GmbH                                   : IRC, NEB, NEB-TS, Multilevel, MM, QM/MM, CI optimization
   S Lehtola, MJT Oliveira, MAL Marques          : LibXC Library


 Your calculation uses the libint2 library for the computation of 2-el integrals
 For citations please refer to: http://libint.valeyev.net

 Your ORCA version has been built with support for libXC version: 4.2.3
 For citations please refer to: https://tddft.org/programs/libxc/

 This ORCA versions uses:
   CBLAS   interface :  Fast vector & matrix operations
   LAPACKE interface :  Fast linear algebra routines
   SCALAPACK package :  Parallel linear algebra routines


----- Orbital basis set information -----
Your calculation utilizes the basis: cc-pVTZ 
       H, B-Ne : Obtained from the ccRepo (grant-hill.group.shef.ac.uk/ccrepo) Feb. 2017
                 T. H. Dunning, Jr., J. Chem. Phys. 90, 1007 (1989)
            He : Obtained from the ccRepo (grant-hill.group.shef.ac.uk/ccrepo) Feb. 2017
                 D. E. Woon, T. H. Dunning, Jr., J. Chem. Phys. 100, 2975 (1994)
  Li-Be, Na-Mg : Obtained from the ccRepo (grant-hill.group.shef.ac.uk/ccrepo) Feb. 2017
                 B. P. Prascher, D. E. Woon, K. A. Peterson, T. H. Dunning, Jr., A. K. Wilson, Theor. Chem. Acc. 128, 69 (2011)
         Al-Ar : Obtained from the ccRepo (grant-hill.group.shef.ac.uk/ccrepo) Feb. 2017
                 D. E. Woon, T. H. Dunning, Jr., J. Chem. Phys. 98, 1358 (1993)
            Ca : Obtained from the Peterson Research Group Website (tyr0.chem.wsu.edu/~kipeters) Feb. 2017
                 J. Koput, K. A. Peterson, J. Phys. Chem. 106, 9595 (2002)
         Sc-Zn : Obtained from the ccRepo (grant-hill.group.shef.ac.uk/ccrepo) Feb. 2017
                 N. B. Balabanov, K. A. Peterson, J. Chem. Phys. 123, 064107 (2005)
                 N. B. Balabanov, K. A. Peterson, J. Chem. Phys. 125, 074110 (2006)
         Ga-Kr : Obtained from the ccRepo (grant-hill.group.shef.ac.uk/ccrepo) Feb. 2017
                 A. K. Wilson, D. E. Woon, K. A. Peterson, T. H. Dunning, Jr., J. Chem. Phys. 110, 7667 (1999)
             Y : Obtained from the ccRepo (grant-hill.group.shef.ac.uk/ccrepo) Feb. 2017
                 K. A. Peterson, D. Figgen, M. Dolg, H. Stoll, J. Chem. Phys. 126, 124101 (2007)
        Ag, Au : Obtained from the Peterson Research Group Website (tyr0.chem.wsu.edu/~kipeters) Feb. 2017
                 K. A. Peterson, C. Puzzarini, Theor. Chem. Acc. 114, 283 (2005)

----- AuxC basis set information -----
Your calculation utilizes the auxiliary basis: cc-pVTZ/C 
  Obtained from the EMSL Basis Set Exchange (bse.pnl.gov) Feb. 2017
  H-He, B-F, Al-Ar, Ga-Kr : F. Weigend, A. Kohn, C. Hattig, J. Chem. Phys. 116, 3175 (2002)
             Li-Be, Na-Mg : C. Haettig, Phys. Chem. Chem. Phys. 7, 59 (2005)
                       Ne : C. Haettig, Phys. Chem. Chem. Phys. 7, 59 (2005)
                            F. Weigend, A. Kohn, C. Hattig, J. Chem. Phys. 116, 3175 (2002)
                    Sc-Zn : J. G. Hill, J. A. Platts, J. Chem. Phys. 128, 044104 (2008)

================================================================================
                                        WARNINGS
                       Please study these warnings very carefully!
================================================================================


WARNING: No MP2 level density has been requested!
         To caclulate MP2 level properties use
         %mp2 Density relaxed end
         or
         %mp2 Density unrelaxed end

WARNING: Post HF methods need fully converged wavefunctions
  ===> : Setting SCFConvForced true
         You can overwrite this default with %scf ConvForced false 


INFO   : the flag for use of LIBINT has been found!

================================================================================
                                       INPUT FILE
================================================================================
NAME = CONFS/Conf928.orca
|  1> ! ri-mp2 cc-pvtz cc-pvtz/c TightSCF NoKeepInts
|  2> 
|  3> %scf
|  4>   MaxCore 4096
|  5> end
|  6> *xyz  0  1
|  7>     C       15.5388423   13.9497029   15.0553690
|  8>     C       14.9659921   15.3711725   15.1818981
|  9>     O       16.0142055   16.2118570   15.6896276
| 10>     C       15.8705340   17.5685054   15.6212017
| 11>     O       15.0852099   18.0975091   14.8527375
| 12>     C       16.7142672   18.2923862   16.6363020
| 13>     C       16.8988004   19.6353344   16.5557179
| 14>     C       16.1406523   20.6134173   15.6820733
| 15>     N       17.8814838   20.2739080   17.3156824
| 16>     C       18.8463459   19.6242353   18.0367528
| 17>     S       20.0406721   20.4415383   18.8376020
| 18>     N       18.7847871   18.2538051   18.0431449
| 19>     C       17.7025850   17.4429008   17.4537734
| 20>     C       17.0413644   16.5212129   18.4703649
| 21>     C       17.2445089   15.1300226   18.4143130
| 22>     C       16.6332277   14.2812415   19.3524160
| 23>     C       15.8160347   14.8291134   20.3561989
| 24>     C       15.6165217   16.2154346   20.4166990
| 25>     O       14.8291824   16.7469236   21.3855443
| 26>     C       16.2258240   17.0574809   19.4811583
| 27>     H       15.8577892   13.5740832   16.0354931
| 28>     H       16.4033726   13.9395224   14.3800348
| 29>     H       14.7816410   13.2647418   14.6549391
| 30>     H       14.6396095   15.7134731   14.1901060
| 31>     H       14.1023170   15.3831394   15.8598534
| 32>     H       15.0589088   20.5113227   15.8375053
| 33>     H       16.3391720   20.4185300   14.6204570
| 34>     H       16.4009172   21.6596328   15.8812741
| 35>     H       17.9512432   21.2788544   17.3013171
| 36>     H       19.4909612   17.8032350   18.6112327
| 37>     H       18.2739737   16.8601444   16.7173385
| 38>     H       17.8715339   14.7058039   17.6346361
| 39>     H       16.7933441   13.2057997   19.2999853
| 40>     H       15.3421194   14.1779809   21.0833078
| 41>     H       14.5236033   16.0175877   21.9454531
| 42>     H       16.0654528   18.1284466   19.5464894
| 43> *
| 44> 
| 45>                          ****END OF INPUT****
================================================================================

                       ****************************
                       * Single Point Calculation *
                       ****************************

---------------------------------
CARTESIAN COORDINATES (ANGSTROEM)
---------------------------------
  C     15.538842   13.949703   15.055369
  C     14.965992   15.371172   15.181898
  O     16.014205   16.211857   15.689628
  C     15.870534   17.568505   15.621202
  O     15.085210   18.097509   14.852737
  C     16.714267   18.292386   16.636302
  C     16.898800   19.635334   16.555718
  C     16.140652   20.613417   15.682073
  N     17.881484   20.273908   17.315682
  C     18.846346   19.624235   18.036753
  S     20.040672   20.441538   18.837602
  N     18.784787   18.253805   18.043145
  C     17.702585   17.442901   17.453773
  C     17.041364   16.521213   18.470365
  C     17.244509   15.130023   18.414313
  C     16.633228   14.281242   19.352416
  C     15.816035   14.829113   20.356199
  C     15.616522   16.215435   20.416699
  O     14.829182   16.746924   21.385544
  C     16.225824   17.057481   19.481158
  H     15.857789   13.574083   16.035493
  H     16.403373   13.939522   14.380035
  H     14.781641   13.264742   14.654939
  H     14.639610   15.713473   14.190106
  H     14.102317   15.383139   15.859853
  H     15.058909   20.511323   15.837505
  H     16.339172   20.418530   14.620457
  H     16.400917   21.659633   15.881274
  H     17.951243   21.278854   17.301317
  H     19.490961   17.803235   18.611233
  H     18.273974   16.860144   16.717339
  H     17.871534   14.705804   17.634636
  H     16.793344   13.205800   19.299985
  H     15.342119   14.177981   21.083308
  H     14.523603   16.017588   21.945453
  H     16.065453   18.128447   19.546489

----------------------------
CARTESIAN COORDINATES (A.U.)
----------------------------
  NO LB      ZA    FRAG     MASS         X           Y           Z
   0 C     6.0000    0    12.011   29.364156   26.361118   28.450524
   1 C     6.0000    0    12.011   28.281626   29.047306   28.689630
   2 O     8.0000    0    15.999   30.262463   30.635970   29.649099
   3 C     6.0000    0    12.011   29.990963   33.199664   29.519793
   4 O     8.0000    0    15.999   28.506915   34.199336   28.067606
   5 C     6.0000    0    12.011   31.585388   34.567600   31.438055
   6 C     6.0000    0    12.011   31.934105   37.105405   31.285773
   7 C     6.0000    0    12.011   30.501412   38.953713   29.634824
   8 N     7.0000    0    14.007   33.791107   38.312134   32.721898
   9 C     6.0000    0    12.011   35.614432   37.084430   34.084523
  10 S    16.0000    0    32.060   37.871382   38.628909   35.597909
  11 N     7.0000    0    14.007   35.498103   34.494693   34.096602
  12 C     6.0000    0    12.011   33.453038   32.962305   32.982852
  13 C     6.0000    0    12.011   32.203512   31.220568   34.903931
  14 C     6.0000    0    12.011   32.587399   28.591599   34.798009
  15 C     6.0000    0    12.011   31.432245   26.987635   36.570766
  16 C     6.0000    0    12.011   29.887974   28.022963   38.467641
  17 C     6.0000    0    12.011   29.510949   30.642731   38.581970
  18 O     8.0000    0    15.999   28.023094   31.647099   40.412822
  19 C     6.0000    0    12.011   30.662364   32.233967   36.814054
  20 H     1.0000    0     1.008   29.966879   25.651300   30.302690
  21 H     1.0000    0     1.008   30.997882   26.341880   27.174328
  22 H     1.0000    0     1.008   27.933253   25.066729   27.693821
  23 H     1.0000    0     1.008   27.664853   29.694161   26.815414
  24 H     1.0000    0     1.008   26.649517   29.069921   29.970779
  25 H     1.0000    0     1.008   28.457214   38.760783   29.928548
  26 H     1.0000    0     1.008   30.876560   38.585430   27.628660
  27 H     1.0000    0     1.008   30.993242   40.930774   30.011259
  28 H     1.0000    0     1.008   33.922933   40.211207   32.694751
  29 H     1.0000    0     1.008   36.832579   33.643238   35.170133
  30 H     1.0000    0     1.008   34.532806   31.861055   31.591191
  31 H     1.0000    0     1.008   33.772305   27.789942   33.324633
  32 H     1.0000    0     1.008   31.734821   24.955345   36.471687
  33 H     1.0000    0     1.008   28.992404   26.792501   39.841678
  34 H     1.0000    0     1.008   27.445633   30.268854   41.470896
  35 H     1.0000    0     1.008   30.359306   34.257799   36.937512

--------------------------------
INTERNAL COORDINATES (ANGSTROEM)
--------------------------------
 C      0   0   0     0.000000000000     0.00000000     0.00000000
 C      1   0   0     1.537772020981     0.00000000     0.00000000
 O      2   1   0     1.436416028054   107.35204029     0.00000000
 C      3   2   1     1.365949664126   119.13168773   165.70790623
 O      4   3   2     1.219473691121   122.01525271   340.20500767
 C      4   3   2     1.505429421943   112.63410844   156.86775200
 C      6   4   3     1.357960296532   120.77566776   167.42241538
 C      7   6   4     1.514823286035   127.21085525    12.37860791
 N      7   6   4     1.396778059862   121.02677223   193.03902176
 C      9   7   6     1.368567137885   124.44708585     9.73928759
 S     10   9   7     1.654012910154   121.97938891   175.97957290
 N     10   9   7     1.371826985400   116.42623126   357.02298922
 C     12  10   9     1.475156240544   125.46504363   353.71790204
 C     13  12  10     1.523213558482   112.60888883   237.49728812
 C     14  13  12     1.407060749999   120.59791901   251.06683769
 C     15  14  13     1.405037828601   120.52237806   180.03423136
 C     16  15  14     1.405541934056   119.62360032   359.80839431
 C     17  16  15     1.401910185725   119.93536206   359.94967188
 O     18  17  16     1.356851114079   120.04948570   180.06631691
 C     18  17  16     1.398401825473   120.30303347     0.08096344
 H      1   2   3     1.097023489014   110.56660601    61.06652969
 H      1   2   3     1.097083663121   110.65760730   300.79526536
 H      1   2   3     1.096754130172   110.49671784   180.88541045
 H      2   1   3     1.098793370914   108.92603901   119.91024697
 H      2   1   3     1.098044295033   110.72506963   239.36452619
 H      8   7   6     1.097611686238   110.58047802    53.17364912
 H      8   7   6     1.097460841860   110.65264802   294.32140756
 H      8   7   6     1.096351061172   113.11314857   173.51731241
 H      9   7   6     1.007467122345   119.80097626   185.18684943
 H     12  10   9     1.012135871824   114.58363166   182.08200688
 H     13  12  10     1.099284508290   100.23848132   119.93878715
 H     15  14  13     1.086746485823   119.85684064   359.47596513
 H     16  15  14     1.088559279524   120.04411630   179.81631843
 H     17  16  15     1.085014560543   119.90832405   180.03076453
 H     19  18  17     0.968920691132   107.50425891     1.69211662
 H     20  18  17     1.084875386850   119.32296383   180.37272609

---------------------------
INTERNAL COORDINATES (A.U.)
---------------------------
 C      0   0   0     0.000000000000     0.00000000     0.00000000
 C      1   0   0     2.905967976060     0.00000000     0.00000000
 O      2   1   0     2.714432907397   107.35204029     0.00000000
 C      3   2   1     2.581270777920   119.13168773   165.70790623
 O      4   3   2     2.304471303741   122.01525271   340.20500767
 C      4   3   2     2.844849321419   112.63410844   156.86775200
 C      6   4   3     2.566173061185   120.77566776   167.42241538
 C      7   6   4     2.862601151894   127.21085525    12.37860791
 N      7   6   4     2.639528003010   121.02677223   193.03902176
 C      9   7   6     2.586217086486   124.44708585     9.73928759
 S     10   9   7     3.125631422161   121.97938891   175.97957290
 N     10   9   7     2.592377305529   116.42623126   357.02298922
 C     12  10   9     2.787641299373   125.46504363   353.71790204
 C     13  12  10     2.878456469006   112.60888883   237.49728812
 C     14  13  12     2.658959471288   120.59791901   251.06683769
 C     15  14  13     2.655136703855   120.52237806   180.03423136
 C     16  15  14     2.656089325109   119.62360032   359.80839431
 C     17  16  15     2.649226315374   119.93536206   359.94967188
 O     18  17  16     2.564077010115   120.04948570   180.06631691
 C     18  17  16     2.642596475319   120.30303347     0.08096344
 H      1   2   3     2.073073956715   110.56660601    61.06652969
 H      1   2   3     2.073187669299   110.65760730   300.79526536
 H      1   2   3     2.072564942272   110.49671784   180.88541045
 H      2   1   3     2.076418548796   108.92603901   119.91024697
 H      2   1   3     2.075003000526   110.72506963   239.36452619
 H      8   7   6     2.074185488381   110.58047802    53.17364912
 H      8   7   6     2.073900433817   110.65264802   294.32140756
 H      8   7   6     2.071803252249   113.11314857   173.51731241
 H      9   7   6     1.903836950161   119.80097626   185.18684943
 H     12  10   9     1.912659608066   114.58363166   182.08200688
 H     13  12  10     2.077346663931   100.23848132   119.93878715
 H     15  14  13     2.053653235207   119.85684064   359.47596513
 H     16  15  14     2.057078918840   120.04411630   179.81631843
 H     17  16  15     2.050380370743   119.90832405   180.03076453
 H     19  18  17     1.830994751729   107.50425891     1.69211662
 H     20  18  17     2.050117370579   119.32296383   180.37272609

---------------------
BASIS SET INFORMATION
---------------------
There are 5 groups of distinct atoms

 Group   1 Type C   : 18s5p2d1f contracted to 4s3p2d1f pattern {8811/311/11/1}
 Group   2 Type O   : 18s5p2d1f contracted to 4s3p2d1f pattern {8811/311/11/1}
 Group   3 Type N   : 18s5p2d1f contracted to 4s3p2d1f pattern {8811/311/11/1}
 Group   4 Type S   : 41s16p2d1f contracted to 5s4p2d1f pattern {13131311/7711/11/1}
 Group   5 Type H   : 5s2p1d contracted to 3s2p1d pattern {311/11/1}

Atom   0C    basis set group =>   1
Atom   1C    basis set group =>   1
Atom   2O    basis set group =>   2
Atom   3C    basis set group =>   1
Atom   4O    basis set group =>   2
Atom   5C    basis set group =>   1
Atom   6C    basis set group =>   1
Atom   7C    basis set group =>   1
Atom   8N    basis set group =>   3
Atom   9C    basis set group =>   1
Atom  10S    basis set group =>   4
Atom  11N    basis set group =>   3
Atom  12C    basis set group =>   1
Atom  13C    basis set group =>   1
Atom  14C    basis set group =>   1
Atom  15C    basis set group =>   1
Atom  16C    basis set group =>   1
Atom  17C    basis set group =>   1
Atom  18O    basis set group =>   2
Atom  19C    basis set group =>   1
Atom  20H    basis set group =>   5
Atom  21H    basis set group =>   5
Atom  22H    basis set group =>   5
Atom  23H    basis set group =>   5
Atom  24H    basis set group =>   5
Atom  25H    basis set group =>   5
Atom  26H    basis set group =>   5
Atom  27H    basis set group =>   5
Atom  28H    basis set group =>   5
Atom  29H    basis set group =>   5
Atom  30H    basis set group =>   5
Atom  31H    basis set group =>   5
Atom  32H    basis set group =>   5
Atom  33H    basis set group =>   5
Atom  34H    basis set group =>   5
Atom  35H    basis set group =>   5
---------------------------------
AUXILIARY/C BASIS SET INFORMATION
---------------------------------
There are 5 groups of distinct atoms

 Group   1 Type C   : 8s6p5d3f1g contracted to 8s6p5d3f1g pattern {11111111/111111/11111/111/1}
 Group   2 Type O   : 8s6p5d3f1g contracted to 8s6p5d3f1g pattern {11111111/111111/11111/111/1}
 Group   3 Type N   : 8s6p5d3f1g contracted to 8s6p5d3f1g pattern {11111111/111111/11111/111/1}
 Group   4 Type S   : 10s8p7d5f2g contracted to 10s8p7d5f2g pattern {1111111111/11111111/1111111/11111/11}
 Group   5 Type H   : 4s3p2d1f contracted to 4s3p2d1f pattern {1111/111/11/1}

Atom   0C    basis set group =>   1
Atom   1C    basis set group =>   1
Atom   2O    basis set group =>   2
Atom   3C    basis set group =>   1
Atom   4O    basis set group =>   2
Atom   5C    basis set group =>   1
Atom   6C    basis set group =>   1
Atom   7C    basis set group =>   1
Atom   8N    basis set group =>   3
Atom   9C    basis set group =>   1
Atom  10S    basis set group =>   4
Atom  11N    basis set group =>   3
Atom  12C    basis set group =>   1
Atom  13C    basis set group =>   1
Atom  14C    basis set group =>   1
Atom  15C    basis set group =>   1
Atom  16C    basis set group =>   1
Atom  17C    basis set group =>   1
Atom  18O    basis set group =>   2
Atom  19C    basis set group =>   1
Atom  20H    basis set group =>   5
Atom  21H    basis set group =>   5
Atom  22H    basis set group =>   5
Atom  23H    basis set group =>   5
Atom  24H    basis set group =>   5
Atom  25H    basis set group =>   5
Atom  26H    basis set group =>   5
Atom  27H    basis set group =>   5
Atom  28H    basis set group =>   5
Atom  29H    basis set group =>   5
Atom  30H    basis set group =>   5
Atom  31H    basis set group =>   5
Atom  32H    basis set group =>   5
Atom  33H    basis set group =>   5
Atom  34H    basis set group =>   5
Atom  35H    basis set group =>   5
------------------------------------------------------------------------------
                           ORCA GTO INTEGRAL CALCULATION
------------------------------------------------------------------------------

                         BASIS SET STATISTICS AND STARTUP INFO

 # of primitive gaussian shells          ...  682
 # of primitive gaussian functions       ... 1312
 # of contracted shells                  ...  298
 # of contracted basis functions         ...  828
 Highest angular momentum                ...    3
 Maximum contraction depth               ...   13
 Integral package used                   ... LIBINT
 Integral threshhold            Thresh   ...  2.500e-11
 Primitive cut-off              TCut     ...  2.500e-12


------------------------------ INTEGRAL EVALUATION ----------------------------


 * One electron integrals 
 Pre-screening matrix                    ... done
 Shell pair data                         ... done (   0.014 sec)

-------------------------------------------------------------------------------
                                 ORCA SCF
-------------------------------------------------------------------------------

------------
SCF SETTINGS
------------
Hamiltonian:
 Ab initio Hamiltonian  Method          .... Hartree-Fock(GTOs)


General Settings:
 Integral files         IntName         .... CONFS/Conf928.orca
 Hartree-Fock type      HFTyp           .... RHF
 Total Charge           Charge          ....    0
 Multiplicity           Mult            ....    1
 Number of Electrons    NEL             ....  154
 Basis Dimension        Dim             ....  828
 Nuclear Repulsion      ENuc            ....   1689.0545836371 Eh

Convergence Acceleration:
 DIIS                   CNVDIIS         .... on
   Start iteration      DIISMaxIt       ....    12
   Startup error        DIISStart       ....  0.200000
   # of expansion vecs  DIISMaxEq       ....     5
   Bias factor          DIISBfac        ....   1.050
   Max. coefficient     DIISMaxC        ....  10.000
 Newton-Raphson         CNVNR           .... off
 SOSCF                  CNVSOSCF        .... on
   Start iteration      SOSCFMaxIt      ....   150
   Startup grad/error   SOSCFStart      ....  0.003300
 Level Shifting         CNVShift        .... on
   Level shift para.    LevelShift      ....    0.2500
   Turn off err/grad.   ShiftErr        ....    0.0010
 Zerner damping         CNVZerner       .... off
 Static damping         CNVDamp         .... on
   Fraction old density DampFac         ....    0.7000
   Max. Damping (<1)    DampMax         ....    0.9800
   Min. Damping (>=0)   DampMin         ....    0.0000
   Turn off err/grad.   DampErr         ....    0.1000
 Fernandez-Rico         CNVRico         .... off

SCF Procedure:
 Maximum # iterations   MaxIter         ....   125
 SCF integral mode      SCFMode         .... Direct
   Integral package                     .... LIBINT
 Reset frequency        DirectResetFreq ....    20
 Integral Threshold     Thresh          ....  2.500e-11 Eh
 Primitive CutOff       TCut            ....  2.500e-12 Eh

Convergence Tolerance:
 Convergence Check Mode ConvCheckMode   .... Total+1el-Energy
 Convergence forced     ConvForced      .... 1
 Energy Change          TolE            ....  1.000e-08 Eh
 1-El. energy change                    ....  1.000e-05 Eh
 Orbital Gradient       TolG            ....  1.000e-05
 Orbital Rotation angle TolX            ....  1.000e-05
 DIIS Error             TolErr          ....  5.000e-07


Diagonalization of the overlap matrix:
Smallest eigenvalue                        ... 3.483e-05
Time for diagonalization                   ...    0.125 sec
Threshold for overlap eigenvalues          ... 1.000e-08
Number of eigenvalues below threshold      ... 0
Time for construction of square roots      ...    0.356 sec
Total time needed                          ...    0.483 sec

-------------------
DFT GRID GENERATION
-------------------

General Integration Accuracy     IntAcc      ...  4.340
Radial Grid Type                 RadialGrid  ... Gauss-Chebyshev
Angular Grid (max. acc.)         AngularGrid ... Lebedev-110
Angular grid pruning method      GridPruning ... 3 (G Style)
Weight generation scheme         WeightScheme... Becke
Basis function cutoff            BFCut       ...    1.0000e-11
Integration weight cutoff        WCut        ...    1.0000e-14
Grids for H and He will be reduced by one unit

# of grid points (after initial pruning)     ...  46246 (   0.0 sec)
# of grid points (after weights+screening)   ...  41374 (   0.3 sec)
nearest neighbour list constructed           ...    0.0 sec
Grid point re-assignment to atoms done       ...    0.0 sec
Grid point division into batches done        ...    0.0 sec
Reduced shell lists constructed in    1.0 sec

Total number of grid points                  ...    41374
Total number of batches                      ...      667
Average number of points per batch           ...       62
Average number of grid points per atom       ...     1149
Average number of shells per batch           ...   146.00 (48.99%)
Average number of basis functions per batch  ...   370.69 (44.77%)
Average number of large shells per batch     ...    93.05 (63.73%)
Average number of large basis fcns per batch ...   239.64 (64.65%)
Maximum spatial batch extension              ...  19.18, 19.51, 20.05 au
Average spatial batch extension              ...   3.61,  3.29,  3.46 au

Time for grid setup =    1.350 sec

------------------------------
INITIAL GUESS: MODEL POTENTIAL
------------------------------
Loading Hartree-Fock densities                     ... done
Calculating cut-offs                               ... done
Setting up the integral package                    ... done
Initializing the effective Hamiltonian             ... done
Starting the Coulomb interaction                   ... done (   3.2 sec)
Reading the grid                                   ... done
Mapping shells                                     ... done
Starting the XC term evaluation                    ... done (   1.4 sec)
Transforming the Hamiltonian                       ... done (   0.1 sec)
Diagonalizing the Hamiltonian                      ... done (   0.1 sec)
Back transforming the eigenvectors                 ... done (   0.0 sec)
Now organizing SCF variables                       ... done
                      ------------------
                      INITIAL GUESS DONE (   6.6 sec)
                      ------------------
--------------
SCF ITERATIONS
--------------
ITER       Energy         Delta-E        Max-DP      RMS-DP      [F,P]     Damp
               ***  Starting incremental Fock matrix formation  ***
  0  -1270.0180157144   0.000000000000 0.04931669  0.00042567  0.3035237 0.7000
  1  -1270.2851811976  -0.267165483205 0.03607935  0.00034213  0.1781610 0.7000
                               ***Turning on DIIS***
  2  -1270.4518414118  -0.166660214204 0.02583489  0.00023156  0.1096636 0.7000
  3  -1272.5838313629  -2.131989951076 0.06312217  0.00050943  0.0829493 0.0000
  4  -1270.7617219001   1.822109462732 0.00697585  0.00009268  0.0071229 0.0000
  5  -1270.8190007552  -0.057278855083 0.00306823  0.00004855  0.0046649 0.0000
                      *** Initiating the SOSCF procedure ***
                           *** Shutting down DIIS ***
                      *** Re-Reading the Fockian *** 
                      *** Removing any level shift *** 
ITER      Energy       Delta-E        Grad      Rot      Max-DP    RMS-DP
  6  -1270.79922078   0.0197799764  0.001798  0.001798  0.001633  0.000025
               *** Restarting incremental Fock matrix formation ***
  7  -1270.81405243  -0.0148316499  0.000908  0.002305  0.001256  0.000014
  8  -1270.81409518  -0.0000427510  0.000432  0.002536  0.001375  0.000015
  9  -1270.81411098  -0.0000158045  0.000185  0.000349  0.000343  0.000004
 10  -1270.81411291  -0.0000019270  0.000051  0.000135  0.000113  0.000001
 11  -1270.81411310  -0.0000001891  0.000025  0.000120  0.000055  0.000001
 12  -1270.81411316  -0.0000000600  0.000010  0.000042  0.000033  0.000000
 13  -1270.81411316  -0.0000000019  0.000003  0.000013  0.000007  0.000000
                  ***Gradient check signals convergence***
              ***Rediagonalizing the Fockian in SOSCF/NRSCF***

               *****************************************************
               *                     SUCCESS                       *
               *           SCF CONVERGED AFTER  14 CYCLES          *
               *****************************************************


----------------
TOTAL SCF ENERGY
----------------

Total Energy       :        -1270.81411315 Eh          -34580.61006 eV

Components:
Nuclear Repulsion  :         1689.05458364 Eh           45961.51186 eV
Electronic Energy  :        -2959.86869679 Eh          -80542.12192 eV
One Electron Energy:        -5099.33588542 Eh         -138759.98386 eV
Two Electron Energy:         2139.46718863 Eh           58217.86194 eV

Virial components:
Potential Energy   :        -2539.77888274 Eh          -69110.89693 eV
Kinetic Energy     :         1268.96476959 Eh           34530.28687 eV
Virial Ratio       :            2.00145736


---------------
SCF CONVERGENCE
---------------

  Last Energy change         ...    1.3700e-08  Tolerance :   1.0000e-08
  Last MAX-Density change    ...    2.0139e-06  Tolerance :   1.0000e-07
  Last RMS-Density change    ...    2.7578e-08  Tolerance :   5.0000e-09
  Last Orbital Gradient      ...    1.4413e-06  Tolerance :   1.0000e-05
  Last Orbital Rotation      ...    3.1948e-06  Tolerance :   1.0000e-05

             **** THE GBW FILE WAS UPDATED (CONFS/Conf928.orca.gbw) ****
             **** DENSITY FILE WAS UPDATED (CONFS/Conf928.orca.scfp) ****
             **** ENERGY FILE WAS UPDATED (CONFS/Conf928.orca.en.tmp) ****
             **** THE GBW FILE WAS UPDATED (CONFS/Conf928.orca.gbw) ****
             **** DENSITY FILE WAS UPDATED (CONFS/Conf928.orca.scfp) ****
----------------
ORBITAL ENERGIES
----------------

  NO   OCC          E(Eh)            E(eV) 
   0   2.0000     -91.889073     -2500.4288 
   1   2.0000     -20.599581      -560.5431 
   2   2.0000     -20.596779      -560.4669 
   3   2.0000     -20.541380      -558.9594 
   4   2.0000     -15.629410      -425.2979 
   5   2.0000     -15.607229      -424.6943 
   6   2.0000     -11.393930      -310.0446 
   7   2.0000     -11.383723      -309.7669 
   8   2.0000     -11.337535      -308.5100 
   9   2.0000     -11.314002      -307.8696 
  10   2.0000     -11.307830      -307.7017 
  11   2.0000     -11.295292      -307.3605 
  12   2.0000     -11.261068      -306.4292 
  13   2.0000     -11.258974      -306.3723 
  14   2.0000     -11.255529      -306.2785 
  15   2.0000     -11.251669      -306.1735 
  16   2.0000     -11.243968      -305.9639 
  17   2.0000     -11.239289      -305.8366 
  18   2.0000     -11.238985      -305.8283 
  19   2.0000     -11.230250      -305.5906 
  20   2.0000      -8.894140      -242.0218 
  21   2.0000      -6.575711      -178.9342 
  22   2.0000      -6.573714      -178.8799 
  23   2.0000      -6.573123      -178.8638 
  24   2.0000      -1.451848       -39.5068 
  25   2.0000      -1.416449       -38.5435 
  26   2.0000      -1.354228       -36.8504 
  27   2.0000      -1.340548       -36.4782 
  28   2.0000      -1.238455       -33.7001 
  29   2.0000      -1.157909       -31.5083 
  30   2.0000      -1.121318       -30.5126 
  31   2.0000      -1.043464       -28.3941 
  32   2.0000      -1.039992       -28.2996 
  33   2.0000      -1.015465       -27.6322 
  34   2.0000      -0.996523       -27.1168 
  35   2.0000      -0.984931       -26.8013 
  36   2.0000      -0.922027       -25.0896 
  37   2.0000      -0.887220       -24.1425 
  38   2.0000      -0.846416       -23.0322 
  39   2.0000      -0.838061       -22.8048 
  40   2.0000      -0.834473       -22.7072 
  41   2.0000      -0.818062       -22.2606 
  42   2.0000      -0.765384       -20.8271 
  43   2.0000      -0.733763       -19.9667 
  44   2.0000      -0.720789       -19.6137 
  45   2.0000      -0.695549       -18.9269 
  46   2.0000      -0.685736       -18.6598 
  47   2.0000      -0.679214       -18.4824 
  48   2.0000      -0.678023       -18.4499 
  49   2.0000      -0.663163       -18.0456 
  50   2.0000      -0.647049       -17.6071 
  51   2.0000      -0.641283       -17.4502 
  52   2.0000      -0.634151       -17.2561 
  53   2.0000      -0.607214       -16.5231 
  54   2.0000      -0.601809       -16.3761 
  55   2.0000      -0.599748       -16.3200 
  56   2.0000      -0.597807       -16.2671 
  57   2.0000      -0.577572       -15.7165 
  58   2.0000      -0.569870       -15.5069 
  59   2.0000      -0.566572       -15.4172 
  60   2.0000      -0.560712       -15.2578 
  61   2.0000      -0.547252       -14.8915 
  62   2.0000      -0.541480       -14.7344 
  63   2.0000      -0.524419       -14.2702 
  64   2.0000      -0.521521       -14.1913 
  65   2.0000      -0.513322       -13.9682 
  66   2.0000      -0.504418       -13.7259 
  67   2.0000      -0.497868       -13.5477 
  68   2.0000      -0.484891       -13.1945 
  69   2.0000      -0.464619       -12.6429 
  70   2.0000      -0.458606       -12.4793 
  71   2.0000      -0.446248       -12.1430 
  72   2.0000      -0.353183        -9.6106 
  73   2.0000      -0.350133        -9.5276 
  74   2.0000      -0.328219        -8.9313 
  75   2.0000      -0.321290        -8.7427 
  76   2.0000      -0.318304        -8.6615 
  77   0.0000       0.076494         2.0815 
  78   0.0000       0.103586         2.8187 
  79   0.0000       0.125220         3.4074 
  80   0.0000       0.132566         3.6073 
  81   0.0000       0.136785         3.7221 
  82   0.0000       0.139666         3.8005 
  83   0.0000       0.152770         4.1571 
  84   0.0000       0.157014         4.2726 
  85   0.0000       0.163299         4.4436 
  86   0.0000       0.171021         4.6537 
  87   0.0000       0.175342         4.7713 
  88   0.0000       0.190552         5.1852 
  89   0.0000       0.194773         5.3000 
  90   0.0000       0.200886         5.4664 
  91   0.0000       0.211949         5.7674 
  92   0.0000       0.213218         5.8020 
  93   0.0000       0.218446         5.9442 
  94   0.0000       0.222522         6.0551 
  95   0.0000       0.232262         6.3202 
  96   0.0000       0.246502         6.7077 
  97   0.0000       0.253483         6.8976 
  98   0.0000       0.272602         7.4179 
  99   0.0000       0.273533         7.4432 
 100   0.0000       0.294452         8.0125 
 101   0.0000       0.309438         8.4202 
 102   0.0000       0.311856         8.4860 
 103   0.0000       0.316734         8.6188 
 104   0.0000       0.324492         8.8299 
 105   0.0000       0.326571         8.8865 
 106   0.0000       0.344203         9.3663 
 107   0.0000       0.344985         9.3875 
 108   0.0000       0.360908         9.8208 
 109   0.0000       0.370082        10.0704 
 110   0.0000       0.371395        10.1062 
 111   0.0000       0.376884        10.2555 
 112   0.0000       0.385932        10.5017 
 113   0.0000       0.389854        10.6085 
 114   0.0000       0.393611        10.7107 
 115   0.0000       0.407824        11.0975 
 116   0.0000       0.412589        11.2271 
 117   0.0000       0.425713        11.5842 
 118   0.0000       0.429468        11.6864 
 119   0.0000       0.437316        11.9000 
 120   0.0000       0.444308        12.0902 
 121   0.0000       0.448208        12.1964 
 122   0.0000       0.452159        12.3039 
 123   0.0000       0.456184        12.4134 
 124   0.0000       0.462456        12.5841 
 125   0.0000       0.470158        12.7937 
 126   0.0000       0.474599        12.9145 
 127   0.0000       0.480139        13.0652 
 128   0.0000       0.485509        13.2114 
 129   0.0000       0.492329        13.3969 
 130   0.0000       0.499822        13.6009 
 131   0.0000       0.505755        13.7623 
 132   0.0000       0.513887        13.9836 
 133   0.0000       0.518013        14.0959 
 134   0.0000       0.523260        14.2386 
 135   0.0000       0.530506        14.4358 
 136   0.0000       0.532989        14.5034 
 137   0.0000       0.534102        14.5336 
 138   0.0000       0.540918        14.7191 
 139   0.0000       0.546075        14.8595 
 140   0.0000       0.556964        15.1558 
 141   0.0000       0.561242        15.2722 
 142   0.0000       0.563524        15.3343 
 143   0.0000       0.569468        15.4960 
 144   0.0000       0.570125        15.5139 
 145   0.0000       0.578073        15.7302 
 146   0.0000       0.579778        15.7766 
 147   0.0000       0.583387        15.8748 
 148   0.0000       0.590894        16.0790 
 149   0.0000       0.598274        16.2799 
 150   0.0000       0.604881        16.4597 
 151   0.0000       0.606433        16.5019 
 152   0.0000       0.609122        16.5751 
 153   0.0000       0.611499        16.6397 
 154   0.0000       0.617367        16.7994 
 155   0.0000       0.619729        16.8637 
 156   0.0000       0.629003        17.1160 
 157   0.0000       0.630320        17.1519 
 158   0.0000       0.632445        17.2097 
 159   0.0000       0.638339        17.3701 
 160   0.0000       0.647349        17.6153 
 161   0.0000       0.651361        17.7244 
 162   0.0000       0.656133        17.8543 
 163   0.0000       0.659232        17.9386 
 164   0.0000       0.663452        18.0534 
 165   0.0000       0.667443        18.1620 
 166   0.0000       0.673560        18.3285 
 167   0.0000       0.677203        18.4276 
 168   0.0000       0.685080        18.6420 
 169   0.0000       0.694121        18.8880 
 170   0.0000       0.704360        19.1666 
 171   0.0000       0.709675        19.3113 
 172   0.0000       0.712249        19.3813 
 173   0.0000       0.722304        19.6549 
 174   0.0000       0.726571        19.7710 
 175   0.0000       0.728809        19.8319 
 176   0.0000       0.735894        20.0247 
 177   0.0000       0.745449        20.2847 
 178   0.0000       0.754961        20.5435 
 179   0.0000       0.758798        20.6479 
 180   0.0000       0.762848        20.7582 
 181   0.0000       0.769614        20.9423 
 182   0.0000       0.783700        21.3256 
 183   0.0000       0.786375        21.3984 
 184   0.0000       0.789652        21.4875 
 185   0.0000       0.800057        21.7707 
 186   0.0000       0.806039        21.9334 
 187   0.0000       0.820173        22.3181 
 188   0.0000       0.825836        22.4721 
 189   0.0000       0.830661        22.6034 
 190   0.0000       0.836853        22.7719 
 191   0.0000       0.840142        22.8614 
 192   0.0000       0.845938        23.0191 
 193   0.0000       0.858476        23.3603 
 194   0.0000       0.860541        23.4165 
 195   0.0000       0.876946        23.8629 
 196   0.0000       0.883359        24.0374 
 197   0.0000       0.886933        24.1347 
 198   0.0000       0.896095        24.3840 
 199   0.0000       0.906534        24.6680 
 200   0.0000       0.911638        24.8069 
 201   0.0000       0.914488        24.8845 
 202   0.0000       0.928700        25.2712 
 203   0.0000       0.931206        25.3394 
 204   0.0000       0.941325        25.6147 
 205   0.0000       0.943799        25.6821 
 206   0.0000       0.946194        25.7472 
 207   0.0000       0.954272        25.9671 
 208   0.0000       0.962570        26.1929 
 209   0.0000       0.970302        26.4033 
 210   0.0000       0.975257        26.5381 
 211   0.0000       0.985002        26.8033 
 212   0.0000       0.992584        27.0096 
 213   0.0000       0.996655        27.1204 
 214   0.0000       1.007147        27.4059 
 215   0.0000       1.019776        27.7495 
 216   0.0000       1.020347        27.7651 
 217   0.0000       1.030497        28.0412 
 218   0.0000       1.036226        28.1971 
 219   0.0000       1.042459        28.3668 
 220   0.0000       1.046128        28.4666 
 221   0.0000       1.062335        28.9076 
 222   0.0000       1.063775        28.9468 
 223   0.0000       1.069874        29.1127 
 224   0.0000       1.077831        29.3293 
 225   0.0000       1.082231        29.4490 
 226   0.0000       1.086356        29.5612 
 227   0.0000       1.105725        30.0883 
 228   0.0000       1.108172        30.1549 
 229   0.0000       1.123664        30.5764 
 230   0.0000       1.128601        30.7108 
 231   0.0000       1.131231        30.7824 
 232   0.0000       1.146231        31.1905 
 233   0.0000       1.150130        31.2966 
 234   0.0000       1.152694        31.3664 
 235   0.0000       1.160269        31.5725 
 236   0.0000       1.167421        31.7671 
 237   0.0000       1.174033        31.9471 
 238   0.0000       1.176936        32.0261 
 239   0.0000       1.181268        32.1439 
 240   0.0000       1.188123        32.3305 
 241   0.0000       1.194236        32.4968 
 242   0.0000       1.202748        32.7284 
 243   0.0000       1.213828        33.0299 
 244   0.0000       1.220608        33.2144 
 245   0.0000       1.226668        33.3793 
 246   0.0000       1.232625        33.5414 
 247   0.0000       1.236759        33.6539 
 248   0.0000       1.241205        33.7749 
 249   0.0000       1.252093        34.0712 
 250   0.0000       1.260581        34.3022 
 251   0.0000       1.267578        34.4926 
 252   0.0000       1.274521        34.6815 
 253   0.0000       1.281177        34.8626 
 254   0.0000       1.287482        35.0342 
 255   0.0000       1.296143        35.2698 
 256   0.0000       1.299587        35.3636 
 257   0.0000       1.305516        35.5249 
 258   0.0000       1.322659        35.9914 
 259   0.0000       1.331521        36.2325 
 260   0.0000       1.333155        36.2770 
 261   0.0000       1.347917        36.6787 
 262   0.0000       1.350484        36.7485 
 263   0.0000       1.355571        36.8870 
 264   0.0000       1.368142        37.2290 
 265   0.0000       1.379617        37.5413 
 266   0.0000       1.381749        37.5993 
 267   0.0000       1.392203        37.8838 
 268   0.0000       1.398794        38.0631 
 269   0.0000       1.415801        38.5259 
 270   0.0000       1.416012        38.5317 
 271   0.0000       1.424938        38.7745 
 272   0.0000       1.434140        39.0249 
 273   0.0000       1.446762        39.3684 
 274   0.0000       1.454832        39.5880 
 275   0.0000       1.463065        39.8120 
 276   0.0000       1.470326        40.0096 
 277   0.0000       1.480003        40.2729 
 278   0.0000       1.487272        40.4707 
 279   0.0000       1.488697        40.5095 
 280   0.0000       1.494872        40.6775 
 281   0.0000       1.501876        40.8681 
 282   0.0000       1.504931        40.9513 
 283   0.0000       1.511452        41.1287 
 284   0.0000       1.520684        41.3799 
 285   0.0000       1.523333        41.4520 
 286   0.0000       1.529856        41.6295 
 287   0.0000       1.535031        41.7703 
 288   0.0000       1.538034        41.8520 
 289   0.0000       1.543747        42.0075 
 290   0.0000       1.552099        42.2347 
 291   0.0000       1.558617        42.4121 
 292   0.0000       1.571869        42.7727 
 293   0.0000       1.577533        42.9269 
 294   0.0000       1.587871        43.2082 
 295   0.0000       1.589729        43.2587 
 296   0.0000       1.592378        43.3308 
 297   0.0000       1.601742        43.5856 
 298   0.0000       1.616756        43.9942 
 299   0.0000       1.623933        44.1895 
 300   0.0000       1.630969        44.3809 
 301   0.0000       1.638041        44.5734 
 302   0.0000       1.641943        44.6795 
 303   0.0000       1.654187        45.0127 
 304   0.0000       1.661241        45.2047 
 305   0.0000       1.663558        45.2677 
 306   0.0000       1.674415        45.5631 
 307   0.0000       1.686026        45.8791 
 308   0.0000       1.691154        46.0186 
 309   0.0000       1.700589        46.2754 
 310   0.0000       1.706135        46.4263 
 311   0.0000       1.725978        46.9662 
 312   0.0000       1.732917        47.1551 
 313   0.0000       1.734028        47.1853 
 314   0.0000       1.751510        47.6610 
 315   0.0000       1.760093        47.8946 
 316   0.0000       1.775402        48.3112 
 317   0.0000       1.781624        48.4804 
 318   0.0000       1.787471        48.6395 
 319   0.0000       1.811987        49.3067 
 320   0.0000       1.815734        49.4086 
 321   0.0000       1.818813        49.4924 
 322   0.0000       1.833135        49.8821 
 323   0.0000       1.840096        50.0716 
 324   0.0000       1.851244        50.3749 
 325   0.0000       1.861725        50.6601 
 326   0.0000       1.871225        50.9186 
 327   0.0000       1.877198        51.0812 
 328   0.0000       1.903728        51.8031 
 329   0.0000       1.904949        51.8363 
 330   0.0000       1.916515        52.1510 
 331   0.0000       1.928734        52.4835 
 332   0.0000       1.936848        52.7043 
 333   0.0000       1.949461        53.0475 
 334   0.0000       1.954458        53.1835 
 335   0.0000       1.960873        53.3581 
 336   0.0000       1.985869        54.0382 
 337   0.0000       1.999778        54.4167 
 338   0.0000       2.004686        54.5503 
 339   0.0000       2.015560        54.8462 
 340   0.0000       2.022893        55.0457 
 341   0.0000       2.031466        55.2790 
 342   0.0000       2.039438        55.4959 
 343   0.0000       2.072733        56.4019 
 344   0.0000       2.091698        56.9180 
 345   0.0000       2.114411        57.5360 
 346   0.0000       2.129216        57.9389 
 347   0.0000       2.133521        58.0560 
 348   0.0000       2.155104        58.6434 
 349   0.0000       2.160888        58.8007 
 350   0.0000       2.186464        59.4967 
 351   0.0000       2.206461        60.0408 
 352   0.0000       2.209592        60.1261 
 353   0.0000       2.215109        60.2762 
 354   0.0000       2.227623        60.6167 
 355   0.0000       2.258827        61.4658 
 356   0.0000       2.277755        61.9809 
 357   0.0000       2.281378        62.0794 
 358   0.0000       2.288607        62.2762 
 359   0.0000       2.303332        62.6769 
 360   0.0000       2.315652        63.0121 
 361   0.0000       2.325680        63.2850 
 362   0.0000       2.339113        63.6505 
 363   0.0000       2.341588        63.7179 
 364   0.0000       2.363838        64.3233 
 365   0.0000       2.374671        64.6181 
 366   0.0000       2.376164        64.6587 
 367   0.0000       2.391795        65.0841 
 368   0.0000       2.408209        65.5307 
 369   0.0000       2.418741        65.8173 
 370   0.0000       2.438912        66.3662 
 371   0.0000       2.459095        66.9154 
 372   0.0000       2.471250        67.2461 
 373   0.0000       2.476705        67.3946 
 374   0.0000       2.487356        67.6844 
 375   0.0000       2.498701        67.9931 
 376   0.0000       2.500247        68.0352 
 377   0.0000       2.519284        68.5532 
 378   0.0000       2.540038        69.1179 
 379   0.0000       2.550303        69.3973 
 380   0.0000       2.555650        69.5428 
 381   0.0000       2.571860        69.9839 
 382   0.0000       2.577621        70.1406 
 383   0.0000       2.597947        70.6937 
 384   0.0000       2.606697        70.9318 
 385   0.0000       2.615512        71.1717 
 386   0.0000       2.628635        71.5288 
 387   0.0000       2.635784        71.7233 
 388   0.0000       2.656929        72.2987 
 389   0.0000       2.665475        72.5313 
 390   0.0000       2.671051        72.6830 
 391   0.0000       2.685683        73.0811 
 392   0.0000       2.701708        73.5172 
 393   0.0000       2.715409        73.8900 
 394   0.0000       2.720059        74.0166 
 395   0.0000       2.722939        74.0949 
 396   0.0000       2.732813        74.3636 
 397   0.0000       2.752751        74.9062 
 398   0.0000       2.755484        74.9805 
 399   0.0000       2.759009        75.0765 
 400   0.0000       2.773719        75.4767 
 401   0.0000       2.781523        75.6891 
 402   0.0000       2.782785        75.7234 
 403   0.0000       2.787764        75.8589 
 404   0.0000       2.800730        76.2117 
 405   0.0000       2.825553        76.8872 
 406   0.0000       2.832533        77.0771 
 407   0.0000       2.843902        77.3865 
 408   0.0000       2.851270        77.5870 
 409   0.0000       2.854262        77.6684 
 410   0.0000       2.865206        77.9662 
 411   0.0000       2.876168        78.2645 
 412   0.0000       2.884624        78.4946 
 413   0.0000       2.895504        78.7907 
 414   0.0000       2.900694        78.9319 
 415   0.0000       2.908655        79.1485 
 416   0.0000       2.931639        79.7740 
 417   0.0000       2.937909        79.9446 
 418   0.0000       2.943591        80.0992 
 419   0.0000       2.950420        80.2850 
 420   0.0000       2.965484        80.6949 
 421   0.0000       2.979776        81.0838 
 422   0.0000       2.981677        81.1356 
 423   0.0000       2.993135        81.4473 
 424   0.0000       2.996713        81.5447 
 425   0.0000       3.016742        82.0897 
 426   0.0000       3.025809        82.3364 
 427   0.0000       3.033576        82.5478 
 428   0.0000       3.036007        82.6140 
 429   0.0000       3.041715        82.7693 
 430   0.0000       3.045407        82.8697 
 431   0.0000       3.062234        83.3276 
 432   0.0000       3.075777        83.6961 
 433   0.0000       3.077724        83.7491 
 434   0.0000       3.081653        83.8560 
 435   0.0000       3.084499        83.9335 
 436   0.0000       3.091074        84.1124 
 437   0.0000       3.095842        84.2421 
 438   0.0000       3.102950        84.4356 
 439   0.0000       3.107365        84.5557 
 440   0.0000       3.115052        84.7649 
 441   0.0000       3.121187        84.9318 
 442   0.0000       3.130765        85.1925 
 443   0.0000       3.137441        85.3741 
 444   0.0000       3.141745        85.4912 
 445   0.0000       3.143992        85.5524 
 446   0.0000       3.150348        85.7253 
 447   0.0000       3.162248        86.0491 
 448   0.0000       3.175004        86.3963 
 449   0.0000       3.185017        86.6687 
 450   0.0000       3.190658        86.8222 
 451   0.0000       3.196444        86.9797 
 452   0.0000       3.210876        87.3724 
 453   0.0000       3.221924        87.6730 
 454   0.0000       3.224972        87.7559 
 455   0.0000       3.233058        87.9760 
 456   0.0000       3.243464        88.2591 
 457   0.0000       3.248716        88.4021 
 458   0.0000       3.254447        88.5580 
 459   0.0000       3.260912        88.7339 
 460   0.0000       3.263049        88.7921 
 461   0.0000       3.265056        88.8467 
 462   0.0000       3.284500        89.3758 
 463   0.0000       3.289372        89.5084 
 464   0.0000       3.295232        89.6678 
 465   0.0000       3.303862        89.9026 
 466   0.0000       3.306623        89.9778 
 467   0.0000       3.313983        90.1780 
 468   0.0000       3.316414        90.2442 
 469   0.0000       3.324374        90.4608 
 470   0.0000       3.335468        90.7627 
 471   0.0000       3.338250        90.8384 
 472   0.0000       3.348013        91.1041 
 473   0.0000       3.352366        91.2225 
 474   0.0000       3.359742        91.4232 
 475   0.0000       3.362357        91.4944 
 476   0.0000       3.373737        91.8040 
 477   0.0000       3.385262        92.1177 
 478   0.0000       3.387377        92.1752 
 479   0.0000       3.389982        92.2461 
 480   0.0000       3.391431        92.2855 
 481   0.0000       3.397565        92.4524 
 482   0.0000       3.405203        92.6603 
 483   0.0000       3.409887        92.7877 
 484   0.0000       3.410674        92.8092 
 485   0.0000       3.415411        92.9381 
 486   0.0000       3.424307        93.1801 
 487   0.0000       3.429457        93.3203 
 488   0.0000       3.435051        93.4725 
 489   0.0000       3.440053        93.6086 
 490   0.0000       3.445108        93.7461 
 491   0.0000       3.448088        93.8272 
 492   0.0000       3.453014        93.9613 
 493   0.0000       3.459930        94.1495 
 494   0.0000       3.461502        94.1922 
 495   0.0000       3.472142        94.4818 
 496   0.0000       3.477165        94.6185 
 497   0.0000       3.482128        94.7535 
 498   0.0000       3.488813        94.9354 
 499   0.0000       3.500630        95.2570 
 500   0.0000       3.507646        95.4479 
 501   0.0000       3.521695        95.8302 
 502   0.0000       3.527836        95.9973 
 503   0.0000       3.531395        96.0941 
 504   0.0000       3.533165        96.1423 
 505   0.0000       3.544723        96.4568 
 506   0.0000       3.549121        96.5765 
 507   0.0000       3.553346        96.6915 
 508   0.0000       3.562260        96.9340 
 509   0.0000       3.573803        97.2481 
 510   0.0000       3.578441        97.3743 
 511   0.0000       3.587865        97.6308 
 512   0.0000       3.607706        98.1707 
 513   0.0000       3.612159        98.2918 
 514   0.0000       3.614090        98.3444 
 515   0.0000       3.625962        98.6674 
 516   0.0000       3.628818        98.7452 
 517   0.0000       3.633017        98.8594 
 518   0.0000       3.636342        98.9499 
 519   0.0000       3.641757        99.0972 
 520   0.0000       3.648663        99.2852 
 521   0.0000       3.652198        99.3814 
 522   0.0000       3.656873        99.5086 
 523   0.0000       3.663891        99.6995 
 524   0.0000       3.671076        99.8950 
 525   0.0000       3.674927        99.9998 
 526   0.0000       3.686766       100.3220 
 527   0.0000       3.692003       100.4645 
 528   0.0000       3.700151       100.6862 
 529   0.0000       3.706277       100.8529 
 530   0.0000       3.712267       101.0159 
 531   0.0000       3.717346       101.1541 
 532   0.0000       3.731577       101.5414 
 533   0.0000       3.737112       101.6920 
 534   0.0000       3.740347       101.7800 
 535   0.0000       3.745633       101.9238 
 536   0.0000       3.750203       102.0482 
 537   0.0000       3.761100       102.3447 
 538   0.0000       3.764747       102.4440 
 539   0.0000       3.768478       102.5455 
 540   0.0000       3.769833       102.5824 
 541   0.0000       3.777578       102.7931 
 542   0.0000       3.789859       103.1273 
 543   0.0000       3.794282       103.2477 
 544   0.0000       3.805357       103.5490 
 545   0.0000       3.814495       103.7977 
 546   0.0000       3.819566       103.9357 
 547   0.0000       3.828838       104.1880 
 548   0.0000       3.830386       104.2301 
 549   0.0000       3.841909       104.5437 
 550   0.0000       3.845228       104.6340 
 551   0.0000       3.851571       104.8066 
 552   0.0000       3.857964       104.9805 
 553   0.0000       3.871728       105.3551 
 554   0.0000       3.883409       105.6729 
 555   0.0000       3.883764       105.6826 
 556   0.0000       3.905911       106.2852 
 557   0.0000       3.913040       106.4792 
 558   0.0000       3.919002       106.6415 
 559   0.0000       3.927149       106.8632 
 560   0.0000       3.932794       107.0168 
 561   0.0000       3.947089       107.4058 
 562   0.0000       3.951575       107.5278 
 563   0.0000       3.962736       107.8315 
 564   0.0000       3.971147       108.0604 
 565   0.0000       3.977570       108.2352 
 566   0.0000       3.990028       108.5742 
 567   0.0000       4.004388       108.9649 
 568   0.0000       4.007371       109.0461 
 569   0.0000       4.017078       109.3102 
 570   0.0000       4.028875       109.6313 
 571   0.0000       4.039968       109.9331 
 572   0.0000       4.047829       110.1470 
 573   0.0000       4.050637       110.2234 
 574   0.0000       4.058236       110.4302 
 575   0.0000       4.066364       110.6514 
 576   0.0000       4.071030       110.7784 
 577   0.0000       4.083455       111.1165 
 578   0.0000       4.104408       111.6866 
 579   0.0000       4.107134       111.7608 
 580   0.0000       4.116931       112.0274 
 581   0.0000       4.127704       112.3205 
 582   0.0000       4.130194       112.3883 
 583   0.0000       4.135078       112.5212 
 584   0.0000       4.141314       112.6909 
 585   0.0000       4.152132       112.9853 
 586   0.0000       4.154185       113.0411 
 587   0.0000       4.159301       113.1803 
 588   0.0000       4.164205       113.3138 
 589   0.0000       4.169527       113.4586 
 590   0.0000       4.173496       113.5666 
 591   0.0000       4.186865       113.9304 
 592   0.0000       4.188461       113.9738 
 593   0.0000       4.198319       114.2421 
 594   0.0000       4.200844       114.3108 
 595   0.0000       4.210305       114.5682 
 596   0.0000       4.213268       114.6489 
 597   0.0000       4.219319       114.8135 
 598   0.0000       4.229445       115.0890 
 599   0.0000       4.239497       115.3626 
 600   0.0000       4.241992       115.4305 
 601   0.0000       4.250651       115.6661 
 602   0.0000       4.272104       116.2498 
 603   0.0000       4.277606       116.3996 
 604   0.0000       4.285607       116.6173 
 605   0.0000       4.302275       117.0708 
 606   0.0000       4.313688       117.3814 
 607   0.0000       4.319681       117.5445 
 608   0.0000       4.327946       117.7694 
 609   0.0000       4.334296       117.9422 
 610   0.0000       4.341050       118.1260 
 611   0.0000       4.342698       118.1708 
 612   0.0000       4.351856       118.4200 
 613   0.0000       4.357006       118.5602 
 614   0.0000       4.362586       118.7120 
 615   0.0000       4.375024       119.0505 
 616   0.0000       4.385011       119.3222 
 617   0.0000       4.388016       119.4040 
 618   0.0000       4.391185       119.4902 
 619   0.0000       4.402814       119.8067 
 620   0.0000       4.411307       120.0378 
 621   0.0000       4.417237       120.1991 
 622   0.0000       4.421452       120.3138 
 623   0.0000       4.429243       120.5258 
 624   0.0000       4.436043       120.7109 
 625   0.0000       4.441897       120.8702 
 626   0.0000       4.450830       121.1132 
 627   0.0000       4.465810       121.5209 
 628   0.0000       4.479918       121.9048 
 629   0.0000       4.484582       122.0317 
 630   0.0000       4.493796       122.2824 
 631   0.0000       4.499553       122.4391 
 632   0.0000       4.513399       122.8158 
 633   0.0000       4.516170       122.8912 
 634   0.0000       4.527945       123.2116 
 635   0.0000       4.542446       123.6062 
 636   0.0000       4.547712       123.7495 
 637   0.0000       4.555950       123.9737 
 638   0.0000       4.568813       124.3237 
 639   0.0000       4.583527       124.7241 
 640   0.0000       4.585458       124.7766 
 641   0.0000       4.591283       124.9352 
 642   0.0000       4.595263       125.0435 
 643   0.0000       4.609112       125.4203 
 644   0.0000       4.613517       125.5402 
 645   0.0000       4.623131       125.8018 
 646   0.0000       4.627652       125.9248 
 647   0.0000       4.634514       126.1115 
 648   0.0000       4.640904       126.2854 
 649   0.0000       4.645158       126.4012 
 650   0.0000       4.657337       126.7326 
 651   0.0000       4.666205       126.9739 
 652   0.0000       4.673131       127.1624 
 653   0.0000       4.681292       127.3844 
 654   0.0000       4.689058       127.5957 
 655   0.0000       4.691401       127.6595 
 656   0.0000       4.705604       128.0460 
 657   0.0000       4.719811       128.4326 
 658   0.0000       4.735301       128.8541 
 659   0.0000       4.744619       129.1077 
 660   0.0000       4.747195       129.1778 
 661   0.0000       4.762889       129.6048 
 662   0.0000       4.768909       129.7686 
 663   0.0000       4.777641       130.0062 
 664   0.0000       4.799664       130.6055 
 665   0.0000       4.815744       131.0431 
 666   0.0000       4.835651       131.5848 
 667   0.0000       4.850974       132.0017 
 668   0.0000       4.864559       132.3714 
 669   0.0000       4.876787       132.7041 
 670   0.0000       4.905946       133.4976 
 671   0.0000       4.923443       133.9737 
 672   0.0000       4.934300       134.2691 
 673   0.0000       4.960095       134.9710 
 674   0.0000       4.979469       135.4983 
 675   0.0000       4.982566       135.5825 
 676   0.0000       5.015695       136.4840 
 677   0.0000       5.023222       136.6888 
 678   0.0000       5.031718       136.9200 
 679   0.0000       5.046152       137.3128 
 680   0.0000       5.054034       137.5273 
 681   0.0000       5.068312       137.9158 
 682   0.0000       5.074540       138.0852 
 683   0.0000       5.096360       138.6790 
 684   0.0000       5.104198       138.8923 
 685   0.0000       5.111325       139.0862 
 686   0.0000       5.127421       139.5242 
 687   0.0000       5.136655       139.7755 
 688   0.0000       5.142601       139.9373 
 689   0.0000       5.157155       140.3333 
 690   0.0000       5.162255       140.4721 
 691   0.0000       5.169584       140.6715 
 692   0.0000       5.184747       141.0841 
 693   0.0000       5.192437       141.2934 
 694   0.0000       5.208361       141.7267 
 695   0.0000       5.212624       141.8427 
 696   0.0000       5.217669       141.9800 
 697   0.0000       5.228456       142.2735 
 698   0.0000       5.235603       142.4680 
 699   0.0000       5.245712       142.7431 
 700   0.0000       5.269479       143.3898 
 701   0.0000       5.284340       143.7942 
 702   0.0000       5.298263       144.1731 
 703   0.0000       5.309522       144.4794 
 704   0.0000       5.319632       144.7545 
 705   0.0000       5.330263       145.0438 
 706   0.0000       5.346328       145.4810 
 707   0.0000       5.354312       145.6982 
 708   0.0000       5.364714       145.9813 
 709   0.0000       5.387034       146.5887 
 710   0.0000       5.397762       146.8806 
 711   0.0000       5.419011       147.4588 
 712   0.0000       5.423943       147.5930 
 713   0.0000       5.448642       148.2651 
 714   0.0000       5.474458       148.9676 
 715   0.0000       5.489613       149.3800 
 716   0.0000       5.503946       149.7700 
 717   0.0000       5.517572       150.1408 
 718   0.0000       5.518453       150.1648 
 719   0.0000       5.528549       150.4395 
 720   0.0000       5.536386       150.6527 
 721   0.0000       5.551624       151.0674 
 722   0.0000       5.562882       151.3737 
 723   0.0000       5.565648       151.4490 
 724   0.0000       5.588838       152.0800 
 725   0.0000       5.607045       152.5755 
 726   0.0000       5.614865       152.7882 
 727   0.0000       5.617293       152.8543 
 728   0.0000       5.641940       153.5250 
 729   0.0000       5.643393       153.5645 
 730   0.0000       5.661090       154.0461 
 731   0.0000       5.663129       154.1016 
 732   0.0000       5.679079       154.5356 
 733   0.0000       5.695186       154.9739 
 734   0.0000       5.701060       155.1337 
 735   0.0000       5.715135       155.5167 
 736   0.0000       5.721924       155.7015 
 737   0.0000       5.742756       156.2683 
 738   0.0000       5.745758       156.3500 
 739   0.0000       5.765075       156.8757 
 740   0.0000       5.773752       157.1118 
 741   0.0000       5.799016       157.7993 
 742   0.0000       5.805120       157.9653 
 743   0.0000       5.810543       158.1129 
 744   0.0000       5.829274       158.6226 
 745   0.0000       5.846868       159.1014 
 746   0.0000       5.857368       159.3871 
 747   0.0000       5.871902       159.7826 
 748   0.0000       5.909366       160.8020 
 749   0.0000       5.921979       161.1452 
 750   0.0000       5.936235       161.5332 
 751   0.0000       5.972826       162.5289 
 752   0.0000       5.977754       162.6629 
 753   0.0000       5.991870       163.0471 
 754   0.0000       6.002846       163.3457 
 755   0.0000       6.016058       163.7053 
 756   0.0000       6.052331       164.6923 
 757   0.0000       6.058429       164.8582 
 758   0.0000       6.075592       165.3253 
 759   0.0000       6.095800       165.8751 
 760   0.0000       6.101584       166.0325 
 761   0.0000       6.161629       167.6664 
 762   0.0000       6.207868       168.9247 
 763   0.0000       6.220346       169.2642 
 764   0.0000       6.228466       169.4852 
 765   0.0000       6.266075       170.5086 
 766   0.0000       6.284812       171.0184 
 767   0.0000       6.301843       171.4819 
 768   0.0000       6.349737       172.7851 
 769   0.0000       6.360868       173.0880 
 770   0.0000       6.365943       173.2261 
 771   0.0000       6.389407       173.8646 
 772   0.0000       6.409241       174.4043 
 773   0.0000       6.456843       175.6996 
 774   0.0000       6.460908       175.8103 
 775   0.0000       6.500804       176.8959 
 776   0.0000       6.508800       177.1135 
 777   0.0000       6.556396       178.4086 
 778   0.0000       6.581202       179.0836 
 779   0.0000       6.600239       179.6016 
 780   0.0000       6.631144       180.4426 
 781   0.0000       6.672464       181.5670 
 782   0.0000       6.722222       182.9210 
 783   0.0000       6.746088       183.5704 
 784   0.0000       6.814350       185.4279 
 785   0.0000       6.885644       187.3679 
 786   0.0000       6.912674       188.1034 
 787   0.0000       6.920594       188.3189 
 788   0.0000       6.923223       188.3905 
 789   0.0000       7.037524       191.5008 
 790   0.0000       7.053443       191.9339 
 791   0.0000       7.062705       192.1860 
 792   0.0000       7.080905       192.6812 
 793   0.0000       7.122075       193.8015 
 794   0.0000       7.228038       196.6849 
 795   0.0000       7.258740       197.5204 
 796   0.0000       7.281153       198.1303 
 797   0.0000       7.294530       198.4943 
 798   0.0000       7.340218       199.7375 
 799   0.0000       7.364480       200.3977 
 800   0.0000       7.433566       202.2776 
 801   0.0000       7.516069       204.5226 
 802   0.0000       7.576478       206.1664 
 803   0.0000       7.581237       206.2959 
 804   0.0000       7.698791       209.4948 
 805   0.0000       7.815148       212.6610 
 806   0.0000       7.862993       213.9629 
 807   0.0000       7.933763       215.8887 
 808   0.0000       7.962135       216.6607 
 809   0.0000       9.356701       254.6088 
 810   0.0000       9.433020       256.6855 
 811   0.0000      10.699050       291.1359 
 812   0.0000      11.367695       309.3307 
 813   0.0000      11.883848       323.3759 
 814   0.0000      12.545035       341.3678 
 815   0.0000      12.903222       351.1145 
 816   0.0000      13.046898       355.0241 
 817   0.0000      13.084914       356.0586 
 818   0.0000      13.272554       361.1645 
 819   0.0000      13.370757       363.8368 
 820   0.0000      13.552350       368.7782 
 821   0.0000      13.688103       372.4722 
 822   0.0000      13.889083       377.9412 
 823   0.0000      13.963098       379.9552 
 824   0.0000      14.086174       383.3043 
 825   0.0000      14.563375       396.2896 
 826   0.0000      14.649293       398.6275 
 827   0.0000      15.982212       434.8981 

                    ********************************
                    * MULLIKEN POPULATION ANALYSIS *
                    ********************************

-----------------------
MULLIKEN ATOMIC CHARGES
-----------------------
   0 C :   -0.275355
   1 C :    0.035770
   2 O :   -0.343043
   3 C :    0.435473
   4 O :   -0.432257
   5 C :   -0.228254
   6 C :    0.174089
   7 C :   -0.268116
   8 N :   -0.126486
   9 C :    0.210340
  10 S :   -0.441536
  11 N :   -0.215261
  12 C :    0.059066
  13 C :    0.044532
  14 C :   -0.188469
  15 C :   -0.129465
  16 C :   -0.277197
  17 C :    0.316282
  18 O :   -0.356799
  19 C :   -0.249355
  20 H :    0.093117
  21 H :    0.096860
  22 H :    0.097583
  23 H :    0.114685
  24 H :    0.090779
  25 H :    0.133731
  26 H :    0.129197
  27 H :    0.094511
  28 H :    0.199862
  29 H :    0.200589
  30 H :    0.152536
  31 H :    0.157020
  32 H :    0.161760
  33 H :    0.130333
  34 H :    0.240608
  35 H :    0.162870
Sum of atomic charges:   -0.0000000

--------------------------------
MULLIKEN REDUCED ORBITAL CHARGES
--------------------------------
  0 C s       :     3.258706  s :     3.258706
      pz      :     1.014342  p :     2.939537
      px      :     1.002978
      py      :     0.922218
      dz2     :     0.011272  d :     0.072638
      dxz     :     0.019734
      dyz     :     0.014693
      dx2y2   :     0.012049
      dxy     :     0.014890
      f0      :     0.000707  f :     0.004473
      f+1     :     0.000515
      f-1     :     0.000591
      f+2     :     0.000525
      f-2     :     0.000578
      f+3     :     0.001005
      f-3     :     0.000552
  1 C s       :     3.172068  s :     3.172068
      pz      :     0.975187  p :     2.628846
      px      :     0.816423
      py      :     0.837236
      dz2     :     0.023031  d :     0.151564
      dxz     :     0.032639
      dyz     :     0.027532
      dx2y2   :     0.034254
      dxy     :     0.034109
      f0      :     0.001226  f :     0.011752
      f+1     :     0.001806
      f-1     :     0.001360
      f+2     :     0.001089
      f-2     :     0.001836
      f+3     :     0.002417
      f-3     :     0.002018
  2 O s       :     3.713097  s :     3.713097
      pz      :     1.771330  p :     4.592990
      px      :     1.580488
      py      :     1.241173
      dz2     :     0.004098  d :     0.034684
      dxz     :     0.004199
      dyz     :     0.005729
      dx2y2   :     0.012181
      dxy     :     0.008477
      f0      :     0.000275  f :     0.002272
      f+1     :     0.000144
      f-1     :     0.000434
      f+2     :     0.000242
      f-2     :     0.000242
      f+3     :     0.000382
      f-3     :     0.000552
  3 C s       :     3.066267  s :     3.066267
      pz      :     0.753030  p :     2.174749
      px      :     0.717736
      py      :     0.703983
      dz2     :     0.065000  d :     0.296996
      dxz     :     0.030965
      dyz     :     0.064427
      dx2y2   :     0.074815
      dxy     :     0.061789
      f0      :     0.003154  f :     0.026514
      f+1     :     0.003386
      f-1     :     0.003048
      f+2     :     0.005811
      f-2     :     0.002664
      f+3     :     0.004991
      f-3     :     0.003460
  4 O s       :     3.768849  s :     3.768849
      pz      :     1.458142  p :     4.626081
      px      :     1.436787
      py      :     1.731152
      dz2     :     0.008104  d :     0.034930
      dxz     :     0.008314
      dyz     :     0.006415
      dx2y2   :     0.005837
      dxy     :     0.006259
      f0      :     0.000258  f :     0.002397
      f+1     :     0.000398
      f-1     :     0.000293
      f+2     :     0.000359
      f-2     :     0.000584
      f+3     :     0.000215
      f-3     :     0.000291
  5 C s       :     3.196011  s :     3.196011
      pz      :     1.040985  p :     2.938886
      px      :     1.027721
      py      :     0.870180
      dz2     :     0.011855  d :     0.083177
      dxz     :     0.007696
      dyz     :     0.027803
      dx2y2   :     0.010559
      dxy     :     0.025264
      f0      :     0.000893  f :     0.010180
      f+1     :     0.001114
      f-1     :     0.001137
      f+2     :     0.001868
      f-2     :     0.001897
      f+3     :     0.001744
      f-3     :     0.001528
  6 C s       :     3.178259  s :     3.178259
      pz      :     0.786142  p :     2.456191
      px      :     0.808868
      py      :     0.861180
      dz2     :     0.028498  d :     0.177041
      dxz     :     0.021307
      dyz     :     0.043298
      dx2y2   :     0.032273
      dxy     :     0.051666
      f0      :     0.001626  f :     0.014420
      f+1     :     0.001931
      f-1     :     0.001559
      f+2     :     0.002414
      f-2     :     0.002084
      f+3     :     0.002621
      f-3     :     0.002185
  7 C s       :     3.269916  s :     3.269916
      pz      :     0.983638  p :     2.924639
      px      :     1.009389
      py      :     0.931612
      dz2     :     0.019765  d :     0.068905
      dxz     :     0.007411
      dyz     :     0.011680
      dx2y2   :     0.018655
      dxy     :     0.011395
      f0      :     0.000921  f :     0.004656
      f+1     :     0.000455
      f-1     :     0.000637
      f+2     :     0.000333
      f-2     :     0.000816
      f+3     :     0.000982
      f-3     :     0.000512
  8 N s       :     3.344140  s :     3.344140
      pz      :     1.409747  p :     3.718141
      px      :     1.234493
      py      :     1.073901
      dz2     :     0.009138  d :     0.059258
      dxz     :     0.010871
      dyz     :     0.008722
      dx2y2   :     0.017694
      dxy     :     0.012834
      f0      :     0.000599  f :     0.004947
      f+1     :     0.000942
      f-1     :     0.000366
      f+2     :     0.000854
      f-2     :     0.001021
      f+3     :     0.000540
      f-3     :     0.000624
  9 C s       :     3.156337  s :     3.156337
      pz      :     0.733207  p :     2.353558
      px      :     0.816761
      py      :     0.803590
      dz2     :     0.043952  d :     0.262179
      dxz     :     0.029418
      dyz     :     0.061294
      dx2y2   :     0.068173
      dxy     :     0.059343
      f0      :     0.001781  f :     0.017585
      f+1     :     0.002681
      f-1     :     0.001981
      f+2     :     0.003216
      f-2     :     0.001819
      f+3     :     0.003245
      f-3     :     0.002863
 10 S s       :     5.856116  s :     5.856116
      pz      :     3.493025  p :    10.490479
      px      :     3.318751
      py      :     3.678703
      dz2     :     0.011447  d :     0.084815
      dxz     :     0.021890
      dyz     :     0.014901
      dx2y2   :     0.011445
      dxy     :     0.025132
      f0      :     0.001078  f :     0.010126
      f+1     :     0.001339
      f-1     :     0.000717
      f+2     :     0.000913
      f-2     :     0.003007
      f+3     :     0.000830
      f-3     :     0.002241
 11 N s       :     3.385427  s :     3.385427
      pz      :     1.486104  p :     3.767278
      px      :     1.267603
      py      :     1.013571
      dz2     :     0.004509  d :     0.058120
      dxz     :     0.007620
      dyz     :     0.013276
      dx2y2   :     0.015296
      dxy     :     0.017420
      f0      :     0.000636  f :     0.004436
      f+1     :     0.000374
      f-1     :     0.000621
      f+2     :     0.000651
      f-2     :     0.000569
      f+3     :     0.000726
      f-3     :     0.000859
 12 C s       :     3.126400  s :     3.126400
      pz      :     0.903121  p :     2.618777
      px      :     0.824612
      py      :     0.891044
      dz2     :     0.029941  d :     0.184409
      dxz     :     0.037604
      dyz     :     0.044069
      dx2y2   :     0.025609
      dxy     :     0.047186
      f0      :     0.001007  f :     0.011349
      f+1     :     0.001751
      f-1     :     0.001399
      f+2     :     0.001318
      f-2     :     0.002999
      f+3     :     0.001219
      f-3     :     0.001655
 13 C s       :     3.105110  s :     3.105110
      pz      :     0.888121  p :     2.727983
      px      :     0.911557
      py      :     0.928304
      dz2     :     0.020789  d :     0.111034
      dxz     :     0.009438
      dyz     :     0.035264
      dx2y2   :     0.016751
      dxy     :     0.028791
      f0      :     0.001388  f :     0.011341
      f+1     :     0.001462
      f-1     :     0.001444
[...]
      f-1     :     0.006274
      f+2     :     0.007258
      f-2     :     0.004688
      f+3     :     0.006693
      f-3     :     0.006462
 15 C s       :     2.705616  s :     2.705616
      pz      :     0.938360  p :     2.798427
      px      :     0.886837
      py      :     0.973229
      dz2     :     0.116056  d :     0.416549
      dxz     :     0.068379
      dyz     :     0.079441
      dx2y2   :     0.096959
      dxy     :     0.055715
      f0      :     0.004840  f :     0.041025
      f+1     :     0.005333
      f-1     :     0.007792
      f+2     :     0.007241
      f-2     :     0.006780
      f+3     :     0.003963
      f-3     :     0.005076
 16 C s       :     2.701943  s :     2.701943
      pz      :     0.953355  p :     2.868043
      px      :     0.936865
      py      :     0.977823
      dz2     :     0.063201  d :     0.390327
      dxz     :     0.048516
      dyz     :     0.112424
      dx2y2   :     0.079057
      dxy     :     0.087129
      f0      :     0.006073  f :     0.040251
      f+1     :     0.004450
      f-1     :     0.005177
      f+2     :     0.006772
      f-2     :     0.005008
      f+3     :     0.007477
      f-3     :     0.005293
 17 C s       :     2.701792  s :     2.701792
      pz      :     0.843253  p :     2.681363
      px      :     0.817882
      py      :     1.020227
      dz2     :     0.153456  d :     0.707415
      dxz     :     0.102262
      dyz     :     0.178630
      dx2y2   :     0.129717
      dxy     :     0.143350
      f0      :     0.016006  f :     0.099124
      f+1     :     0.012717
      f-1     :     0.014410
      f+2     :     0.018084
      f-2     :     0.014874
      f+3     :     0.012519
      f-3     :     0.010514
 18 O s       :     3.177268  s :     3.177268
      pz      :     1.355563  p :     4.347089
      px      :     1.496459
      py      :     1.495067
      dz2     :     0.012373  d :     0.075506
      dxz     :     0.016410
      dyz     :     0.024284
      dx2y2   :     0.009770
      dxy     :     0.012669
      f0      :     0.000753  f :     0.005066
      f+1     :     0.000608
      f-1     :     0.000723
      f+2     :     0.000970
      f-2     :     0.001033
      f+3     :     0.000506
      f-3     :     0.000474
 19 C s       :     2.695406  s :     2.695406
      pz      :     0.951327  p :     2.842599
      px      :     0.922825
      py      :     0.968447
      dz2     :     0.095168  d :     0.387819
      dxz     :     0.065883
      dyz     :     0.084258
      dx2y2   :     0.084727
      dxy     :     0.057782
      f0      :     0.004737  f :     0.040801
      f+1     :     0.005925
      f-1     :     0.007357
      f+2     :     0.007096
      f-2     :     0.007237
      f+3     :     0.003842
      f-3     :     0.004607
 20 H s       :     0.850709  s :     0.850709
      pz      :     0.066836  p :     0.151947
      px      :     0.042325
      py      :     0.042786
      dz2     :     0.008376  d :     0.027501
      dxz     :     0.007973
      dyz     :     0.007452
      dx2y2   :     0.001773
      dxy     :     0.001927
 21 H s       :     0.848808  s :     0.848808
      pz      :     0.052075  p :     0.150522
      px      :     0.060985
      py      :     0.037462
      dz2     :     0.006851  d :     0.027501
      dxz     :     0.006916
      dyz     :     0.003071
      dx2y2   :     0.004709
      dxy     :     0.005954
 22 H s       :     0.846400  s :     0.846400
      pz      :     0.044452  p :     0.150722
      px      :     0.054304
      py      :     0.051967
      dz2     :     0.004173  d :     0.027381
      dxz     :     0.005305
      dyz     :     0.003962
      dx2y2   :     0.007772
      dxy     :     0.006169
 23 H s       :     0.852422  s :     0.852422
      pz      :     0.072687  p :     0.147967
      px      :     0.035266
      py      :     0.040014
      dz2     :     0.009804  d :     0.027163
      dxz     :     0.007690
      dyz     :     0.006364
      dx2y2   :     0.001323
      dxy     :     0.001981
 24 H s       :     0.858196  s :     0.858196
      pz      :     0.051253  p :     0.144652
      px      :     0.059707
      py      :     0.033692
      dz2     :     0.006067  d :     0.026820
      dxz     :     0.007545
      dyz     :     0.002865
      dx2y2   :     0.004799
      dxy     :     0.005543
 25 H s       :     0.825479  s :     0.825479
      pz      :     0.039095  p :     0.150895
      px      :     0.074416
      py      :     0.037383
      dz2     :     0.002821  d :     0.027767
      dxz     :     0.008932
      dyz     :     0.000138
      dx2y2   :     0.007341
      dxy     :     0.008536
 26 H s       :     0.825770  s :     0.825770
      pz      :     0.072829  p :     0.151407
      px      :     0.040382
      py      :     0.038196
      dz2     :     0.009488  d :     0.027769
      dxz     :     0.008709
      dyz     :     0.008217
      dx2y2   :     0.000993
      dxy     :     0.000362
 27 H s       :     0.845473  s :     0.845473
      pz      :     0.039947  p :     0.150462
      px      :     0.041531
      py      :     0.068984
      dz2     :     0.003036  d :     0.027723
      dxz     :     0.000543
      dyz     :     0.008302
      dx2y2   :     0.007595
      dxy     :     0.008247
 28 H s       :     0.741642  s :     0.741642
      pz      :     0.072784  p :     0.253648
      px      :     0.059810
      py      :     0.121054
      dz2     :     0.005178  d :     0.061817
      dxz     :     0.000375
      dyz     :     0.021274
      dx2y2   :     0.016128
      dxy     :     0.018863
 29 H s       :     0.748630  s :     0.748630
      pz      :     0.102305  p :     0.254314
      px      :     0.097154
      py      :     0.054854
      dz2     :     0.015630  d :     0.061421
      dxz     :     0.012857
      dyz     :     0.008958
      dx2y2   :     0.011924
      dxy     :     0.012052
 30 H s       :     0.830789  s :     0.830789
      pz      :     0.057021  p :     0.153585
      px      :     0.046242
      py      :     0.050321
      dz2     :     0.006749  d :     0.029272
      dxz     :     0.006402
      dyz     :     0.006418
      dx2y2   :     0.004028
      dxy     :     0.005676
 31 H s       :     0.845344  s :     0.845344
      pz      :     0.061537  p :     0.156776
      px      :     0.056900
      py      :     0.038338
      dz2     :     0.007093  d :     0.027559
      dxz     :     0.006535
      dyz     :     0.005724
      dx2y2   :     0.004109
      dxy     :     0.004096
 32 H s       :     0.843522  s :     0.843522
      pz      :     0.035562  p :     0.151631
      px      :     0.038543
      py      :     0.077526
      dz2     :     0.002695  d :     0.026485
      dxz     :     0.000249
      dyz     :     0.008043
      dx2y2   :     0.007707
      dxy     :     0.007791
 33 H s       :     0.848539  s :     0.848539
      pz      :     0.058237  p :     0.159061
      px      :     0.051181
      py      :     0.049642
      dz2     :     0.006811  d :     0.027759
      dxz     :     0.005103
      dyz     :     0.006422
      dx2y2   :     0.004867
      dxy     :     0.004556
 34 H s       :     0.706536  s :     0.706536
      pz      :     0.103988  p :     0.347846
      px      :     0.097111
      py      :     0.146747
      dz2     :     0.022307  d :     0.099582
      dxz     :     0.012354
      dyz     :     0.023866
      dx2y2   :     0.019994
      dxy     :     0.021061
 35 H s       :     0.838458  s :     0.838458
      pz      :     0.036232  p :     0.156344
      px      :     0.041285
      py      :     0.078827
      dz2     :     0.002740  d :     0.027913
      dxz     :     0.000251
      dyz     :     0.008592
      dx2y2   :     0.007804
      dxy     :     0.008527


                      *****************************
                      * MAYER POPULATION ANALYSIS *
                      *****************************

  NA   - Mulliken gross atomic population
  ZA   - Total nuclear charge
  QA   - Mulliken gross atomic charge
  VA   - Mayer's total valence
  BVA  - Mayer's bonded valence
  FA   - Mayer's free valence

  ATOM       NA         ZA         QA         VA         BVA        FA
  0 C      6.2754     6.0000    -0.2754     3.8931     3.8931    -0.0000
  1 C      5.9642     6.0000     0.0358     3.8590     3.8590     0.0000
  2 O      8.3430     8.0000    -0.3430     2.0686     2.0686     0.0000
  3 C      5.5645     6.0000     0.4355     4.2518     4.2518     0.0000
  4 O      8.4323     8.0000    -0.4323     2.0800     2.0800     0.0000
  5 C      6.2283     6.0000    -0.2283     3.6566     3.6566     0.0000
  6 C      5.8259     6.0000     0.1741     3.8525     3.8525    -0.0000
  7 C      6.2681     6.0000    -0.2681     3.9021     3.9021     0.0000
  8 N      7.1265     7.0000    -0.1265     3.3086     3.3086    -0.0000
  9 C      5.7897     6.0000     0.2103     4.1549     4.1549     0.0000
 10 S     16.4415    16.0000    -0.4415     1.7541     1.7541     0.0000
 11 N      7.2153     7.0000    -0.2153     3.2396     3.2396    -0.0000
 12 C      5.9409     6.0000     0.0591     3.9121     3.9121    -0.0000
 13 C      5.9555     6.0000     0.0445     3.7508     3.7508    -0.0000
 14 C      6.1885     6.0000    -0.1885     3.8482     3.8482    -0.0000
 15 C      6.1295     6.0000    -0.1295     3.7974     3.7974    -0.0000
 16 C      6.2772     6.0000    -0.2772     3.8008     3.8008    -0.0000
 17 C      5.6837     6.0000     0.3163     3.8602     3.8602    -0.0000
 18 O      8.3568     8.0000    -0.3568     2.1180     2.1180    -0.0000
 19 C      6.2494     6.0000    -0.2494     3.8558     3.8558     0.0000
 20 H      0.9069     1.0000     0.0931     0.9846     0.9846    -0.0000
 21 H      0.9031     1.0000     0.0969     0.9848     0.9848     0.0000
 22 H      0.9024     1.0000     0.0976     0.9839     0.9839    -0.0000
 23 H      0.8853     1.0000     0.1147     0.9828     0.9828     0.0000
 24 H      0.9092     1.0000     0.0908     0.9782     0.9782     0.0000
 25 H      0.8663     1.0000     0.1337     0.9801     0.9801     0.0000
 26 H      0.8708     1.0000     0.1292     0.9813     0.9813     0.0000
 27 H      0.9055     1.0000     0.0945     0.9855     0.9855    -0.0000
 28 H      0.8001     1.0000     0.1999     1.0209     1.0209    -0.0000
 29 H      0.7994     1.0000     0.2006     1.0152     1.0152     0.0000
 30 H      0.8475     1.0000     0.1525     0.9889     0.9889    -0.0000
 31 H      0.8430     1.0000     0.1570     0.9828     0.9828    -0.0000
 32 H      0.8382     1.0000     0.1618     0.9766     0.9766     0.0000
 33 H      0.8697     1.0000     0.1303     0.9919     0.9919    -0.0000
 34 H      0.7594     1.0000     0.2406     1.0105     1.0105    -0.0000
 35 H      0.8371     1.0000     0.1629     0.9901     0.9901     0.0000

  Mayer bond orders larger than 0.100000
B(  0-C ,  1-C ) :   0.9720 B(  0-C , 20-H ) :   0.9771 B(  0-C , 21-H ) :   0.9769 
B(  0-C , 22-H ) :   0.9784 B(  1-C ,  2-O ) :   0.8986 B(  1-C , 23-H ) :   0.9797 
B(  1-C , 24-H ) :   0.9741 B(  2-O ,  3-C ) :   1.1657 B(  3-C ,  4-O ) :   1.9733 
B(  3-C ,  5-C ) :   1.0650 B(  5-C ,  6-C ) :   1.6385 B(  5-C , 12-C ) :   0.9571 
B(  6-C ,  7-C ) :   0.9655 B(  6-C ,  8-N ) :   1.1534 B(  7-C , 25-H ) :   0.9610 
B(  7-C , 26-H ) :   0.9588 B(  7-C , 27-H ) :   0.9905 B(  8-N ,  9-C ) :   1.1874 
B(  8-N , 28-H ) :   0.9464 B(  9-C , 10-S ) :   1.6063 B(  9-C , 11-N ) :   1.3094 
B( 11-N , 12-C ) :   0.9677 B( 11-N , 29-H ) :   0.9484 B( 12-C , 13-C ) :   0.9630 
B( 12-C , 30-H ) :   1.0015 B( 13-C , 14-C ) :   1.3580 B( 13-C , 19-C ) :   1.3795 
B( 14-C , 15-C ) :   1.3885 B( 14-C , 31-H ) :   0.9691 B( 15-C , 16-C ) :   1.3619 
B( 15-C , 32-H ) :   0.9700 B( 16-C , 17-C ) :   1.3338 B( 16-C , 33-H ) :   0.9848 
B( 17-C , 18-O ) :   1.1044 B( 17-C , 19-C ) :   1.3650 B( 18-O , 34-H ) :   0.9798 
B( 19-C , 35-H ) :   0.9596 

-------
TIMINGS
-------

Total SCF time: 0 days 1 hours 35 min 5 sec 

Total time                  ....    5705.874 sec
Sum of individual times     ....    5696.260 sec  ( 99.8%)

Fock matrix formation       ....    5678.187 sec  ( 99.5%)
Diagonalization             ....       1.688 sec  (  0.0%)
Density matrix formation    ....       0.257 sec  (  0.0%)
Population analysis         ....       0.224 sec  (  0.0%)
Initial guess               ....       5.217 sec  (  0.1%)
Orbital Transformation      ....       0.000 sec  (  0.0%)
Orbital Orthonormalization  ....       0.000 sec  (  0.0%)
DIIS solution               ....       6.524 sec  (  0.1%)
SOSCF solution              ....       2.814 sec  (  0.0%)

------------------------------------------------------------------------------
                                ORCA  MP2 
------------------------------------------------------------------------------

Freezing NCore=48 chemical core electrons

-------------
RI-MP2 ENERGY
-------------
Dimension of the basis                    ...  828
Memory devoted to MP2                     ...  256 MB   
Data format for buffers                   ... DOUBLE
Compression type for matrix containers    ... UNCOMPRESSED
Overall scaling of the MP2 energy         ...   1.000e+00
Calculating two index integrals           ... done (    0.043 sec)
Cholesky decomposition of V**-1           ... done (    0.445 sec)

-----------------
RI-TRANSFORMATION (AUX index driven)
-----------------

Dimension of the orbital-basis         ... 828
Dimension of the aux-basis             ... 2141
Transformation of internal/external MOs...   24-  76 to   77- 827
Number Format for Storage              ... Double (8 Byte)
Integral mode                          ... Direct

First Phase: integral generation and transformation of MO indices
  Aux angular momentum 0               ... done (    5.504 sec)
  Aux angular momentum 1               ... done (    9.169 sec)
  Aux angular momentum 2               ... done (   12.024 sec)
  Aux angular momentum 3               ... done (    9.149 sec)
  Aux angular momentum 4               ... done (    3.151 sec)
Closing buffer VIA ( 0.63 GB; CompressionRatio= 1.00)
  Phase 1 completed in    39.270 sec
Second Phase: sorting and transformation of aux index

IA-Transformation
Memory available                       ... 167 MB 
Max. # MO pairs treated in a batch     ... 12    
# of internal orbitals                 ... 53
# batches for internal orbitals        ... 5
Closing buffer IAV ( 0.63 GB; CompressionRatio= 1.00)
(ia|v) transformation done in    46.291 sec

  Phase 2 completed in    46.294 sec
RI-Integral transformation completed in    85.590 sec
Opening buffers                              ... done

Starting loop over batches of integrals:

Operator 0  - window                       ... ( 24- 76)x( 77-827)
Operator 0  - Memory available             ...   256 MB
Operator 0  - Memory needed per MO         ...  12.3 MB
Operator 0  - Number of orbitals per batch ... 13
Operator 0  - Number of batches            ... 5

OPERATOR  0   PASS   0:  MOs    24 ...   36
  Reading integrals       ... ok
  Internal MO  26
  Internal MO  29
  Internal MO  32
  Internal MO  35
OPERATOR  0   PASS   1:  MOs    37 ...   49
  Reading integrals       ... ok
  Internal MO  38
  Internal MO  41
  Internal MO  44
  Internal MO  47
OPERATOR  0   PASS   2:  MOs    50 ...   62
  Reading integrals       ... ok
  Internal MO  50
  Internal MO  53
  Internal MO  56
  Internal MO  59
  Internal MO  62
OPERATOR  0   PASS   3:  MOs    63 ...   75
  Reading integrals       ... ok
  Internal MO  65
  Internal MO  68
  Internal MO  71
  Internal MO  74
OPERATOR  0   PASS   4:  MOs    76 ...   76
  Reading integrals       ... ok
Time spent in pair loops =   117.072 sec
Deleting buffer (Ka|jb)[aa] ...done

-----------------------------------------------
 RI-MP2 CORRELATION ENERGY:     -3.529170693 Eh
-----------------------------------------------


-------
TIMINGS
-------

Total time                :  203.542 sec
Integral trafo            :   85.606 sec ( 42.1%)
I/O of integrals          :    6.718 sec (  3.3%)
K(i,j) Operators          :   58.596 sec ( 28.8%)
T(i,j) pair energies      :    9.894 sec (  4.9%)
V-calculation             :    0.043 sec (  0.0%)
V**(-1/2)                 :    0.445 sec (  0.2%)
Gamma(ia|P)               :    0.000 sec (  0.0%)
Gamma-Trafo               :    0.000 sec (  0.0%)
D(virtual)                :    0.000 sec (  0.0%)
D(internal)               :    0.000 sec (  0.0%)
W(virtual)                :    0.000 sec (  0.0%)
W(internal)               :    0.000 sec (  0.0%)
L(virtual)                :    0.000 sec (  0.0%)
L(internal)               :    0.000 sec (  0.0%)
G(D)                      :    0.000 sec (  0.0%)
G(Z)                      :    0.000 sec (  0.0%)
Z-Vector Solution         :    0.000 sec (  0.0%)
3-Index Derivative        :    0.000 sec (  0.0%)
2-Index Derivative        :    0.000 sec (  0.0%)
Separable Gradient        :    0.000 sec (  0.0%)


---------------------------------------
MP2 TOTAL ENERGY:    -1274.343283841 Eh
---------------------------------------

-------------------------   --------------------
FINAL SINGLE POINT ENERGY     -1274.343283841057
-------------------------   --------------------


                            ***************************************
                            *     ORCA property calculations      *
                            ***************************************


  WARNING: The energy has been calculated at the MP2 level but the densities
           used in the property calculations are still SCF densities
           MP2 response densities have not been calculated 
           use %mp2 Density relaxed end
           or  %mp2 Density unrelaxed end

                                    ---------------------
                                    Active property flags
                                    ---------------------
   (+) Dipole Moment


------------------------------------------------------------------------------
                       ORCA ELECTRIC PROPERTIES CALCULATION
------------------------------------------------------------------------------

Dipole Moment Calculation                       ... on
Quadrupole Moment Calculation                   ... off
Polarizability Calculation                      ... off
GBWName                                         ... CONFS/Conf928.orca.gbw
Electron density file                           ... CONFS/Conf928.orca.scfp
The origin for moment calculation is the CENTER OF MASS  = (31.869919, 33.105427 33.412111)

-------------
DIPOLE MOMENT
-------------
                                X             Y             Z
Electronic contribution:      8.31033      11.27870       8.44124
Nuclear contribution   :     -9.47155     -12.89922      -8.77073
                        -----------------------------------------
Total Dipole Moment    :     -1.16122      -1.62052      -0.32949
                        -----------------------------------------
Magnitude (a.u.)       :      2.02067
Magnitude (Debye)      :      5.13612



--------------------
Rotational spectrum 
--------------------
 
Rotational constants in cm-1:     0.011432     0.008378     0.005922 
Rotational constants in MHz :   342.721559   251.158877   177.551664 

 Dipole components along the rotational axes: 
x,y,z [a.u.] :    -1.995318     0.314669     0.052732 
x,y,z [Debye]:    -5.071695     0.799826     0.134034 

 

Timings for individual modules:

Sum of individual times         ...     5911.889 sec (=  98.531 min)
GTO integral calculation        ...        1.871 sec (=   0.031 min)   0.0 %
SCF iterations                  ...     5705.988 sec (=  95.100 min)  96.5 %
MP2 module                      ...      204.030 sec (=   3.400 min)   3.5 %
                             ****ORCA TERMINATED NORMALLY****
TOTAL RUN TIME: 0 days 1 hours 38 minutes 33 seconds 138 msec
