
                                 *****************
                                 * O   R   C   A *
                                 *****************

           --- An Ab Initio, DFT and Semiempirical electronic structure package ---

                  #######################################################
                  #                        -***-                        #
                  #          Department of theory and spectroscopy      #
                  #               Directorship: Frank Neese             #
                  #        Max Planck Institute fuer Kohlenforschung    #
                  #                Kaiser Wilhelm Platz 1               #
                  #                 D-45470 Muelheim/Ruhr               #
                  #                      Germany                        #
                  #                                                     #
                  #                  All rights reserved                #
                  #                        -***-                        #
                  #######################################################


                         Program Version 4.2.0 -  RELEASE  -


 With contributions from (in alphabetic order):
   Daniel Aravena         : Magnetic Suceptibility
   Michael Atanasov       : Ab Initio Ligand Field Theory (pilot matlab implementation)
   Alexander A. Auer      : GIAO ZORA, VPT2
   Ute Becker             : Parallelization
   Giovanni Bistoni       : ED, misc. LED, open-shell LED, HFLED
   Martin Brehm           : Molecular dynamics
   Dmytro Bykov           : SCF Hessian
   Vijay G. Chilkuri      : MRCI spin determinant printing, contributions to CSF-ICE
   Dipayan Datta          : RHF DLPNO-CCSD density
   Achintya Kumar Dutta   : EOM-CC, STEOM-CC
   Dmitry Ganyushin       : Spin-Orbit,Spin-Spin,Magnetic field MRCI
   Miquel Garcia          : C-PCM Hessian, Gaussian charge scheme
   Yang Guo               : DLPNO-NEVPT2, CIM, IAO-localization
   Andreas Hansen         : Spin unrestricted coupled pair/coupled cluster methods
   Benjamin Helmich-Paris : CASSCF linear response (MC-RPA)
   Lee Huntington         : MR-EOM, pCC
   Robert Izsak           : Overlap fitted RIJCOSX, COSX-SCS-MP3, EOM
   Christian Kollmar      : KDIIS, OOCD, Brueckner-CCSD(T), CCSD density
   Simone Kossmann        : Meta GGA functionals, TD-DFT gradient, OOMP2, MP2 Hessian
   Martin Krupicka        : AUTO-CI
   Lucas Lang             : DCDCAS
   Dagmar Lenk            : GEPOL surface, SMD
   Dimitrios Liakos       : Extrapolation schemes; Compound Job, initial MDCI parallelization
   Dimitrios Manganas     : Further ROCIS development; embedding schemes
   Dimitrios Pantazis     : SARC Basis sets
   Taras Petrenko         : DFT Hessian,TD-DFT gradient, ASA, ECA, R-Raman, ABS, FL, XAS/XES, NRVS
   Peter Pinski           : DLPNO-MP2, DLPNO-MP2 Gradient
   Christoph Reimann      : Effective Core Potentials
   Marius Retegan         : Local ZFS, SOC
   Christoph Riplinger    : Optimizer, TS searches, QM/MM, DLPNO-CCSD(T), (RO)-DLPNO pert. Triples
   Tobias Risthaus        : Range-separated hybrids, TD-DFT gradient, RPA, STAB
   Michael Roemelt        : Original ROCIS implementation
   Masaaki Saitow         : Open-shell DLPNO-CCSD energy and density
   Barbara Sandhoefer     : DKH picture change effects
   Avijit Sen             : IP-ROCIS
   Kantharuban Sivalingam : CASSCF convergence, NEVPT2, FIC-MRCI
   Bernardo de Souza      : ESD, SOC TD-DFT
   Georgi Stoychev        : AutoAux, RI-MP2 NMR
   Willem Van den Heuvel  : Paramagnetic NMR
   Boris Wezisla          : Elementary symmetry handling
   Frank Wennmohs         : Technical directorship


 We gratefully acknowledge several colleagues who have allowed us to
 interface, adapt or use parts of their codes:
   Stefan Grimme, W. Hujo, H. Kruse,             : VdW corrections, initial TS optimization,
                  C. Bannwarth                     DFT functionals, gCP, sTDA/sTD-DF
   Ed Valeev, F. Pavosevic, A. Kumar             : LibInt (2-el integral package), F12 methods
   Garnet Chan, S. Sharma, J. Yang, R. Olivares  : DMRG
   Ulf Ekstrom                                   : XCFun DFT Library
   Mihaly Kallay                                 : mrcc  (arbitrary order and MRCC methods)
   Andreas Klamt, Michael Diedenhofen            : otool_cosmo (COSMO solvation model)
   Jiri Pittner, Ondrej Demel                    : Mk-CCSD
   Frank Weinhold                                : gennbo (NPA and NBO analysis)
   Christopher J. Cramer and Donald G. Truhlar   : smd solvation model
   Lars Goerigk                                  : TD-DFT with DH, B97 family of functionals
   V. Asgeirsson, H. Jonsson                     : NEB implementation
   FAccTs GmbH                                   : IRC, NEB, NEB-TS, Multilevel, MM, QM/MM, CI optimization
   S Lehtola, MJT Oliveira, MAL Marques          : LibXC Library


 Your calculation uses the libint2 library for the computation of 2-el integrals
 For citations please refer to: http://libint.valeyev.net

 Your ORCA version has been built with support for libXC version: 4.2.3
 For citations please refer to: https://tddft.org/programs/libxc/

 This ORCA versions uses:
   CBLAS   interface :  Fast vector & matrix operations
   LAPACKE interface :  Fast linear algebra routines
   SCALAPACK package :  Parallel linear algebra routines


----- Orbital basis set information -----
Your calculation utilizes the basis: cc-pVTZ 
       H, B-Ne : Obtained from the ccRepo (grant-hill.group.shef.ac.uk/ccrepo) Feb. 2017
                 T. H. Dunning, Jr., J. Chem. Phys. 90, 1007 (1989)
            He : Obtained from the ccRepo (grant-hill.group.shef.ac.uk/ccrepo) Feb. 2017
                 D. E. Woon, T. H. Dunning, Jr., J. Chem. Phys. 100, 2975 (1994)
  Li-Be, Na-Mg : Obtained from the ccRepo (grant-hill.group.shef.ac.uk/ccrepo) Feb. 2017
                 B. P. Prascher, D. E. Woon, K. A. Peterson, T. H. Dunning, Jr., A. K. Wilson, Theor. Chem. Acc. 128, 69 (2011)
         Al-Ar : Obtained from the ccRepo (grant-hill.group.shef.ac.uk/ccrepo) Feb. 2017
                 D. E. Woon, T. H. Dunning, Jr., J. Chem. Phys. 98, 1358 (1993)
            Ca : Obtained from the Peterson Research Group Website (tyr0.chem.wsu.edu/~kipeters) Feb. 2017
                 J. Koput, K. A. Peterson, J. Phys. Chem. 106, 9595 (2002)
         Sc-Zn : Obtained from the ccRepo (grant-hill.group.shef.ac.uk/ccrepo) Feb. 2017
                 N. B. Balabanov, K. A. Peterson, J. Chem. Phys. 123, 064107 (2005)
                 N. B. Balabanov, K. A. Peterson, J. Chem. Phys. 125, 074110 (2006)
         Ga-Kr : Obtained from the ccRepo (grant-hill.group.shef.ac.uk/ccrepo) Feb. 2017
                 A. K. Wilson, D. E. Woon, K. A. Peterson, T. H. Dunning, Jr., J. Chem. Phys. 110, 7667 (1999)
             Y : Obtained from the ccRepo (grant-hill.group.shef.ac.uk/ccrepo) Feb. 2017
                 K. A. Peterson, D. Figgen, M. Dolg, H. Stoll, J. Chem. Phys. 126, 124101 (2007)
        Ag, Au : Obtained from the Peterson Research Group Website (tyr0.chem.wsu.edu/~kipeters) Feb. 2017
                 K. A. Peterson, C. Puzzarini, Theor. Chem. Acc. 114, 283 (2005)

----- AuxC basis set information -----
Your calculation utilizes the auxiliary basis: cc-pVTZ/C 
  Obtained from the EMSL Basis Set Exchange (bse.pnl.gov) Feb. 2017
  H-He, B-F, Al-Ar, Ga-Kr : F. Weigend, A. Kohn, C. Hattig, J. Chem. Phys. 116, 3175 (2002)
             Li-Be, Na-Mg : C. Haettig, Phys. Chem. Chem. Phys. 7, 59 (2005)
                       Ne : C. Haettig, Phys. Chem. Chem. Phys. 7, 59 (2005)
                            F. Weigend, A. Kohn, C. Hattig, J. Chem. Phys. 116, 3175 (2002)
                    Sc-Zn : J. G. Hill, J. A. Platts, J. Chem. Phys. 128, 044104 (2008)

================================================================================
                                        WARNINGS
                       Please study these warnings very carefully!
================================================================================


WARNING: No MP2 level density has been requested!
         To caclulate MP2 level properties use
         %mp2 Density relaxed end
         or
         %mp2 Density unrelaxed end

WARNING: Post HF methods need fully converged wavefunctions
  ===> : Setting SCFConvForced true
         You can overwrite this default with %scf ConvForced false 


INFO   : the flag for use of LIBINT has been found!

================================================================================
                                       INPUT FILE
================================================================================
NAME = CONFS/Conf870.orca
|  1> ! ri-mp2 cc-pvtz cc-pvtz/c TightSCF NoKeepInts
|  2> 
|  3> %scf
|  4>   MaxCore 4096
|  5> end
|  6> *xyz  0  1
|  7>     C       13.7447249   15.7548008   13.9299555
|  8>     C       15.2018824   15.4662819   14.3282001
|  9>     O       15.7039492   16.6369034   14.9946353
| 10>     C       16.7286710   16.5072393   15.8864128
| 11>     O       17.3678946   15.4731036   15.9920784
| 12>     C       16.9645055   17.7015447   16.7700263
| 13>     C       16.6396155   18.9712669   16.4056232
| 14>     C       15.7974529   19.4219851   15.2277827
| 15>     N       17.1224785   20.0657842   17.1278946
| 16>     C       18.1004165   19.9954071   18.0825868
| 17>     S       18.7013195   21.3493882   18.8182793
| 18>     N       18.5718857   18.7425267   18.3803708
| 19>     C       18.0108825   17.4766924   17.8701307
| 20>     C       17.5409770   16.5431197   18.9781276
| 21>     C       18.0476056   15.2347591   19.0774891
| 22>     C       17.6155179   14.3769792   20.1029455
| 23>     C       16.6700429   14.8322220   21.0379412
| 24>     C       16.1624650   16.1351688   20.9402182
| 25>     O       15.2468515   16.5760356   21.8394883
| 26>     C       16.5942130   16.9864114   19.9180215
| 27>     H       13.1381239   15.9767922   14.8168519
| 28>     H       13.3060593   14.8867843   13.4228236
| 29>     H       13.6923073   16.6133842   13.2490992
| 30>     H       15.2156250   14.5991218   15.0033193
| 31>     H       15.8131435   15.2327695   13.4465488
| 32>     H       16.2300915   19.0717262   14.2823075
| 33>     H       15.7115284   20.5130961   15.1568700
| 34>     H       14.7786315   19.0216624   15.3039517
| 35>     H       16.8015616   20.9944154   16.9055676
| 36>     H       19.2763976   18.7152496   19.1066465
| 37>     H       18.8942398   17.0622897   17.3628009
| 38>     H       18.7672662   14.8773078   18.3448143
| 39>     H       18.0092274   13.3641362   20.1654901
| 40>     H       16.3324298   14.1725422   21.8302278
| 41>     H       15.0939817   15.8584184   22.4722372
| 42>     H       16.1930338   17.9926841   19.8602356
| 43> *
| 44> 
| 45>                          ****END OF INPUT****
================================================================================

                       ****************************
                       * Single Point Calculation *
                       ****************************

---------------------------------
CARTESIAN COORDINATES (ANGSTROEM)
---------------------------------
  C     13.744725   15.754801   13.929956
  C     15.201882   15.466282   14.328200
  O     15.703949   16.636903   14.994635
  C     16.728671   16.507239   15.886413
  O     17.367895   15.473104   15.992078
  C     16.964505   17.701545   16.770026
  C     16.639616   18.971267   16.405623
  C     15.797453   19.421985   15.227783
  N     17.122478   20.065784   17.127895
  C     18.100416   19.995407   18.082587
  S     18.701320   21.349388   18.818279
  N     18.571886   18.742527   18.380371
  C     18.010883   17.476692   17.870131
  C     17.540977   16.543120   18.978128
  C     18.047606   15.234759   19.077489
  C     17.615518   14.376979   20.102946
  C     16.670043   14.832222   21.037941
  C     16.162465   16.135169   20.940218
  O     15.246851   16.576036   21.839488
  C     16.594213   16.986411   19.918021
  H     13.138124   15.976792   14.816852
  H     13.306059   14.886784   13.422824
  H     13.692307   16.613384   13.249099
  H     15.215625   14.599122   15.003319
  H     15.813143   15.232769   13.446549
  H     16.230092   19.071726   14.282307
  H     15.711528   20.513096   15.156870
  H     14.778631   19.021662   15.303952
  H     16.801562   20.994415   16.905568
  H     19.276398   18.715250   19.106647
  H     18.894240   17.062290   17.362801
  H     18.767266   14.877308   18.344814
  H     18.009227   13.364136   20.165490
  H     16.332430   14.172542   21.830228
  H     15.093982   15.858418   22.472237
  H     16.193034   17.992684   19.860236

----------------------------
CARTESIAN COORDINATES (A.U.)
----------------------------
  NO LB      ZA    FRAG     MASS         X           Y           Z
   0 C     6.0000    0    12.011   25.973766   29.772259   26.323801
   1 C     6.0000    0    12.011   28.727394   29.227037   27.076374
   2 O     8.0000    0    15.999   29.676163   31.439191   28.335754
   3 C     6.0000    0    12.011   31.612607   31.194162   30.020969
   4 O     8.0000    0    15.999   32.820564   29.239928   30.220648
   5 C     6.0000    0    12.011   32.058269   33.451072   31.690757
   6 C     6.0000    0    12.011   31.444316   35.850499   31.002135
   7 C     6.0000    0    12.011   29.852860   36.702233   28.776339
   8 N     7.0000    0    14.007   32.356795   37.918837   32.367030
   9 C     6.0000    0    12.011   34.204830   37.785843   34.171137
  10 S    16.0000    0    32.060   35.340372   40.344497   35.561394
  11 N     7.0000    0    14.007   35.095778   35.418243   34.733867
  12 C     6.0000    0    12.011   34.035635   33.026162   33.769653
  13 C     6.0000    0    12.011   33.147643   31.261966   35.863464
  14 C     6.0000    0    12.011   34.105032   28.789522   36.051230
  15 C     6.0000    0    12.011   33.288505   27.168553   37.989061
  16 C     6.0000    0    12.011   31.501816   28.028838   39.755947
  17 C     6.0000    0    12.011   30.542632   30.491050   39.571278
  18 O     8.0000    0    15.999   28.812374   31.324168   41.270652
  19 C     6.0000    0    12.011   31.358518   32.099666   37.639606
  20 H     1.0000    0     1.008   24.827456   30.191762   27.999792
  21 H     1.0000    0     1.008   25.144808   28.131945   25.365461
  22 H     1.0000    0     1.008   25.874711   31.394746   25.037169
  23 H     1.0000    0     1.008   28.753364   27.588342   28.352165
  24 H     1.0000    0     1.008   29.882511   28.785763   25.410295
  25 H     1.0000    0     1.008   30.670428   36.040339   26.989650
  26 H     1.0000    0     1.008   29.690486   38.764134   28.642333
  27 H     1.0000    0     1.008   27.927566   35.945733   28.920277
  28 H     1.0000    0     1.008   31.750350   39.673695   31.946893
  29 H     1.0000    0     1.008   36.427112   35.366696   36.106329
  30 H     1.0000    0     1.008   35.704939   32.243055   32.810939
  31 H     1.0000    0     1.008   35.464993   28.114037   34.666675
  32 H     1.0000    0     1.008   34.032508   25.254557   38.107254
  33 H     1.0000    0     1.008   30.863819   26.782223   41.253152
  34 H     1.0000    0     1.008   28.523492   29.968068   42.466374
  35 H     1.0000    0     1.008   30.600399   34.001245   37.530406

--------------------------------
INTERNAL COORDINATES (ANGSTROEM)
--------------------------------
 C      0   0   0     0.000000000000     0.00000000     0.00000000
 C      1   0   0     1.537904384834     0.00000000     0.00000000
 O      2   1   0     1.437554048975   107.34901987     0.00000000
 C      3   2   1     1.364600548047   119.19916875   154.66627813
 O      4   3   2     1.220331379517   122.03615222    11.25356599
 C      4   3   2     1.504246029492   115.22461495   194.15918543
 C      6   4   3     1.360344660945   123.11135350   333.12423428
 C      7   6   4     1.516473865284   128.17789274    11.60419966
 N      7   6   4     1.397426481797   120.66933018   193.34479635
 C      9   7   6     1.368485610004   124.55660443    11.20066502
 S     10   9   7     1.653962723015   121.85935051   175.38068701
 N     10   9   7     1.371374425133   116.36879006   356.45547155
 C     12  10   9     1.475603613819   125.30507582   352.84602366
 C     13  12  10     1.523163253077   113.05043636   239.10581297
 C     14  13  12     1.406539265592   120.69044922   236.49865460
 C     15  14  13     1.405007816931   120.57647008   179.80425678
 C     16  15  14     1.405484237406   119.64780474   359.91645680
 C     17  16  15     1.401733024840   119.88695977     0.15508275
 O     18  17  16     1.356981329819   120.00796605   179.82304676
 C     18  17  16     1.398537233344   120.32730304   359.86738927
 H      1   2   3     1.097191951852   110.63885348   300.36252580
 H      1   2   3     1.096842247952   110.49945422   180.52086380
 H      1   2   3     1.097031613398   110.65962298    60.62370580
 H      2   1   3     1.099063889087   108.59846793   119.71755328
 H      2   1   3     1.097942251723   111.06720015   239.04084809
 H      8   7   6     1.097169453209   110.82069204   301.23503632
 H      8   7   6     1.096783864324   112.91726793   181.18012594
 H      8   7   6     1.097295322962   110.68809381    61.07114460
 H      9   7   6     1.007359348618   119.85949415   186.12539541
 H     12  10   9     1.012204253022   114.81627131   181.56479968
 H     13  12  10     1.099742353098   100.21753003   121.33927879
 H     15  14  13     1.087425939372   119.77198227   358.75361546
 H     16  15  14     1.088471377680   119.92046187   179.55477419
 H     17  16  15     1.084840126636   119.88343241   179.89138703
 H     19  18  17     0.968872949328   107.37472749     1.34702353
 H     20  18  17     1.084835797490   119.29824910   180.21958955

---------------------------
INTERNAL COORDINATES (A.U.)
---------------------------
 C      0   0   0     0.000000000000     0.00000000     0.00000000
 C      1   0   0     2.906218107493     0.00000000     0.00000000
 O      2   1   0     2.716583455272   107.34901987     0.00000000
 C      3   2   1     2.578721318008   119.19916875   154.66627813
 O      4   3   2     2.306092099918   122.03615222    11.25356599
 C      4   3   2     2.842613033778   115.22461495   194.15918543
 C      6   4   3     2.570678856929   123.11135350   333.12423428
 C      7   6   4     2.865720294636   128.17789274    11.60419966
 N      7   6   4     2.640753342885   120.66933018   193.34479635
 C      9   7   6     2.586063021121   124.55660443    11.20066502
 S     10   9   7     3.125536582213   121.85935051   175.38068701
 N     10   9   7     2.591522090565   116.36879006   356.45547155
 C     12  10   9     2.788486712342   125.30507582   352.84602366
 C     13  12  10     2.878361405569   113.05043636   239.10581297
 C     14  13  12     2.657974008576   120.69044922   236.49865460
 C     15  14  13     2.655079990018   120.57647008   179.80425678
 C     16  15  14     2.655980294240   119.64780474   359.91645680
 C     17  16  15     2.648891529821   119.88695977     0.15508275
 O     18  17  16     2.564323082203   120.00796605   179.82304676
 C     18  17  16     2.642852359112   120.32730304   359.86738927
 H      1   2   3     2.073392305342   110.63885348   300.36252580
 H      1   2   3     2.072731460745   110.49945422   180.52086380
 H      1   2   3     2.073089309576   110.65962298    60.62370580
 H      2   1   3     2.076929754057   108.59846793   119.71755328
 H      2   1   3     2.074810166617   111.06720015   239.04084809
 H      8   7   6     2.073349789069   110.82069204   301.23503632
 H      8   7   6     2.072621131677   112.91726793   181.18012594
 H      8   7   6     2.073587648431   110.68809381    61.07114460
 H      9   7   6     1.903633287333   119.85949415   186.12539541
 H     12  10   9     1.912788829803   114.81627131   181.56479968
 H     13  12  10     2.078211865230   100.21753003   121.33927879
 H     15  14  13     2.054937216335   119.77198227   358.75361546
 H     16  15  14     2.056912808427   119.92046187   179.55477419
 H     17  16  15     2.050050738430   119.88343241   179.89138703
 H     19  18  17     1.830904532794   107.37472749     1.34702353
 H     20  18  17     2.050042557531   119.29824910   180.21958955

---------------------
BASIS SET INFORMATION
---------------------
There are 5 groups of distinct atoms

 Group   1 Type C   : 18s5p2d1f contracted to 4s3p2d1f pattern {8811/311/11/1}
 Group   2 Type O   : 18s5p2d1f contracted to 4s3p2d1f pattern {8811/311/11/1}
 Group   3 Type N   : 18s5p2d1f contracted to 4s3p2d1f pattern {8811/311/11/1}
 Group   4 Type S   : 41s16p2d1f contracted to 5s4p2d1f pattern {13131311/7711/11/1}
 Group   5 Type H   : 5s2p1d contracted to 3s2p1d pattern {311/11/1}

Atom   0C    basis set group =>   1
Atom   1C    basis set group =>   1
Atom   2O    basis set group =>   2
Atom   3C    basis set group =>   1
Atom   4O    basis set group =>   2
Atom   5C    basis set group =>   1
Atom   6C    basis set group =>   1
Atom   7C    basis set group =>   1
Atom   8N    basis set group =>   3
Atom   9C    basis set group =>   1
Atom  10S    basis set group =>   4
Atom  11N    basis set group =>   3
Atom  12C    basis set group =>   1
Atom  13C    basis set group =>   1
Atom  14C    basis set group =>   1
Atom  15C    basis set group =>   1
Atom  16C    basis set group =>   1
Atom  17C    basis set group =>   1
Atom  18O    basis set group =>   2
Atom  19C    basis set group =>   1
Atom  20H    basis set group =>   5
Atom  21H    basis set group =>   5
Atom  22H    basis set group =>   5
Atom  23H    basis set group =>   5
Atom  24H    basis set group =>   5
Atom  25H    basis set group =>   5
Atom  26H    basis set group =>   5
Atom  27H    basis set group =>   5
Atom  28H    basis set group =>   5
Atom  29H    basis set group =>   5
Atom  30H    basis set group =>   5
Atom  31H    basis set group =>   5
Atom  32H    basis set group =>   5
Atom  33H    basis set group =>   5
Atom  34H    basis set group =>   5
Atom  35H    basis set group =>   5
---------------------------------
AUXILIARY/C BASIS SET INFORMATION
---------------------------------
There are 5 groups of distinct atoms

 Group   1 Type C   : 8s6p5d3f1g contracted to 8s6p5d3f1g pattern {11111111/111111/11111/111/1}
 Group   2 Type O   : 8s6p5d3f1g contracted to 8s6p5d3f1g pattern {11111111/111111/11111/111/1}
 Group   3 Type N   : 8s6p5d3f1g contracted to 8s6p5d3f1g pattern {11111111/111111/11111/111/1}
 Group   4 Type S   : 10s8p7d5f2g contracted to 10s8p7d5f2g pattern {1111111111/11111111/1111111/11111/11}
 Group   5 Type H   : 4s3p2d1f contracted to 4s3p2d1f pattern {1111/111/11/1}

Atom   0C    basis set group =>   1
Atom   1C    basis set group =>   1
Atom   2O    basis set group =>   2
Atom   3C    basis set group =>   1
Atom   4O    basis set group =>   2
Atom   5C    basis set group =>   1
Atom   6C    basis set group =>   1
Atom   7C    basis set group =>   1
Atom   8N    basis set group =>   3
Atom   9C    basis set group =>   1
Atom  10S    basis set group =>   4
Atom  11N    basis set group =>   3
Atom  12C    basis set group =>   1
Atom  13C    basis set group =>   1
Atom  14C    basis set group =>   1
Atom  15C    basis set group =>   1
Atom  16C    basis set group =>   1
Atom  17C    basis set group =>   1
Atom  18O    basis set group =>   2
Atom  19C    basis set group =>   1
Atom  20H    basis set group =>   5
Atom  21H    basis set group =>   5
Atom  22H    basis set group =>   5
Atom  23H    basis set group =>   5
Atom  24H    basis set group =>   5
Atom  25H    basis set group =>   5
Atom  26H    basis set group =>   5
Atom  27H    basis set group =>   5
Atom  28H    basis set group =>   5
Atom  29H    basis set group =>   5
Atom  30H    basis set group =>   5
Atom  31H    basis set group =>   5
Atom  32H    basis set group =>   5
Atom  33H    basis set group =>   5
Atom  34H    basis set group =>   5
Atom  35H    basis set group =>   5
------------------------------------------------------------------------------
                           ORCA GTO INTEGRAL CALCULATION
------------------------------------------------------------------------------

                         BASIS SET STATISTICS AND STARTUP INFO

 # of primitive gaussian shells          ...  682
 # of primitive gaussian functions       ... 1312
 # of contracted shells                  ...  298
 # of contracted basis functions         ...  828
 Highest angular momentum                ...    3
 Maximum contraction depth               ...   13
 Integral package used                   ... LIBINT
 Integral threshhold            Thresh   ...  2.500e-11
 Primitive cut-off              TCut     ...  2.500e-12


------------------------------ INTEGRAL EVALUATION ----------------------------


 * One electron integrals 
 Pre-screening matrix                    ... done
 Shell pair data                         ... done (   0.011 sec)

-------------------------------------------------------------------------------
                                 ORCA SCF
-------------------------------------------------------------------------------

------------
SCF SETTINGS
------------
Hamiltonian:
 Ab initio Hamiltonian  Method          .... Hartree-Fock(GTOs)


General Settings:
 Integral files         IntName         .... CONFS/Conf870.orca
 Hartree-Fock type      HFTyp           .... RHF
 Total Charge           Charge          ....    0
 Multiplicity           Mult            ....    1
 Number of Electrons    NEL             ....  154
 Basis Dimension        Dim             ....  828
 Nuclear Repulsion      ENuc            ....   1668.9845198701 Eh

Convergence Acceleration:
 DIIS                   CNVDIIS         .... on
   Start iteration      DIISMaxIt       ....    12
   Startup error        DIISStart       ....  0.200000
   # of expansion vecs  DIISMaxEq       ....     5
   Bias factor          DIISBfac        ....   1.050
   Max. coefficient     DIISMaxC        ....  10.000
 Newton-Raphson         CNVNR           .... off
 SOSCF                  CNVSOSCF        .... on
   Start iteration      SOSCFMaxIt      ....   150
   Startup grad/error   SOSCFStart      ....  0.003300
 Level Shifting         CNVShift        .... on
   Level shift para.    LevelShift      ....    0.2500
   Turn off err/grad.   ShiftErr        ....    0.0010
 Zerner damping         CNVZerner       .... off
 Static damping         CNVDamp         .... on
   Fraction old density DampFac         ....    0.7000
   Max. Damping (<1)    DampMax         ....    0.9800
   Min. Damping (>=0)   DampMin         ....    0.0000
   Turn off err/grad.   DampErr         ....    0.1000
 Fernandez-Rico         CNVRico         .... off

SCF Procedure:
 Maximum # iterations   MaxIter         ....   125
 SCF integral mode      SCFMode         .... Direct
   Integral package                     .... LIBINT
 Reset frequency        DirectResetFreq ....    20
 Integral Threshold     Thresh          ....  2.500e-11 Eh
 Primitive CutOff       TCut            ....  2.500e-12 Eh

Convergence Tolerance:
 Convergence Check Mode ConvCheckMode   .... Total+1el-Energy
 Convergence forced     ConvForced      .... 1
 Energy Change          TolE            ....  1.000e-08 Eh
 1-El. energy change                    ....  1.000e-05 Eh
 Orbital Gradient       TolG            ....  1.000e-05
 Orbital Rotation angle TolX            ....  1.000e-05
 DIIS Error             TolErr          ....  5.000e-07


Diagonalization of the overlap matrix:
Smallest eigenvalue                        ... 3.552e-05
Time for diagonalization                   ...    0.299 sec
Threshold for overlap eigenvalues          ... 1.000e-08
Number of eigenvalues below threshold      ... 0
Time for construction of square roots      ...    0.497 sec
Total time needed                          ...    0.797 sec

-------------------
DFT GRID GENERATION
-------------------

General Integration Accuracy     IntAcc      ...  4.340
Radial Grid Type                 RadialGrid  ... Gauss-Chebyshev
Angular Grid (max. acc.)         AngularGrid ... Lebedev-110
Angular grid pruning method      GridPruning ... 3 (G Style)
Weight generation scheme         WeightScheme... Becke
Basis function cutoff            BFCut       ...    1.0000e-11
Integration weight cutoff        WCut        ...    1.0000e-14
Grids for H and He will be reduced by one unit

# of grid points (after initial pruning)     ...  46246 (   0.0 sec)
# of grid points (after weights+screening)   ...  41489 (   0.3 sec)
nearest neighbour list constructed           ...    0.0 sec
Grid point re-assignment to atoms done       ...    0.0 sec
Grid point division into batches done        ...    0.0 sec
Reduced shell lists constructed in    0.8 sec

Total number of grid points                  ...    41489
Total number of batches                      ...      665
Average number of points per batch           ...       62
Average number of grid points per atom       ...     1152
Average number of shells per batch           ...   141.31 (47.42%)
Average number of basis functions per batch  ...   358.81 (43.33%)
Average number of large shells per batch     ...    90.28 (63.89%)
Average number of large basis fcns per batch ...   233.74 (65.14%)
Maximum spatial batch extension              ...  26.16, 19.83, 19.14 au
Average spatial batch extension              ...   3.64,  3.28,  3.31 au

Time for grid setup =    1.112 sec

------------------------------
INITIAL GUESS: MODEL POTENTIAL
------------------------------
Loading Hartree-Fock densities                     ... done
Calculating cut-offs                               ... done
Setting up the integral package                    ... done
Initializing the effective Hamiltonian             ... done
Starting the Coulomb interaction                   ... done (   2.7 sec)
Reading the grid                                   ... done
Mapping shells                                     ... done
Starting the XC term evaluation                    ... done (   1.0 sec)
Transforming the Hamiltonian                       ... done (   0.2 sec)
Diagonalizing the Hamiltonian                      ... done (   0.3 sec)
Back transforming the eigenvectors                 ... done (   0.1 sec)
Now organizing SCF variables                       ... done
                      ------------------
                      INITIAL GUESS DONE (   6.0 sec)
                      ------------------
--------------
SCF ITERATIONS
--------------
ITER       Energy         Delta-E        Max-DP      RMS-DP      [F,P]     Damp
               ***  Starting incremental Fock matrix formation  ***
  0  -1270.0163366345   0.000000000000 0.04931129  0.00042638  0.3068531 0.7000
  1  -1270.2841431454  -0.267806510870 0.03607893  0.00034274  0.1774177 0.7000
                               ***Turning on DIIS***
  2  -1270.4512043184  -0.167061172962 0.02583739  0.00023132  0.1097485 0.7000
  3  -1272.5923103966  -2.141106078245 0.06314327  0.00050638  0.0829688 0.0000
  4  -1270.7605322780   1.831778118637 0.00700352  0.00009286  0.0069641 0.0000
  5  -1270.8216357862  -0.061103508244 0.00351593  0.00004901  0.0035778 0.0000
                      *** Initiating the SOSCF procedure ***
                           *** Shutting down DIIS ***
                      *** Re-Reading the Fockian *** 
                      *** Removing any level shift *** 
ITER      Energy       Delta-E        Grad      Rot      Max-DP    RMS-DP
  6  -1270.79970619   0.0219296007  0.001672  0.001672  0.001705  0.000025
               *** Restarting incremental Fock matrix formation ***
  7  -1270.81424158  -0.0145353898  0.000856  0.002174  0.001259  0.000015
  8  -1270.81428527  -0.0000436926  0.000442  0.002497  0.001375  0.000016
  9  -1270.81430144  -0.0000161739  0.000162  0.000301  0.000347  0.000004
 10  -1270.81430338  -0.0000019378  0.000052  0.000135  0.000108  0.000001
 11  -1270.81430357  -0.0000001860  0.000021  0.000112  0.000056  0.000001
 12  -1270.81430362  -0.0000000501  0.000009  0.000034  0.000026  0.000000
 13  -1270.81430362  -0.0000000011  0.000003  0.000009  0.000005  0.000000
                  ***Gradient check signals convergence***
              ***Rediagonalizing the Fockian in SOSCF/NRSCF***

               *****************************************************
               *                     SUCCESS                       *
               *           SCF CONVERGED AFTER  14 CYCLES          *
               *****************************************************


----------------
TOTAL SCF ENERGY
----------------

Total Energy       :        -1270.81430361 Eh          -34580.61525 eV

Components:
Nuclear Repulsion  :         1668.98451987 Eh           45415.37766 eV
Electronic Energy  :        -2939.79882348 Eh          -79995.99290 eV
One Electron Energy:        -5059.39605382 Eh         -137673.16579 eV
Two Electron Energy:         2119.59723034 Eh           57677.17289 eV

Virial components:
Potential Energy   :        -2539.76685951 Eh          -69110.56976 eV
Kinetic Energy     :         1268.95255590 Eh           34529.95452 eV
Virial Ratio       :            2.00146715


---------------
SCF CONVERGENCE
---------------

  Last Energy change         ...    9.4669e-09  Tolerance :   1.0000e-08
  Last MAX-Density change    ...    1.9676e-06  Tolerance :   1.0000e-07
  Last RMS-Density change    ...    2.9199e-08  Tolerance :   5.0000e-09
  Last Orbital Gradient      ...    1.0998e-06  Tolerance :   1.0000e-05
  Last Orbital Rotation      ...    3.1918e-06  Tolerance :   1.0000e-05

             **** THE GBW FILE WAS UPDATED (CONFS/Conf870.orca.gbw) ****
             **** DENSITY FILE WAS UPDATED (CONFS/Conf870.orca.scfp) ****
             **** ENERGY FILE WAS UPDATED (CONFS/Conf870.orca.en.tmp) ****
             **** THE GBW FILE WAS UPDATED (CONFS/Conf870.orca.gbw) ****
             **** DENSITY FILE WAS UPDATED (CONFS/Conf870.orca.scfp) ****
----------------
ORBITAL ENERGIES
----------------

  NO   OCC          E(Eh)            E(eV) 
   0   2.0000     -91.887747     -2500.3927 
   1   2.0000     -20.604885      -560.6874 
   2   2.0000     -20.591057      -560.3112 
   3   2.0000     -20.544562      -559.0459 
   4   2.0000     -15.628369      -425.2695 
   5   2.0000     -15.605359      -424.6434 
   6   2.0000     -11.395305      -310.0820 
   7   2.0000     -11.382216      -309.7258 
   8   2.0000     -11.338312      -308.5312 
   9   2.0000     -11.306956      -307.6779 
  10   2.0000     -11.303857      -307.5936 
  11   2.0000     -11.299627      -307.4785 
  12   2.0000     -11.261336      -306.4365 
  13   2.0000     -11.259012      -306.3733 
  14   2.0000     -11.254225      -306.2430 
  15   2.0000     -11.246992      -306.0462 
  16   2.0000     -11.237257      -305.7813 
  17   2.0000     -11.235095      -305.7225 
  18   2.0000     -11.233412      -305.6767 
  19   2.0000     -11.230126      -305.5873 
  20   2.0000      -8.892833      -241.9863 
  21   2.0000      -6.574412      -178.8988 
  22   2.0000      -6.572408      -178.8443 
  23   2.0000      -6.571821      -178.8283 
  24   2.0000      -1.455409       -39.6037 
  25   2.0000      -1.410802       -38.3899 
  26   2.0000      -1.357055       -36.9273 
  27   2.0000      -1.339721       -36.4557 
  28   2.0000      -1.236837       -33.6561 
  29   2.0000      -1.151663       -31.3383 
  30   2.0000      -1.120389       -30.4873 
  31   2.0000      -1.045167       -28.4404 
  32   2.0000      -1.036738       -28.2111 
  33   2.0000      -1.009206       -27.4619 
  34   2.0000      -0.998547       -27.1719 
  35   2.0000      -0.983555       -26.7639 
  36   2.0000      -0.920251       -25.0413 
  37   2.0000      -0.888981       -24.1904 
  38   2.0000      -0.846851       -23.0440 
  39   2.0000      -0.834149       -22.6984 
  40   2.0000      -0.827261       -22.5109 
  41   2.0000      -0.817283       -22.2394 
  42   2.0000      -0.762781       -20.7563 
  43   2.0000      -0.736046       -20.0288 
  44   2.0000      -0.725524       -19.7425 
  45   2.0000      -0.690684       -18.7945 
  46   2.0000      -0.684876       -18.6364 
  47   2.0000      -0.679953       -18.5025 
  48   2.0000      -0.674983       -18.3672 
  49   2.0000      -0.660832       -17.9822 
  50   2.0000      -0.648744       -17.6532 
  51   2.0000      -0.642139       -17.4735 
  52   2.0000      -0.633187       -17.2299 
  53   2.0000      -0.603167       -16.4130 
  54   2.0000      -0.598318       -16.2811 
  55   2.0000      -0.594594       -16.1797 
  56   2.0000      -0.591943       -16.1076 
  57   2.0000      -0.582861       -15.8604 
  58   2.0000      -0.572393       -15.5756 
  59   2.0000      -0.564140       -15.3510 
  60   2.0000      -0.561713       -15.2850 
  61   2.0000      -0.556346       -15.1389 
  62   2.0000      -0.540887       -14.7183 
  63   2.0000      -0.522433       -14.2161 
  64   2.0000      -0.515221       -14.0199 
  65   2.0000      -0.509694       -13.8695 
  66   2.0000      -0.502164       -13.6646 
  67   2.0000      -0.493707       -13.4344 
  68   2.0000      -0.480868       -13.0851 
  69   2.0000      -0.467046       -12.7090 
  70   2.0000      -0.458208       -12.4685 
  71   2.0000      -0.454235       -12.3604 
  72   2.0000      -0.352956        -9.6044 
  73   2.0000      -0.343875        -9.3573 
  74   2.0000      -0.326823        -8.8933 
  75   2.0000      -0.316872        -8.6225 
  76   2.0000      -0.313517        -8.5312 
  77   0.0000       0.077826         2.1178 
  78   0.0000       0.112453         3.0600 
  79   0.0000       0.119897         3.2626 
  80   0.0000       0.136100         3.7035 
  81   0.0000       0.138737         3.7752 
  82   0.0000       0.146320         3.9816 
  83   0.0000       0.154152         4.1947 
  84   0.0000       0.164354         4.4723 
  85   0.0000       0.165744         4.5101 
  86   0.0000       0.170116         4.6291 
  87   0.0000       0.173350         4.7171 
  88   0.0000       0.187926         5.1137 
  89   0.0000       0.193894         5.2761 
  90   0.0000       0.202029         5.4975 
  91   0.0000       0.207376         5.6430 
  92   0.0000       0.213796         5.8177 
  93   0.0000       0.214565         5.8386 
  94   0.0000       0.221274         6.0212 
  95   0.0000       0.236842         6.4448 
  96   0.0000       0.238817         6.4985 
  97   0.0000       0.247157         6.7255 
  98   0.0000       0.253092         6.8870 
  99   0.0000       0.273848         7.4518 
 100   0.0000       0.302473         8.2307 
 101   0.0000       0.309115         8.4114 
 102   0.0000       0.315636         8.5889 
 103   0.0000       0.319786         8.7018 
 104   0.0000       0.321692         8.7537 
 105   0.0000       0.328406         8.9364 
 106   0.0000       0.349204         9.5023 
 107   0.0000       0.351837         9.5740 
 108   0.0000       0.353814         9.6278 
 109   0.0000       0.362698         9.8695 
 110   0.0000       0.371549        10.1103 
 111   0.0000       0.381998        10.3947 
 112   0.0000       0.384315        10.4578 
 113   0.0000       0.389257        10.5922 
 114   0.0000       0.395556        10.7636 
 115   0.0000       0.408314        11.1108 
 116   0.0000       0.424410        11.5488 
 117   0.0000       0.425432        11.5766 
 118   0.0000       0.431055        11.7296 
 119   0.0000       0.439946        11.9715 
 120   0.0000       0.443710        12.0740 
 121   0.0000       0.446314        12.1448 
 122   0.0000       0.454726        12.3737 
 123   0.0000       0.457696        12.4546 
 124   0.0000       0.463125        12.6023 
 125   0.0000       0.465782        12.6746 
 126   0.0000       0.466233        12.6868 
 127   0.0000       0.485995        13.2246 
 128   0.0000       0.493631        13.4324 
 129   0.0000       0.495235        13.4760 
 130   0.0000       0.498309        13.5597 
 131   0.0000       0.504446        13.7267 
 132   0.0000       0.514809        14.0087 
 133   0.0000       0.521650        14.1948 
 134   0.0000       0.523301        14.2397 
 135   0.0000       0.527367        14.3504 
 136   0.0000       0.538182        14.6447 
 137   0.0000       0.539869        14.6906 
 138   0.0000       0.541444        14.7334 
 139   0.0000       0.547051        14.8860 
 140   0.0000       0.553951        15.0738 
 141   0.0000       0.563937        15.3455 
 142   0.0000       0.565699        15.3935 
 143   0.0000       0.572949        15.5907 
 144   0.0000       0.575430        15.6582 
 145   0.0000       0.581159        15.8141 
 146   0.0000       0.586206        15.9515 
 147   0.0000       0.589116        16.0307 
 148   0.0000       0.591869        16.1056 
 149   0.0000       0.597160        16.2495 
 150   0.0000       0.598352        16.2820 
 151   0.0000       0.605988        16.4898 
 152   0.0000       0.608689        16.5633 
 153   0.0000       0.614024        16.7085 
 154   0.0000       0.618498        16.8302 
 155   0.0000       0.620755        16.8916 
 156   0.0000       0.625772        17.0281 
 157   0.0000       0.628045        17.0900 
 158   0.0000       0.637003        17.3337 
 159   0.0000       0.638420        17.3723 
 160   0.0000       0.641903        17.4671 
 161   0.0000       0.643677        17.5153 
 162   0.0000       0.652923        17.7669 
 163   0.0000       0.654184        17.8013 
 164   0.0000       0.661592        18.0028 
 165   0.0000       0.662077        18.0160 
 166   0.0000       0.670502        18.2453 
 167   0.0000       0.680845        18.5267 
 168   0.0000       0.682962        18.5843 
 169   0.0000       0.685448        18.6520 
 170   0.0000       0.695213        18.9177 
 171   0.0000       0.703279        19.1372 
 172   0.0000       0.705978        19.2106 
 173   0.0000       0.717820        19.5329 
 174   0.0000       0.723518        19.6879 
 175   0.0000       0.727649        19.8003 
 176   0.0000       0.728851        19.8330 
 177   0.0000       0.737969        20.0812 
 178   0.0000       0.743385        20.2285 
 179   0.0000       0.753604        20.5066 
 180   0.0000       0.759936        20.6789 
 181   0.0000       0.763794        20.7839 
 182   0.0000       0.774298        21.0697 
 183   0.0000       0.788872        21.4663 
 184   0.0000       0.800091        21.7716 
 185   0.0000       0.801448        21.8085 
 186   0.0000       0.808022        21.9874 
 187   0.0000       0.817231        22.2380 
 188   0.0000       0.829843        22.5812 
 189   0.0000       0.833100        22.6698 
 190   0.0000       0.839952        22.8562 
 191   0.0000       0.843580        22.9550 
 192   0.0000       0.847324        23.0568 
 193   0.0000       0.860566        23.4172 
 194   0.0000       0.867592        23.6084 
 195   0.0000       0.869190        23.6519 
 196   0.0000       0.887237        24.1429 
 197   0.0000       0.895285        24.3619 
 198   0.0000       0.899505        24.4768 
 199   0.0000       0.906998        24.6807 
 200   0.0000       0.911098        24.7922 
 201   0.0000       0.920986        25.0613 
 202   0.0000       0.924333        25.1524 
 203   0.0000       0.931453        25.3461 
 204   0.0000       0.936321        25.4786 
 205   0.0000       0.940545        25.5935 
 206   0.0000       0.947497        25.7827 
 207   0.0000       0.955327        25.9958 
 208   0.0000       0.966224        26.2923 
 209   0.0000       0.970231        26.4013 
 210   0.0000       0.981015        26.6948 
 211   0.0000       0.991431        26.9782 
 212   0.0000       0.993383        27.0313 
 213   0.0000       0.996914        27.1274 
 214   0.0000       1.005856        27.3707 
 215   0.0000       1.010957        27.5095 
 216   0.0000       1.017855        27.6973 
 217   0.0000       1.028788        27.9947 
 218   0.0000       1.035704        28.1829 
 219   0.0000       1.043089        28.3839 
 220   0.0000       1.053996        28.6807 
 221   0.0000       1.054329        28.6898 
 222   0.0000       1.060402        28.8550 
 223   0.0000       1.078415        29.3452 
 224   0.0000       1.080068        29.3901 
 225   0.0000       1.092334        29.7239 
 226   0.0000       1.092570        29.7303 
 227   0.0000       1.097109        29.8539 
 228   0.0000       1.106805        30.1177 
 229   0.0000       1.115991        30.3677 
 230   0.0000       1.120368        30.4868 
 231   0.0000       1.127903        30.6918 
 232   0.0000       1.137837        30.9621 
 233   0.0000       1.140638        31.0383 
 234   0.0000       1.150341        31.3024 
 235   0.0000       1.160909        31.5899 
 236   0.0000       1.166252        31.7353 
 237   0.0000       1.171225        31.8707 
 238   0.0000       1.179620        32.0991 
 239   0.0000       1.181739        32.1567 
 240   0.0000       1.187124        32.3033 
 241   0.0000       1.199074        32.6285 
 242   0.0000       1.208170        32.8760 
 243   0.0000       1.209812        32.9207 
 244   0.0000       1.211080        32.9552 
 245   0.0000       1.222870        33.2760 
 246   0.0000       1.225401        33.3449 
 247   0.0000       1.238942        33.7133 
 248   0.0000       1.244077        33.8531 
 249   0.0000       1.250571        34.0298 
 250   0.0000       1.258346        34.2413 
 251   0.0000       1.262454        34.3531 
 252   0.0000       1.270004        34.5586 
 253   0.0000       1.272317        34.6215 
 254   0.0000       1.280843        34.8535 
 255   0.0000       1.291058        35.1315 
 256   0.0000       1.295620        35.2556 
 257   0.0000       1.304164        35.4881 
 258   0.0000       1.306755        35.5586 
 259   0.0000       1.322801        35.9953 
 260   0.0000       1.332091        36.2480 
 261   0.0000       1.338573        36.4244 
 262   0.0000       1.350228        36.7416 
 263   0.0000       1.355990        36.8984 
 264   0.0000       1.369008        37.2526 
 265   0.0000       1.375404        37.4267 
 266   0.0000       1.383185        37.6384 
 267   0.0000       1.387328        37.7511 
 268   0.0000       1.397479        38.0273 
 269   0.0000       1.406961        38.2854 
 270   0.0000       1.414396        38.4877 
 271   0.0000       1.420134        38.6438 
 272   0.0000       1.428346        38.8673 
 273   0.0000       1.439304        39.1655 
 274   0.0000       1.445264        39.3276 
 275   0.0000       1.463302        39.8185 
 276   0.0000       1.468157        39.9506 
 277   0.0000       1.470599        40.0170 
 278   0.0000       1.480297        40.2809 
 279   0.0000       1.486453        40.4484 
 280   0.0000       1.488800        40.5123 
 281   0.0000       1.498389        40.7732 
 282   0.0000       1.503713        40.9181 
 283   0.0000       1.511372        41.1265 
 284   0.0000       1.519722        41.3537 
 285   0.0000       1.530527        41.6478 
 286   0.0000       1.532796        41.7095 
 287   0.0000       1.539457        41.8907 
 288   0.0000       1.542484        41.9731 
 289   0.0000       1.545208        42.0473 
 290   0.0000       1.559875        42.4464 
 291   0.0000       1.561872        42.5007 
 292   0.0000       1.565542        42.6006 
 293   0.0000       1.579723        42.9864 
 294   0.0000       1.582241        43.0550 
 295   0.0000       1.586619        43.1741 
 296   0.0000       1.589663        43.2569 
 297   0.0000       1.610798        43.8321 
 298   0.0000       1.619928        44.0805 
 299   0.0000       1.622146        44.1408 
 300   0.0000       1.630823        44.3770 
 301   0.0000       1.636913        44.5427 
 302   0.0000       1.641840        44.6768 
 303   0.0000       1.645116        44.7659 
 304   0.0000       1.657652        45.1070 
 305   0.0000       1.663307        45.2609 
 306   0.0000       1.670398        45.4538 
 307   0.0000       1.676883        45.6303 
 308   0.0000       1.687735        45.9256 
 309   0.0000       1.696165        46.1550 
 310   0.0000       1.703296        46.3490 
 311   0.0000       1.711984        46.5854 
 312   0.0000       1.720127        46.8070 
 313   0.0000       1.726203        46.9724 
 314   0.0000       1.735300        47.2199 
 315   0.0000       1.761047        47.9205 
 316   0.0000       1.763317        47.9823 
 317   0.0000       1.770146        48.1681 
 318   0.0000       1.786400        48.6104 
 319   0.0000       1.795923        48.8696 
 320   0.0000       1.801441        49.0197 
 321   0.0000       1.810213        49.2584 
 322   0.0000       1.833527        49.8928 
 323   0.0000       1.839821        50.0641 
 324   0.0000       1.852416        50.4068 
 325   0.0000       1.876546        51.0634 
 326   0.0000       1.879831        51.1528 
 327   0.0000       1.903695        51.8022 
 328   0.0000       1.908095        51.9219 
 329   0.0000       1.910591        51.9898 
 330   0.0000       1.918179        52.1963 
 331   0.0000       1.935052        52.6554 
 332   0.0000       1.940495        52.8035 
 333   0.0000       1.954361        53.1809 
 334   0.0000       1.958826        53.3024 
 335   0.0000       1.972289        53.6687 
 336   0.0000       1.981001        53.9058 
 337   0.0000       2.004364        54.5415 
 338   0.0000       2.014321        54.8125 
 339   0.0000       2.019738        54.9599 
 340   0.0000       2.023368        55.0586 
 341   0.0000       2.032684        55.3121 
 342   0.0000       2.048046        55.7302 
 343   0.0000       2.056289        55.9545 
 344   0.0000       2.083799        56.7031 
 345   0.0000       2.106877        57.3310 
 346   0.0000       2.122994        57.7696 
 347   0.0000       2.133472        58.0547 
 348   0.0000       2.154290        58.6212 
 349   0.0000       2.167943        58.9927 
 350   0.0000       2.176280        59.2196 
 351   0.0000       2.209158        60.1142 
 352   0.0000       2.212090        60.1940 
 353   0.0000       2.214301        60.2542 
 354   0.0000       2.231428        60.7202 
 355   0.0000       2.250189        61.2308 
 356   0.0000       2.274621        61.8956 
 357   0.0000       2.283643        62.1411 
 358   0.0000       2.302601        62.6570 
 359   0.0000       2.308469        62.8166 
 360   0.0000       2.316519        63.0357 
 361   0.0000       2.323802        63.2339 
 362   0.0000       2.344025        63.7842 
 363   0.0000       2.346711        63.8573 
 364   0.0000       2.363381        64.3109 
 365   0.0000       2.375424        64.6386 
 366   0.0000       2.384274        64.8794 
 367   0.0000       2.393588        65.1328 
 368   0.0000       2.402664        65.3798 
 369   0.0000       2.413790        65.6826 
 370   0.0000       2.433283        66.2130 
 371   0.0000       2.436023        66.2876 
 372   0.0000       2.468441        67.1697 
 373   0.0000       2.474987        67.3478 
 374   0.0000       2.479705        67.4762 
 375   0.0000       2.489959        67.7552 
 376   0.0000       2.506669        68.2099 
 377   0.0000       2.514889        68.4336 
 378   0.0000       2.523745        68.6746 
 379   0.0000       2.532026        68.8999 
 380   0.0000       2.548378        69.3449 
 381   0.0000       2.571869        69.9841 
 382   0.0000       2.581561        70.2478 
 383   0.0000       2.595340        70.6228 
 384   0.0000       2.603662        70.8493 
 385   0.0000       2.610274        71.0292 
 386   0.0000       2.635011        71.7023 
 387   0.0000       2.638015        71.7840 
 388   0.0000       2.646236        72.0077 
 389   0.0000       2.655100        72.2490 
 390   0.0000       2.674573        72.7788 
 391   0.0000       2.679655        72.9171 
 392   0.0000       2.707726        73.6810 
 393   0.0000       2.712264        73.8044 
 394   0.0000       2.713819        73.8468 
 395   0.0000       2.725535        74.1656 
 396   0.0000       2.736116        74.4535 
 397   0.0000       2.743444        74.6529 
 398   0.0000       2.747549        74.7646 
 399   0.0000       2.752026        74.8864 
 400   0.0000       2.765507        75.2533 
 401   0.0000       2.766939        75.2922 
 402   0.0000       2.788099        75.8680 
 403   0.0000       2.796078        76.0852 
 404   0.0000       2.814190        76.5780 
 405   0.0000       2.822443        76.8026 
 406   0.0000       2.828851        76.9770 
 407   0.0000       2.834718        77.1366 
 408   0.0000       2.847596        77.4870 
 409   0.0000       2.849212        77.5310 
 410   0.0000       2.856272        77.7231 
 411   0.0000       2.864654        77.9512 
 412   0.0000       2.875849        78.2558 
 413   0.0000       2.887930        78.5846 
 414   0.0000       2.905671        79.0673 
 415   0.0000       2.914942        79.3196 
 416   0.0000       2.923861        79.5623 
 417   0.0000       2.944743        80.1305 
 418   0.0000       2.946147        80.1687 
 419   0.0000       2.959718        80.5380 
 420   0.0000       2.962274        80.6076 
 421   0.0000       2.964686        80.6732 
 422   0.0000       2.976452        80.9934 
 423   0.0000       2.980466        81.1026 
 424   0.0000       2.998440        81.5917 
 425   0.0000       3.001614        81.6781 
 426   0.0000       3.023527        82.2744 
 427   0.0000       3.033348        82.5416 
 428   0.0000       3.035491        82.5999 
 429   0.0000       3.040769        82.7435 
 430   0.0000       3.046090        82.8883 
 431   0.0000       3.050875        83.0185 
 432   0.0000       3.065467        83.4156 
 433   0.0000       3.074442        83.6598 
 434   0.0000       3.082213        83.8713 
 435   0.0000       3.084872        83.9436 
 436   0.0000       3.090659        84.1011 
 437   0.0000       3.091738        84.1305 
 438   0.0000       3.097094        84.2762 
 439   0.0000       3.105791        84.5129 
 440   0.0000       3.107941        84.5714 
 441   0.0000       3.116865        84.8142 
 442   0.0000       3.124113        85.0114 
 443   0.0000       3.127537        85.1046 
 444   0.0000       3.147005        85.6344 
 445   0.0000       3.150193        85.7211 
 446   0.0000       3.157640        85.9237 
 447   0.0000       3.159618        85.9776 
 448   0.0000       3.172128        86.3180 
 449   0.0000       3.188042        86.7510 
 450   0.0000       3.197895        87.0191 
 451   0.0000       3.202622        87.1478 
 452   0.0000       3.205890        87.2367 
 453   0.0000       3.212441        87.4150 
 454   0.0000       3.219386        87.6039 
 455   0.0000       3.224770        87.7504 
 456   0.0000       3.232819        87.9695 
 457   0.0000       3.248165        88.3871 
 458   0.0000       3.257687        88.6462 
 459   0.0000       3.262319        88.7722 
 460   0.0000       3.266099        88.8751 
 461   0.0000       3.273400        89.0738 
 462   0.0000       3.275488        89.1306 
 463   0.0000       3.282371        89.3179 
 464   0.0000       3.294598        89.6506 
 465   0.0000       3.306018        89.9613 
 466   0.0000       3.310461        90.0822 
 467   0.0000       3.316146        90.2369 
 468   0.0000       3.322201        90.4017 
 469   0.0000       3.328122        90.5628 
 470   0.0000       3.335141        90.7538 
 471   0.0000       3.346273        91.0567 
 472   0.0000       3.349666        91.1491 
 473   0.0000       3.353274        91.2472 
 474   0.0000       3.354104        91.2698 
 475   0.0000       3.360811        91.4523 
 476   0.0000       3.366968        91.6199 
 477   0.0000       3.377535        91.9074 
 478   0.0000       3.379224        91.9534 
 479   0.0000       3.389838        92.2422 
 480   0.0000       3.395642        92.4001 
 481   0.0000       3.399457        92.5039 
 482   0.0000       3.402120        92.5764 
 483   0.0000       3.407943        92.7348 
 484   0.0000       3.408431        92.7481 
 485   0.0000       3.411338        92.8272 
 486   0.0000       3.419953        93.0616 
 487   0.0000       3.422694        93.1362 
 488   0.0000       3.434949        93.4697 
 489   0.0000       3.440669        93.6254 
 490   0.0000       3.447131        93.8012 
 491   0.0000       3.455676        94.0337 
 492   0.0000       3.457015        94.0702 
 493   0.0000       3.459571        94.1397 
 494   0.0000       3.469943        94.4220 
 495   0.0000       3.474085        94.5347 
 496   0.0000       3.480292        94.7036 
 497   0.0000       3.485650        94.8494 
 498   0.0000       3.488107        94.9162 
 499   0.0000       3.500092        95.2423 
 500   0.0000       3.513342        95.6029 
 501   0.0000       3.516650        95.6929 
 502   0.0000       3.521859        95.8347 
 503   0.0000       3.530854        96.0794 
 504   0.0000       3.535273        96.1997 
 505   0.0000       3.543371        96.4200 
 506   0.0000       3.552240        96.6614 
 507   0.0000       3.555500        96.7501 
 508   0.0000       3.577783        97.3564 
 509   0.0000       3.584503        97.5393 
 510   0.0000       3.591791        97.7376 
 511   0.0000       3.598831        97.9292 
 512   0.0000       3.605634        98.1143 
 513   0.0000       3.614065        98.3437 
 514   0.0000       3.622381        98.5700 
 515   0.0000       3.629315        98.7587 
 516   0.0000       3.631196        98.8099 
 517   0.0000       3.632838        98.8546 
 518   0.0000       3.639086        99.0246 
 519   0.0000       3.640205        99.0550 
 520   0.0000       3.648792        99.2887 
 521   0.0000       3.656331        99.4938 
 522   0.0000       3.657648        99.5297 
 523   0.0000       3.664662        99.7205 
 524   0.0000       3.665572        99.7453 
 525   0.0000       3.679214       100.1165 
 526   0.0000       3.679801       100.1325 
 527   0.0000       3.684267       100.2540 
 528   0.0000       3.691027       100.4379 
 529   0.0000       3.695731       100.5659 
 530   0.0000       3.706428       100.8570 
 531   0.0000       3.712067       101.0105 
 532   0.0000       3.727566       101.4322 
 533   0.0000       3.729025       101.4719 
 534   0.0000       3.741915       101.8227 
 535   0.0000       3.743741       101.8724 
 536   0.0000       3.747888       101.9852 
 537   0.0000       3.755115       102.1819 
 538   0.0000       3.760684       102.3334 
 539   0.0000       3.772105       102.6442 
 540   0.0000       3.776591       102.7663 
 541   0.0000       3.780093       102.8616 
 542   0.0000       3.788555       103.0918 
 543   0.0000       3.793900       103.2373 
 544   0.0000       3.798554       103.3639 
 545   0.0000       3.801881       103.4544 
 546   0.0000       3.816048       103.8399 
 547   0.0000       3.823004       104.0292 
 548   0.0000       3.828822       104.1875 
 549   0.0000       3.837548       104.4250 
 550   0.0000       3.847535       104.6967 
 551   0.0000       3.860545       105.0508 
 552   0.0000       3.868785       105.2750 
 553   0.0000       3.875792       105.4657 
 554   0.0000       3.887312       105.7791 
 555   0.0000       3.892490       105.9200 
 556   0.0000       3.894965       105.9874 
 557   0.0000       3.911053       106.4252 
 558   0.0000       3.915147       106.5366 
 559   0.0000       3.930241       106.9473 
 560   0.0000       3.939514       107.1996 
 561   0.0000       3.944219       107.3277 
 562   0.0000       3.952554       107.5545 
 563   0.0000       3.962370       107.8216 
 564   0.0000       3.967429       107.9592 
 565   0.0000       3.978389       108.2575 
 566   0.0000       3.986734       108.4845 
 567   0.0000       3.997526       108.7782 
 568   0.0000       3.998648       108.8088 
 569   0.0000       4.017372       109.3183 
 570   0.0000       4.023912       109.4962 
 571   0.0000       4.029710       109.6540 
 572   0.0000       4.042307       109.9968 
 573   0.0000       4.052267       110.2678 
 574   0.0000       4.067290       110.6766 
 575   0.0000       4.069858       110.7465 
 576   0.0000       4.075198       110.8918 
 577   0.0000       4.086454       111.1981 
 578   0.0000       4.091906       111.3464 
 579   0.0000       4.098031       111.5131 
 580   0.0000       4.108977       111.8109 
 581   0.0000       4.117816       112.0515 
 582   0.0000       4.127300       112.3095 
 583   0.0000       4.132951       112.4633 
 584   0.0000       4.134930       112.5172 
 585   0.0000       4.141406       112.6934 
 586   0.0000       4.144437       112.7759 
 587   0.0000       4.155148       113.0673 
 588   0.0000       4.157192       113.1230 
 589   0.0000       4.164823       113.3306 
 590   0.0000       4.179440       113.7283 
 591   0.0000       4.183332       113.8343 
 592   0.0000       4.188093       113.9638 
 593   0.0000       4.193185       114.1024 
 594   0.0000       4.194861       114.1480 
 595   0.0000       4.215475       114.7089 
 596   0.0000       4.218307       114.7860 
 597   0.0000       4.225243       114.9747 
 598   0.0000       4.235809       115.2622 
 599   0.0000       4.244781       115.5064 
 600   0.0000       4.245803       115.5342 
 601   0.0000       4.254695       115.7761 
 602   0.0000       4.261141       115.9515 
 603   0.0000       4.276623       116.3728 
 604   0.0000       4.281308       116.5003 
 605   0.0000       4.290919       116.7618 
 606   0.0000       4.305173       117.1497 
 607   0.0000       4.311845       117.3313 
 608   0.0000       4.319366       117.5359 
 609   0.0000       4.327941       117.7693 
 610   0.0000       4.337733       118.0357 
 611   0.0000       4.342684       118.1704 
 612   0.0000       4.346707       118.2799 
 613   0.0000       4.359478       118.6274 
 614   0.0000       4.362773       118.7171 
 615   0.0000       4.371326       118.9498 
 616   0.0000       4.379596       119.1749 
 617   0.0000       4.380684       119.2045 
 618   0.0000       4.387132       119.3799 
 619   0.0000       4.398091       119.6781 
 620   0.0000       4.401368       119.7673 
 621   0.0000       4.408880       119.9717 
 622   0.0000       4.412227       120.0628 
 623   0.0000       4.428725       120.5117 
 624   0.0000       4.438197       120.7695 
 625   0.0000       4.441820       120.8681 
 626   0.0000       4.447617       121.0258 
 627   0.0000       4.457152       121.2853 
 628   0.0000       4.466308       121.5344 
 629   0.0000       4.483763       122.0094 
 630   0.0000       4.496797       122.3641 
 631   0.0000       4.504614       122.5768 
 632   0.0000       4.516491       122.9000 
 633   0.0000       4.518728       122.9609 
 634   0.0000       4.529886       123.2645 
 635   0.0000       4.545928       123.7010 
 636   0.0000       4.551196       123.8443 
 637   0.0000       4.556161       123.9794 
 638   0.0000       4.564661       124.2107 
 639   0.0000       4.566783       124.2685 
 640   0.0000       4.573860       124.4611 
 641   0.0000       4.590796       124.9219 
 642   0.0000       4.601481       125.2127 
 643   0.0000       4.608505       125.4038 
 644   0.0000       4.626288       125.8877 
 645   0.0000       4.627754       125.9276 
 646   0.0000       4.637052       126.1806 
 647   0.0000       4.638741       126.2266 
 648   0.0000       4.645542       126.4116 
 649   0.0000       4.652771       126.6083 
 650   0.0000       4.660096       126.8077 
 651   0.0000       4.665899       126.9656 
 652   0.0000       4.673300       127.1670 
 653   0.0000       4.678747       127.3152 
 654   0.0000       4.686365       127.5225 
 655   0.0000       4.691160       127.6529 
 656   0.0000       4.704395       128.0131 
 657   0.0000       4.714216       128.2803 
 658   0.0000       4.727040       128.6293 
 659   0.0000       4.733659       128.8094 
 660   0.0000       4.747001       129.1725 
 661   0.0000       4.753383       129.3461 
 662   0.0000       4.770239       129.8048 
 663   0.0000       4.785931       130.2318 
 664   0.0000       4.797681       130.5515 
 665   0.0000       4.808182       130.8373 
 666   0.0000       4.832336       131.4945 
 667   0.0000       4.852318       132.0383 
 668   0.0000       4.864542       132.3709 
 669   0.0000       4.894487       133.1858 
 670   0.0000       4.902073       133.3922 
 671   0.0000       4.912929       133.6876 
 672   0.0000       4.925841       134.0390 
 673   0.0000       4.944421       134.5445 
 674   0.0000       4.955863       134.8559 
 675   0.0000       4.997379       135.9856 
 676   0.0000       5.010075       136.3311 
 677   0.0000       5.020386       136.6116 
 678   0.0000       5.026576       136.7801 
 679   0.0000       5.040059       137.1470 
 680   0.0000       5.055700       137.5726 
 681   0.0000       5.064048       137.7998 
 682   0.0000       5.076235       138.1314 
 683   0.0000       5.091482       138.5463 
 684   0.0000       5.095992       138.6690 
 685   0.0000       5.103445       138.8718 
 686   0.0000       5.128512       139.5539 
 687   0.0000       5.139386       139.8498 
 688   0.0000       5.147361       140.0668 
 689   0.0000       5.149070       140.1133 
 690   0.0000       5.157367       140.3391 
 691   0.0000       5.169678       140.6741 
 692   0.0000       5.182322       141.0181 
 693   0.0000       5.184657       141.0817 
 694   0.0000       5.200184       141.5042 
 695   0.0000       5.213736       141.8730 
 696   0.0000       5.225260       142.1865 
 697   0.0000       5.233371       142.4073 
 698   0.0000       5.237012       142.5063 
 699   0.0000       5.247980       142.8048 
 700   0.0000       5.257223       143.0563 
 701   0.0000       5.274746       143.5331 
 702   0.0000       5.300486       144.2336 
 703   0.0000       5.310834       144.5151 
 704   0.0000       5.316540       144.6704 
 705   0.0000       5.330201       145.0421 
 706   0.0000       5.343844       145.4134 
 707   0.0000       5.351748       145.6285 
 708   0.0000       5.365708       146.0084 
 709   0.0000       5.388439       146.6269 
 710   0.0000       5.410968       147.2399 
 711   0.0000       5.421312       147.5214 
 712   0.0000       5.431663       147.8031 
 713   0.0000       5.458388       148.5303 
 714   0.0000       5.474389       148.9657 
 715   0.0000       5.493057       149.4737 
 716   0.0000       5.502813       149.7392 
 717   0.0000       5.507821       149.8754 
 718   0.0000       5.518225       150.1585 
 719   0.0000       5.523843       150.3114 
 720   0.0000       5.536317       150.6508 
 721   0.0000       5.542612       150.8221 
 722   0.0000       5.562044       151.3509 
 723   0.0000       5.570580       151.5832 
 724   0.0000       5.590895       152.1360 
 725   0.0000       5.601630       152.4281 
 726   0.0000       5.630222       153.2061 
 727   0.0000       5.632417       153.2659 
 728   0.0000       5.636499       153.3769 
 729   0.0000       5.639047       153.4463 
 730   0.0000       5.653931       153.8513 
 731   0.0000       5.667577       154.2226 
 732   0.0000       5.672532       154.3574 
 733   0.0000       5.682012       154.6154 
 734   0.0000       5.704270       155.2211 
 735   0.0000       5.711621       155.4211 
 736   0.0000       5.719685       155.6405 
 737   0.0000       5.732008       155.9759 
 738   0.0000       5.740186       156.1984 
 739   0.0000       5.756325       156.6376 
 740   0.0000       5.770069       157.0115 
 741   0.0000       5.778740       157.2475 
 742   0.0000       5.801720       157.8728 
 743   0.0000       5.810301       158.1063 
 744   0.0000       5.827167       158.5653 
 745   0.0000       5.838339       158.8693 
 746   0.0000       5.853564       159.2836 
 747   0.0000       5.869581       159.7194 
 748   0.0000       5.899950       160.5458 
 749   0.0000       5.932745       161.4382 
 750   0.0000       5.944074       161.7465 
 751   0.0000       5.974887       162.5849 
 752   0.0000       5.980215       162.7299 
 753   0.0000       5.989423       162.9805 
 754   0.0000       6.002335       163.3318 
 755   0.0000       6.022387       163.8775 
 756   0.0000       6.053020       164.7111 
 757   0.0000       6.060582       164.9168 
 758   0.0000       6.085665       165.5994 
 759   0.0000       6.092039       165.7728 
 760   0.0000       6.101214       166.0225 
 761   0.0000       6.174852       168.0263 
 762   0.0000       6.196565       168.6171 
 763   0.0000       6.220854       169.2781 
 764   0.0000       6.227557       169.4604 
 765   0.0000       6.255040       170.2083 
 766   0.0000       6.267224       170.5398 
 767   0.0000       6.329894       172.2452 
 768   0.0000       6.347641       172.7281 
 769   0.0000       6.355159       172.9327 
 770   0.0000       6.372496       173.4044 
 771   0.0000       6.384231       173.7238 
 772   0.0000       6.409531       174.4122 
 773   0.0000       6.449916       175.5111 
 774   0.0000       6.460020       175.7861 
 775   0.0000       6.478144       176.2793 
 776   0.0000       6.515408       177.2933 
 777   0.0000       6.541906       178.0143 
 778   0.0000       6.562376       178.5713 
 779   0.0000       6.594704       179.4510 
 780   0.0000       6.657549       181.1611 
 781   0.0000       6.674650       181.6265 
 782   0.0000       6.701554       182.3585 
 783   0.0000       6.741145       183.4359 
 784   0.0000       6.777363       184.4214 
 785   0.0000       6.901547       187.8006 
 786   0.0000       6.920119       188.3060 
 787   0.0000       6.925917       188.4638 
 788   0.0000       6.935365       188.7209 
 789   0.0000       7.028735       191.2616 
 790   0.0000       7.050698       191.8593 
 791   0.0000       7.064411       192.2324 
 792   0.0000       7.086915       192.8448 
 793   0.0000       7.108730       193.4384 
 794   0.0000       7.219542       196.4537 
 795   0.0000       7.263664       197.6543 
 796   0.0000       7.277381       198.0276 
 797   0.0000       7.286311       198.2706 
 798   0.0000       7.344914       199.8653 
 799   0.0000       7.364250       200.3914 
 800   0.0000       7.439183       202.4305 
 801   0.0000       7.491202       203.8460 
 802   0.0000       7.581125       206.2929 
 803   0.0000       7.589380       206.5175 
 804   0.0000       7.680142       208.9873 
 805   0.0000       7.821803       212.8421 
 806   0.0000       7.846652       213.5182 
 807   0.0000       7.938192       216.0092 
 808   0.0000       7.952389       216.3955 
 809   0.0000       9.337972       254.0991 
 810   0.0000       9.522552       259.1218 
 811   0.0000      10.767642       293.0024 
 812   0.0000      11.132906       302.9418 
 813   0.0000      11.937948       324.8481 
 814   0.0000      12.558442       341.7326 
 815   0.0000      12.920889       351.5953 
 816   0.0000      13.048739       355.0742 
 817   0.0000      13.101200       356.5018 
 818   0.0000      13.236938       360.1954 
 819   0.0000      13.387694       364.2977 
 820   0.0000      13.507715       367.5636 
 821   0.0000      13.759225       374.4075 
 822   0.0000      13.871303       377.4573 
 823   0.0000      13.903168       378.3244 
 824   0.0000      14.024542       381.6272 
 825   0.0000      14.483310       394.1109 
 826   0.0000      14.663987       399.0274 
 827   0.0000      15.948884       433.9912 

                    ********************************
                    * MULLIKEN POPULATION ANALYSIS *
                    ********************************

-----------------------
MULLIKEN ATOMIC CHARGES
-----------------------
   0 C :   -0.269973
   1 C :    0.036650
   2 O :   -0.333848
   3 C :    0.411180
   4 O :   -0.424261
   5 C :   -0.174621
   6 C :    0.165343
   7 C :   -0.282400
   8 N :   -0.128757
   9 C :    0.207397
  10 S :   -0.442911
  11 N :   -0.210702
  12 C :    0.042590
  13 C :    0.032323
  14 C :   -0.164392
  15 C :   -0.134658
  16 C :   -0.276972
  17 C :    0.314334
  18 O :   -0.359312
  19 C :   -0.251388
  20 H :    0.098341
  21 H :    0.099962
  22 H :    0.091804
  23 H :    0.101178
  24 H :    0.093705
  25 H :    0.124785
  26 H :    0.103065
  27 H :    0.129958
  28 H :    0.198805
  29 H :    0.199967
  30 H :    0.154735
  31 H :    0.157868
  32 H :    0.159608
  33 H :    0.127943
  34 H :    0.239837
  35 H :    0.162817
Sum of atomic charges:   -0.0000000

--------------------------------
MULLIKEN REDUCED ORBITAL CHARGES
--------------------------------
  0 C s       :     3.255896  s :     3.255896
      pz      :     1.008743  p :     2.936590
      px      :     0.914720
      py      :     1.013127
      dz2     :     0.007069  d :     0.073019
      dxz     :     0.019997
      dyz     :     0.019006
      dx2y2   :     0.019207
      dxy     :     0.007740
      f0      :     0.000496  f :     0.004468
      f+1     :     0.000712
      f-1     :     0.000185
      f+2     :     0.001374
      f-2     :     0.000503
      f+3     :     0.000812
      f-3     :     0.000385
  1 C s       :     3.176849  s :     3.176849
      pz      :     0.928186  p :     2.625114
      px      :     0.918608
      py      :     0.778320
      dz2     :     0.019360  d :     0.149732
      dxz     :     0.031147
      dyz     :     0.036236
      dx2y2   :     0.032514
      dxy     :     0.030474
      f0      :     0.000929  f :     0.011656
      f+1     :     0.001042
      f-1     :     0.001956
      f+2     :     0.002481
      f-2     :     0.001620
      f+3     :     0.001796
      f-3     :     0.001833
  2 O s       :     3.708213  s :     3.708213
      pz      :     1.524450  p :     4.589051
      px      :     1.514712
      py      :     1.549889
      dz2     :     0.005053  d :     0.034324
      dxz     :     0.007548
      dyz     :     0.006583
      dx2y2   :     0.010225
      dxy     :     0.004916
      f0      :     0.000308  f :     0.002260
      f+1     :     0.000467
      f-1     :     0.000128
      f+2     :     0.000541
      f-2     :     0.000415
      f+3     :     0.000216
      f-3     :     0.000186
  3 C s       :     3.101722  s :     3.101722
      pz      :     0.689886  p :     2.156648
      px      :     0.668623
      py      :     0.798139
      dz2     :     0.043498  d :     0.303904
      dxz     :     0.051846
      dyz     :     0.065889
      dx2y2   :     0.087471
      dxy     :     0.055200
      f0      :     0.003309  f :     0.026547
      f+1     :     0.003628
      f-1     :     0.002317
      f+2     :     0.003209
      f-2     :     0.004878
      f+3     :     0.003308
      f-3     :     0.005897
  4 O s       :     3.767379  s :     3.767379
      pz      :     1.653059  p :     4.619175
      px      :     1.533037
      py      :     1.433079
      dz2     :     0.004058  d :     0.035298
      dxz     :     0.002347
      dyz     :     0.007309
      dx2y2   :     0.009788
      dxy     :     0.011797
      f0      :     0.000254  f :     0.002409
      f+1     :     0.000152
      f-1     :     0.000314
      f+2     :     0.000107
      f-2     :     0.000305
      f+3     :     0.000675
      f-3     :     0.000601
  5 C s       :     3.184698  s :     3.184698
      pz      :     0.960719  p :     2.895519
      px      :     1.090365
      py      :     0.844435
      dz2     :     0.015023  d :     0.084188
      dxz     :     0.010481
      dyz     :     0.027233
      dx2y2   :     0.011725
      dxy     :     0.019726
      f0      :     0.000800  f :     0.010217
      f+1     :     0.001191
      f-1     :     0.001378
      f+2     :     0.002480
      f-2     :     0.001214
      f+3     :     0.001654
      f-3     :     0.001500
  6 C s       :     3.178655  s :     3.178655
      pz      :     0.831054  p :     2.464471
      px      :     0.852351
      py      :     0.781066
      dz2     :     0.030604  d :     0.177212
      dxz     :     0.016503
      dyz     :     0.051585
      dx2y2   :     0.025180
      dxy     :     0.053341
      f0      :     0.001466  f :     0.014318
      f+1     :     0.001231
      f-1     :     0.002667
      f+2     :     0.002639
      f-2     :     0.002100
      f+3     :     0.002330
      f-3     :     0.001884
  7 C s       :     3.277167  s :     3.277167
      pz      :     0.929771  p :     2.931535
      px      :     0.990501
      py      :     1.011264
      dz2     :     0.020447  d :     0.069024
      dxz     :     0.014077
      dyz     :     0.007549
      dx2y2   :     0.019282
      dxy     :     0.007669
      f0      :     0.000359  f :     0.004675
      f+1     :     0.001461
      f-1     :     0.000689
      f+2     :     0.000453
      f-2     :     0.000571
      f+3     :     0.000130
      f-3     :     0.001012
  8 N s       :     3.345701  s :     3.345701
      pz      :     1.316447  p :     3.718608
      px      :     1.333895
      py      :     1.068267
      dz2     :     0.010774  d :     0.059486
      dxz     :     0.009780
      dyz     :     0.012989
      dx2y2   :     0.013232
      dxy     :     0.012712
      f0      :     0.000570  f :     0.004961
      f+1     :     0.000962
      f-1     :     0.000471
      f+2     :     0.000995
      f-2     :     0.000999
      f+3     :     0.000474
      f-3     :     0.000490
  9 C s       :     3.159913  s :     3.159913
      pz      :     0.738101  p :     2.352748
      px      :     0.731380
      py      :     0.883268
      dz2     :     0.053957  d :     0.262352
      dxz     :     0.030292
      dyz     :     0.057382
      dx2y2   :     0.062282
      dxy     :     0.058439
      f0      :     0.002157  f :     0.017590
      f+1     :     0.002723
      f-1     :     0.002225
      f+2     :     0.003128
      f-2     :     0.001952
      f+3     :     0.002645
      f-3     :     0.002761
 10 S s       :     5.855142  s :     5.855142
      pz      :     3.575628  p :    10.492916
      px      :     3.642273
      py      :     3.275016
      dz2     :     0.009882  d :     0.084733
      dxz     :     0.004793
      dyz     :     0.030328
      dx2y2   :     0.015438
      dxy     :     0.024292
      f0      :     0.001201  f :     0.010120
      f+1     :     0.000285
      f-1     :     0.001424
      f+2     :     0.002038
      f-2     :     0.001795
      f+3     :     0.002325
      f-3     :     0.001053
 11 N s       :     3.381402  s :     3.381402
      pz      :     1.401068  p :     3.766657
      px      :     1.350796
      py      :     1.014793
      dz2     :     0.006335  d :     0.058212
      dxz     :     0.007957
      dyz     :     0.013454
      dx2y2   :     0.014240
      dxy     :     0.016226
      f0      :     0.000451  f :     0.004431
      f+1     :     0.000497
      f-1     :     0.000592
      f+2     :     0.000648
      f-2     :     0.000669
      f+3     :     0.000853
      f-3     :     0.000722
 12 C s       :     3.118617  s :     3.118617
      pz      :     0.879193  p :     2.643046
      px      :     0.964929
      py      :     0.798924
      dz2     :     0.033686  d :     0.184372
      dxz     :     0.034445
      dyz     :     0.040882
      dx2y2   :     0.035364
      dxy     :     0.039996
      f0      :     0.001183  f :     0.011376
      f+1     :     0.001292
      f-1     :     0.001830
      f+2     :     0.002295
      f-2     :     0.001952
      f+3     :     0.001523
      f-3     :     0.001300
 13 C s       :     3.102013  s :     3.102013
      pz      :     0.897258  p :     2.744890
      px      :     0.912733
      py      :     0.934899
      dz2     :     0.020823  d :     0.109536
      dxz     :     0.011069
      dyz     :     0.032465
      dx2y2   :     0.022764
      dxy     :     0.022415
      f0      :     0.001193  f :     0.011238
      f+1     :     0.001547
      f-1     :     0.001580
[...]
      f-1     :     0.005939
      f+2     :     0.006640
      f-2     :     0.005501
      f+3     :     0.005195
      f-3     :     0.007270
 15 C s       :     2.705702  s :     2.705702
      pz      :     0.940850  p :     2.797482
      px      :     0.898156
      py      :     0.958476
      dz2     :     0.115024  d :     0.414911
      dxz     :     0.073038
      dyz     :     0.077409
      dx2y2   :     0.078758
      dxy     :     0.070683
      f0      :     0.004964  f :     0.040947
      f+1     :     0.006122
      f-1     :     0.007032
      f+2     :     0.007462
      f-2     :     0.006565
      f+3     :     0.004946
      f-3     :     0.003856
 16 C s       :     2.702054  s :     2.702054
      pz      :     0.951329  p :     2.867724
      px      :     0.947674
      py      :     0.968721
      dz2     :     0.064012  d :     0.391097
      dxz     :     0.052942
      dyz     :     0.104433
      dx2y2   :     0.083317
      dxy     :     0.086394
      f0      :     0.005347  f :     0.040304
      f+1     :     0.005394
      f-1     :     0.004924
      f+2     :     0.005804
      f-2     :     0.005725
      f+3     :     0.006797
      f-3     :     0.006314
 17 C s       :     2.701623  s :     2.701623
      pz      :     0.863088  p :     2.684757
      px      :     0.816918
      py      :     1.004751
      dz2     :     0.150058  d :     0.707023
      dxz     :     0.116313
      dyz     :     0.162530
      dx2y2   :     0.140553
      dxy     :     0.137570
      f0      :     0.014685  f :     0.099141
      f+1     :     0.015071
      f-1     :     0.011854
      f+2     :     0.016981
      f-2     :     0.016377
      f+3     :     0.011558
      f-3     :     0.012615
 18 O s       :     3.177341  s :     3.177341
      pz      :     1.346839  p :     4.349045
      px      :     1.497782
      py      :     1.504425
      dz2     :     0.011591  d :     0.075595
      dxz     :     0.017021
      dyz     :     0.023865
      dx2y2   :     0.012854
      dxy     :     0.010264
      f0      :     0.000717  f :     0.005079
      f+1     :     0.000692
      f-1     :     0.000619
      f+2     :     0.000934
      f-2     :     0.001077
      f+3     :     0.000428
      f-3     :     0.000613
 19 C s       :     2.695574  s :     2.695574
      pz      :     0.953333  p :     2.845200
      px      :     0.931809
      py      :     0.960059
      dz2     :     0.098159  d :     0.388684
      dxz     :     0.069183
      dyz     :     0.080111
      dx2y2   :     0.069680
      dxy     :     0.071551
      f0      :     0.004793  f :     0.040840
      f+1     :     0.006580
      f-1     :     0.006981
      f+2     :     0.007307
      f-2     :     0.006835
      f+3     :     0.004840
      f-3     :     0.003505
 20 H s       :     0.848260  s :     0.848260
      pz      :     0.060717  p :     0.150300
      px      :     0.048884
      py      :     0.040700
      dz2     :     0.007620  d :     0.027494
      dxz     :     0.007010
      dyz     :     0.006755
      dx2y2   :     0.003368
      dxy     :     0.002740
 21 H s       :     0.845309  s :     0.845309
      pz      :     0.046944  p :     0.150513
      px      :     0.043998
      py      :     0.059571
      dz2     :     0.004772  d :     0.027374
      dxz     :     0.003154
      dyz     :     0.006740
      dx2y2   :     0.006737
      dxy     :     0.005971
 22 H s       :     0.850911  s :     0.850911
      pz      :     0.052418  p :     0.151215
      px      :     0.038495
      py      :     0.060302
      dz2     :     0.006515  d :     0.027476
      dxz     :     0.003588
      dyz     :     0.006996
      dx2y2   :     0.005014
      dxy     :     0.005362
 23 H s       :     0.851706  s :     0.851706
      pz      :     0.049987  p :     0.146700
      px      :     0.038346
      py      :     0.058367
      dz2     :     0.004893  d :     0.027203
      dxz     :     0.003849
      dyz     :     0.007689
      dx2y2   :     0.005271
      dxy     :     0.005500
 24 H s       :     0.858876  s :     0.858876
      pz      :     0.063475  p :     0.144754
      px      :     0.049244
      py      :     0.032035
      dz2     :     0.008234  d :     0.026782
      dxz     :     0.007054
      dyz     :     0.005836
      dx2y2   :     0.002809
      dxy     :     0.002849
 25 H s       :     0.830337  s :     0.830337
      pz      :     0.064456  p :     0.151727
      px      :     0.043733
      py      :     0.043538
      dz2     :     0.008936  d :     0.027794
      dxz     :     0.007292
      dyz     :     0.006750
      dx2y2   :     0.003041
      dxy     :     0.001775
 26 H s       :     0.843446  s :     0.843446
      pz      :     0.037164  p :     0.150160
      px      :     0.040006
      py      :     0.072991
      dz2     :     0.002313  d :     0.027740
      dxz     :     0.000241
      dyz     :     0.009005
      dx2y2   :     0.006726
      dxy     :     0.009454
 27 H s       :     0.830008  s :     0.830008
      pz      :     0.037867  p :     0.151707
      px      :     0.068955
      py      :     0.044886
      dz2     :     0.002445  d :     0.027786
      dxz     :     0.008115
      dyz     :     0.000862
      dx2y2   :     0.008710
      dxy     :     0.007653
 28 H s       :     0.742491  s :     0.742491
      pz      :     0.068443  p :     0.254430
      px      :     0.074842
      py      :     0.111145
      dz2     :     0.006725  d :     0.061933
      dxz     :     0.002521
      dyz     :     0.018096
      dx2y2   :     0.015763
      dxy     :     0.018829
 29 H s       :     0.747811  s :     0.747811
      pz      :     0.109641  p :     0.253835
      px      :     0.102591
      py      :     0.041603
      dz2     :     0.020288  d :     0.061360
      dxz     :     0.015196
      dyz     :     0.008000
      dx2y2   :     0.010289
      dxy     :     0.007588
 30 H s       :     0.825997  s :     0.825997
      pz      :     0.046509  p :     0.153275
      px      :     0.063951
      py      :     0.042815
      dz2     :     0.004464  d :     0.029223
      dxz     :     0.007791
      dyz     :     0.003536
      dx2y2   :     0.007169
      dxy     :     0.006263
 31 H s       :     0.840931  s :     0.840931
      pz      :     0.059088  p :     0.155708
      px      :     0.059198
      py      :     0.037423
      dz2     :     0.006575  d :     0.027465
      dxz     :     0.006944
      dyz     :     0.004902
      dx2y2   :     0.004456
      dxy     :     0.004588
 32 H s       :     0.843309  s :     0.843309
      pz      :     0.035395  p :     0.151370
      px      :     0.042772
      py      :     0.073204
      dz2     :     0.002715  d :     0.026486
      dxz     :     0.001139
      dyz     :     0.007174
      dx2y2   :     0.007709
      dxy     :     0.007749
 33 H s       :     0.849373  s :     0.849373
      pz      :     0.061969  p :     0.159119
      px      :     0.045462
      py      :     0.051688
      dz2     :     0.007428  d :     0.027768
      dxz     :     0.005234
      dyz     :     0.007037
      dx2y2   :     0.004099
      dxy     :     0.003970
 34 H s       :     0.707146  s :     0.707146
      pz      :     0.112959  p :     0.348183
      px      :     0.089062
      py      :     0.146162
      dz2     :     0.024986  d :     0.099652
      dxz     :     0.014360
      dyz     :     0.024613
      dx2y2   :     0.017090
      dxy     :     0.018603
 35 H s       :     0.839483  s :     0.839483
      pz      :     0.036684  p :     0.156602
      px      :     0.045426
      py      :     0.074492
      dz2     :     0.002693  d :     0.027919
      dxz     :     0.001272
      dyz     :     0.007582
      dx2y2   :     0.008144
      dxy     :     0.008229


                      *****************************
                      * MAYER POPULATION ANALYSIS *
                      *****************************

  NA   - Mulliken gross atomic population
  ZA   - Total nuclear charge
  QA   - Mulliken gross atomic charge
  VA   - Mayer's total valence
  BVA  - Mayer's bonded valence
  FA   - Mayer's free valence

  ATOM       NA         ZA         QA         VA         BVA        FA
  0 C      6.2700     6.0000    -0.2700     3.8913     3.8913    -0.0000
  1 C      5.9634     6.0000     0.0366     3.8678     3.8678    -0.0000
  2 O      8.3338     8.0000    -0.3338     2.0761     2.0761    -0.0000
  3 C      5.5888     6.0000     0.4112     4.2378     4.2378     0.0000
  4 O      8.4243     8.0000    -0.4243     2.0846     2.0846    -0.0000
  5 C      6.1746     6.0000    -0.1746     3.6380     3.6380    -0.0000
  6 C      5.8347     6.0000     0.1653     3.8401     3.8401    -0.0000
  7 C      6.2824     6.0000    -0.2824     3.8863     3.8863    -0.0000
  8 N      7.1288     7.0000    -0.1288     3.2956     3.2956     0.0000
  9 C      5.7926     6.0000     0.2074     4.1544     4.1544    -0.0000
 10 S     16.4429    16.0000    -0.4429     1.7539     1.7539    -0.0000
 11 N      7.2107     7.0000    -0.2107     3.2517     3.2517    -0.0000
 12 C      5.9574     6.0000     0.0426     3.9378     3.9378    -0.0000
 13 C      5.9677     6.0000     0.0323     3.7689     3.7689    -0.0000
 14 C      6.1644     6.0000    -0.1644     3.8666     3.8666    -0.0000
 15 C      6.1347     6.0000    -0.1347     3.8053     3.8053    -0.0000
 16 C      6.2770     6.0000    -0.2770     3.7966     3.7966    -0.0000
 17 C      5.6857     6.0000     0.3143     3.8584     3.8584    -0.0000
 18 O      8.3593     8.0000    -0.3593     2.1146     2.1146    -0.0000
 19 C      6.2514     6.0000    -0.2514     3.8462     3.8462    -0.0000
 20 H      0.9017     1.0000     0.0983     0.9837     0.9837     0.0000
 21 H      0.9000     1.0000     0.1000     0.9835     0.9835    -0.0000
 22 H      0.9082     1.0000     0.0918     0.9820     0.9820    -0.0000
 23 H      0.8988     1.0000     0.1012     0.9834     0.9834    -0.0000
 24 H      0.9063     1.0000     0.0937     0.9791     0.9791    -0.0000
 25 H      0.8752     1.0000     0.1248     0.9828     0.9828     0.0000
 26 H      0.8969     1.0000     0.1031     0.9864     0.9864    -0.0000
 27 H      0.8700     1.0000     0.1300     0.9776     0.9776     0.0000
 28 H      0.8012     1.0000     0.1988     1.0222     1.0222    -0.0000
 29 H      0.8000     1.0000     0.2000     1.0147     1.0147    -0.0000
 30 H      0.8453     1.0000     0.1547     0.9929     0.9929    -0.0000
 31 H      0.8421     1.0000     0.1579     0.9906     0.9906     0.0000
 32 H      0.8404     1.0000     0.1596     0.9773     0.9773     0.0000
 33 H      0.8721     1.0000     0.1279     0.9922     0.9922    -0.0000
 34 H      0.7602     1.0000     0.2398     1.0111     1.0111    -0.0000
 35 H      0.8372     1.0000     0.1628     0.9901     0.9901     0.0000

  Mayer bond orders larger than 0.100000
B(  0-C ,  1-C ) :   0.9716 B(  0-C , 20-H ) :   0.9762 B(  0-C , 21-H ) :   0.9785 
B(  0-C , 22-H ) :   0.9785 B(  1-C ,  2-O ) :   0.9040 B(  1-C , 23-H ) :   0.9744 
B(  1-C , 24-H ) :   0.9807 B(  2-O ,  3-C ) :   1.1646 B(  3-C ,  4-O ) :   1.9803 
B(  3-C ,  5-C ) :   1.0514 B(  5-C ,  6-C ) :   1.6521 B(  5-C , 12-C ) :   0.9506 
B(  6-C ,  7-C ) :   0.9532 B(  6-C ,  8-N ) :   1.1361 B(  7-C , 25-H ) :   0.9652 
B(  7-C , 26-H ) :   0.9915 B(  7-C , 27-H ) :   0.9635 B(  8-N ,  9-C ) :   1.1851 
B(  8-N , 28-H ) :   0.9469 B(  9-C , 10-S ) :   1.6074 B(  9-C , 11-N ) :   1.3073 
B( 11-N , 12-C ) :   0.9763 B( 11-N , 29-H ) :   0.9485 B( 12-C , 13-C ) :   0.9747 
B( 12-C , 30-H ) :   0.9974 B( 13-C , 14-C ) :   1.3753 B( 13-C , 19-C ) :   1.3666 
B( 14-C , 15-C ) :   1.3975 B( 14-C , 31-H ) :   0.9642 B( 15-C , 16-C ) :   1.3584 
B( 15-C , 32-H ) :   0.9713 B( 16-C , 17-C ) :   1.3335 B( 16-C , 33-H ) :   0.9861 
B( 17-C , 18-O ) :   1.1029 B( 17-C , 19-C ) :   1.3676 B( 18-O , 34-H ) :   0.9807 
B( 19-C , 35-H ) :   0.9604 

-------
TIMINGS
-------

Total SCF time: 0 days 1 hours 45 min 46 sec 

Total time                  ....    6346.489 sec
Sum of individual times     ....    6336.369 sec  ( 99.8%)

Fock matrix formation       ....    6314.304 sec  ( 99.5%)
Diagonalization             ....       4.654 sec  (  0.1%)
Density matrix formation    ....       0.189 sec  (  0.0%)
Population analysis         ....       0.661 sec  (  0.0%)
Initial guess               ....       4.868 sec  (  0.1%)
Orbital Transformation      ....       0.000 sec  (  0.0%)
Orbital Orthonormalization  ....       0.000 sec  (  0.0%)
DIIS solution               ....       4.973 sec  (  0.1%)
SOSCF solution              ....       5.608 sec  (  0.1%)

------------------------------------------------------------------------------
                                ORCA  MP2 
------------------------------------------------------------------------------

Freezing NCore=48 chemical core electrons

-------------
RI-MP2 ENERGY
-------------
Dimension of the basis                    ...  828
Memory devoted to MP2                     ...  256 MB   
Data format for buffers                   ... DOUBLE
Compression type for matrix containers    ... UNCOMPRESSED
Overall scaling of the MP2 energy         ...   1.000e+00
Calculating two index integrals           ... done (    0.035 sec)
Cholesky decomposition of V**-1           ... done (    1.964 sec)

-----------------
RI-TRANSFORMATION (AUX index driven)
-----------------

Dimension of the orbital-basis         ... 828
Dimension of the aux-basis             ... 2141
Transformation of internal/external MOs...   24-  76 to   77- 827
Number Format for Storage              ... Double (8 Byte)
Integral mode                          ... Direct

First Phase: integral generation and transformation of MO indices
  Aux angular momentum 0               ... done (    8.837 sec)
  Aux angular momentum 1               ... done (   15.698 sec)
  Aux angular momentum 2               ... done (   20.083 sec)
  Aux angular momentum 3               ... done (   16.536 sec)
  Aux angular momentum 4               ... done (    5.709 sec)
Closing buffer VIA ( 0.63 GB; CompressionRatio= 1.00)
  Phase 1 completed in    67.205 sec
Second Phase: sorting and transformation of aux index

IA-Transformation
Memory available                       ... 167 MB 
Max. # MO pairs treated in a batch     ... 12    
# of internal orbitals                 ... 53
# batches for internal orbitals        ... 5
Closing buffer IAV ( 0.63 GB; CompressionRatio= 1.00)
(ia|v) transformation done in    72.037 sec

  Phase 2 completed in    72.058 sec
RI-Integral transformation completed in   139.268 sec
Opening buffers                              ... done

Starting loop over batches of integrals:

Operator 0  - window                       ... ( 24- 76)x( 77-827)
Operator 0  - Memory available             ...   256 MB
Operator 0  - Memory needed per MO         ...  12.3 MB
Operator 0  - Number of orbitals per batch ... 13
Operator 0  - Number of batches            ... 5

OPERATOR  0   PASS   0:  MOs    24 ...   36
  Reading integrals       ... ok
  Internal MO  26
  Internal MO  29
  Internal MO  32
  Internal MO  35
OPERATOR  0   PASS   1:  MOs    37 ...   49
  Reading integrals       ... ok
  Internal MO  38
  Internal MO  41
  Internal MO  44
  Internal MO  47
OPERATOR  0   PASS   2:  MOs    50 ...   62
  Reading integrals       ... ok
  Internal MO  50
  Internal MO  53
  Internal MO  56
  Internal MO  59
  Internal MO  62
OPERATOR  0   PASS   3:  MOs    63 ...   75
  Reading integrals       ... ok
  Internal MO  65
  Internal MO  68
  Internal MO  71
  Internal MO  74
OPERATOR  0   PASS   4:  MOs    76 ...   76
  Reading integrals       ... ok
Time spent in pair loops =   488.490 sec
Deleting buffer (Ka|jb)[aa] ...done

-----------------------------------------------
 RI-MP2 CORRELATION ENERGY:     -3.528229963 Eh
-----------------------------------------------


-------
TIMINGS
-------

Total time                :  629.839 sec
Integral trafo            :  139.270 sec ( 22.1%)
I/O of integrals          :    1.920 sec (  0.3%)
K(i,j) Operators          :  465.877 sec ( 74.0%)
T(i,j) pair energies      :    3.357 sec (  0.5%)
V-calculation             :    0.035 sec (  0.0%)
V**(-1/2)                 :    1.964 sec (  0.3%)
Gamma(ia|P)               :    0.000 sec (  0.0%)
Gamma-Trafo               :    0.000 sec (  0.0%)
D(virtual)                :    0.000 sec (  0.0%)
D(internal)               :    0.000 sec (  0.0%)
W(virtual)                :    0.000 sec (  0.0%)
W(internal)               :    0.000 sec (  0.0%)
L(virtual)                :    0.000 sec (  0.0%)
L(internal)               :    0.000 sec (  0.0%)
G(D)                      :    0.000 sec (  0.0%)
G(Z)                      :    0.000 sec (  0.0%)
Z-Vector Solution         :    0.000 sec (  0.0%)
3-Index Derivative        :    0.000 sec (  0.0%)
2-Index Derivative        :    0.000 sec (  0.0%)
Separable Gradient        :    0.000 sec (  0.0%)


---------------------------------------
MP2 TOTAL ENERGY:    -1274.342533570 Eh
---------------------------------------

-------------------------   --------------------
FINAL SINGLE POINT ENERGY     -1274.342533570363
-------------------------   --------------------


                            ***************************************
                            *     ORCA property calculations      *
                            ***************************************


  WARNING: The energy has been calculated at the MP2 level but the densities
           used in the property calculations are still SCF densities
           MP2 response densities have not been calculated 
           use %mp2 Density relaxed end
           or  %mp2 Density unrelaxed end

                                    ---------------------
                                    Active property flags
                                    ---------------------
   (+) Dipole Moment


------------------------------------------------------------------------------
                       ORCA ELECTRIC PROPERTIES CALCULATION
------------------------------------------------------------------------------

Dipole Moment Calculation                       ... on
Quadrupole Moment Calculation                   ... off
Polarizability Calculation                      ... off
GBWName                                         ... CONFS/Conf870.orca.gbw
Electron density file                           ... CONFS/Conf870.orca.scfp
The origin for moment calculation is the CENTER OF MASS  = (31.933345, 33.001302 33.638784)

-------------
DIPOLE MOMENT
-------------
                                X             Y             Z
Electronic contribution:     10.97797       8.62595      12.15575
Nuclear contribution   :    -12.38644      -9.96318     -13.25200
                        -----------------------------------------
Total Dipole Moment    :     -1.40847      -1.33723      -1.09626
                        -----------------------------------------
Magnitude (a.u.)       :      2.23019
Magnitude (Debye)      :      5.66870



--------------------
Rotational spectrum 
--------------------
 
Rotational constants in cm-1:     0.009789     0.008791     0.005499 
Rotational constants in MHz :   293.453457   263.545270   164.863920 

 Dipole components along the rotational axes: 
x,y,z [a.u.] :    -1.815995     1.176048    -0.541141 
x,y,z [Debye]:    -4.615893     2.989278    -1.375472 

 

Timings for individual modules:

Sum of individual times         ...     6978.120 sec (= 116.302 min)
GTO integral calculation        ...        1.303 sec (=   0.022 min)   0.0 %
SCF iterations                  ...     6346.605 sec (= 105.777 min)  91.0 %
MP2 module                      ...      630.212 sec (=  10.504 min)   9.0 %
                             ****ORCA TERMINATED NORMALLY****
TOTAL RUN TIME: 0 days 1 hours 56 minutes 19 seconds 549 msec
