
                                 *****************
                                 * O   R   C   A *
                                 *****************

           --- An Ab Initio, DFT and Semiempirical electronic structure package ---

                  #######################################################
                  #                        -***-                        #
                  #          Department of theory and spectroscopy      #
                  #               Directorship: Frank Neese             #
                  #        Max Planck Institute fuer Kohlenforschung    #
                  #                Kaiser Wilhelm Platz 1               #
                  #                 D-45470 Muelheim/Ruhr               #
                  #                      Germany                        #
                  #                                                     #
                  #                  All rights reserved                #
                  #                        -***-                        #
                  #######################################################


                         Program Version 4.2.0 -  RELEASE  -


 With contributions from (in alphabetic order):
   Daniel Aravena         : Magnetic Suceptibility
   Michael Atanasov       : Ab Initio Ligand Field Theory (pilot matlab implementation)
   Alexander A. Auer      : GIAO ZORA, VPT2
   Ute Becker             : Parallelization
   Giovanni Bistoni       : ED, misc. LED, open-shell LED, HFLED
   Martin Brehm           : Molecular dynamics
   Dmytro Bykov           : SCF Hessian
   Vijay G. Chilkuri      : MRCI spin determinant printing, contributions to CSF-ICE
   Dipayan Datta          : RHF DLPNO-CCSD density
   Achintya Kumar Dutta   : EOM-CC, STEOM-CC
   Dmitry Ganyushin       : Spin-Orbit,Spin-Spin,Magnetic field MRCI
   Miquel Garcia          : C-PCM Hessian, Gaussian charge scheme
   Yang Guo               : DLPNO-NEVPT2, CIM, IAO-localization
   Andreas Hansen         : Spin unrestricted coupled pair/coupled cluster methods
   Benjamin Helmich-Paris : CASSCF linear response (MC-RPA)
   Lee Huntington         : MR-EOM, pCC
   Robert Izsak           : Overlap fitted RIJCOSX, COSX-SCS-MP3, EOM
   Christian Kollmar      : KDIIS, OOCD, Brueckner-CCSD(T), CCSD density
   Simone Kossmann        : Meta GGA functionals, TD-DFT gradient, OOMP2, MP2 Hessian
   Martin Krupicka        : AUTO-CI
   Lucas Lang             : DCDCAS
   Dagmar Lenk            : GEPOL surface, SMD
   Dimitrios Liakos       : Extrapolation schemes; Compound Job, initial MDCI parallelization
   Dimitrios Manganas     : Further ROCIS development; embedding schemes
   Dimitrios Pantazis     : SARC Basis sets
   Taras Petrenko         : DFT Hessian,TD-DFT gradient, ASA, ECA, R-Raman, ABS, FL, XAS/XES, NRVS
   Peter Pinski           : DLPNO-MP2, DLPNO-MP2 Gradient
   Christoph Reimann      : Effective Core Potentials
   Marius Retegan         : Local ZFS, SOC
   Christoph Riplinger    : Optimizer, TS searches, QM/MM, DLPNO-CCSD(T), (RO)-DLPNO pert. Triples
   Tobias Risthaus        : Range-separated hybrids, TD-DFT gradient, RPA, STAB
   Michael Roemelt        : Original ROCIS implementation
   Masaaki Saitow         : Open-shell DLPNO-CCSD energy and density
   Barbara Sandhoefer     : DKH picture change effects
   Avijit Sen             : IP-ROCIS
   Kantharuban Sivalingam : CASSCF convergence, NEVPT2, FIC-MRCI
   Bernardo de Souza      : ESD, SOC TD-DFT
   Georgi Stoychev        : AutoAux, RI-MP2 NMR
   Willem Van den Heuvel  : Paramagnetic NMR
   Boris Wezisla          : Elementary symmetry handling
   Frank Wennmohs         : Technical directorship


 We gratefully acknowledge several colleagues who have allowed us to
 interface, adapt or use parts of their codes:
   Stefan Grimme, W. Hujo, H. Kruse,             : VdW corrections, initial TS optimization,
                  C. Bannwarth                     DFT functionals, gCP, sTDA/sTD-DF
   Ed Valeev, F. Pavosevic, A. Kumar             : LibInt (2-el integral package), F12 methods
   Garnet Chan, S. Sharma, J. Yang, R. Olivares  : DMRG
   Ulf Ekstrom                                   : XCFun DFT Library
   Mihaly Kallay                                 : mrcc  (arbitrary order and MRCC methods)
   Andreas Klamt, Michael Diedenhofen            : otool_cosmo (COSMO solvation model)
   Jiri Pittner, Ondrej Demel                    : Mk-CCSD
   Frank Weinhold                                : gennbo (NPA and NBO analysis)
   Christopher J. Cramer and Donald G. Truhlar   : smd solvation model
   Lars Goerigk                                  : TD-DFT with DH, B97 family of functionals
   V. Asgeirsson, H. Jonsson                     : NEB implementation
   FAccTs GmbH                                   : IRC, NEB, NEB-TS, Multilevel, MM, QM/MM, CI optimization
   S Lehtola, MJT Oliveira, MAL Marques          : LibXC Library


 Your calculation uses the libint2 library for the computation of 2-el integrals
 For citations please refer to: http://libint.valeyev.net

 Your ORCA version has been built with support for libXC version: 4.2.3
 For citations please refer to: https://tddft.org/programs/libxc/

 This ORCA versions uses:
   CBLAS   interface :  Fast vector & matrix operations
   LAPACKE interface :  Fast linear algebra routines
   SCALAPACK package :  Parallel linear algebra routines


----- Orbital basis set information -----
Your calculation utilizes the basis: cc-pVTZ 
       H, B-Ne : Obtained from the ccRepo (grant-hill.group.shef.ac.uk/ccrepo) Feb. 2017
                 T. H. Dunning, Jr., J. Chem. Phys. 90, 1007 (1989)
            He : Obtained from the ccRepo (grant-hill.group.shef.ac.uk/ccrepo) Feb. 2017
                 D. E. Woon, T. H. Dunning, Jr., J. Chem. Phys. 100, 2975 (1994)
  Li-Be, Na-Mg : Obtained from the ccRepo (grant-hill.group.shef.ac.uk/ccrepo) Feb. 2017
                 B. P. Prascher, D. E. Woon, K. A. Peterson, T. H. Dunning, Jr., A. K. Wilson, Theor. Chem. Acc. 128, 69 (2011)
         Al-Ar : Obtained from the ccRepo (grant-hill.group.shef.ac.uk/ccrepo) Feb. 2017
                 D. E. Woon, T. H. Dunning, Jr., J. Chem. Phys. 98, 1358 (1993)
            Ca : Obtained from the Peterson Research Group Website (tyr0.chem.wsu.edu/~kipeters) Feb. 2017
                 J. Koput, K. A. Peterson, J. Phys. Chem. 106, 9595 (2002)
         Sc-Zn : Obtained from the ccRepo (grant-hill.group.shef.ac.uk/ccrepo) Feb. 2017
                 N. B. Balabanov, K. A. Peterson, J. Chem. Phys. 123, 064107 (2005)
                 N. B. Balabanov, K. A. Peterson, J. Chem. Phys. 125, 074110 (2006)
         Ga-Kr : Obtained from the ccRepo (grant-hill.group.shef.ac.uk/ccrepo) Feb. 2017
                 A. K. Wilson, D. E. Woon, K. A. Peterson, T. H. Dunning, Jr., J. Chem. Phys. 110, 7667 (1999)
             Y : Obtained from the ccRepo (grant-hill.group.shef.ac.uk/ccrepo) Feb. 2017
                 K. A. Peterson, D. Figgen, M. Dolg, H. Stoll, J. Chem. Phys. 126, 124101 (2007)
        Ag, Au : Obtained from the Peterson Research Group Website (tyr0.chem.wsu.edu/~kipeters) Feb. 2017
                 K. A. Peterson, C. Puzzarini, Theor. Chem. Acc. 114, 283 (2005)

----- AuxC basis set information -----
Your calculation utilizes the auxiliary basis: cc-pVTZ/C 
  Obtained from the EMSL Basis Set Exchange (bse.pnl.gov) Feb. 2017
  H-He, B-F, Al-Ar, Ga-Kr : F. Weigend, A. Kohn, C. Hattig, J. Chem. Phys. 116, 3175 (2002)
             Li-Be, Na-Mg : C. Haettig, Phys. Chem. Chem. Phys. 7, 59 (2005)
                       Ne : C. Haettig, Phys. Chem. Chem. Phys. 7, 59 (2005)
                            F. Weigend, A. Kohn, C. Hattig, J. Chem. Phys. 116, 3175 (2002)
                    Sc-Zn : J. G. Hill, J. A. Platts, J. Chem. Phys. 128, 044104 (2008)

================================================================================
                                        WARNINGS
                       Please study these warnings very carefully!
================================================================================


WARNING: No MP2 level density has been requested!
         To caclulate MP2 level properties use
         %mp2 Density relaxed end
         or
         %mp2 Density unrelaxed end

WARNING: Post HF methods need fully converged wavefunctions
  ===> : Setting SCFConvForced true
         You can overwrite this default with %scf ConvForced false 


INFO   : the flag for use of LIBINT has been found!

================================================================================
                                       INPUT FILE
================================================================================
NAME = CONFS/Conf407.orca
|  1> ! ri-mp2 cc-pvtz cc-pvtz/c TightSCF NoKeepInts
|  2> 
|  3> %scf
|  4>   MaxCore 4096
|  5> end
|  6> *xyz  0  1
|  7>     C       15.0787420   14.5056810   14.3737068
|  8>     C       14.6121551   15.9748193   14.4557152
|  9>     O       15.6051172   16.9234532   14.9269658
| 10>     C       16.6416008   16.6698595   15.7883765
| 11>     O       17.1950417   15.5897323   15.8989585
| 12>     C       16.9753773   17.8221381   16.6954873
| 13>     C       16.8358494   19.1218551   16.3198419
| 14>     C       16.1438791   19.6698256   15.0867488
| 15>     N       17.4063141   20.1484714   17.0770776
| 16>     C       18.3105809   19.9574223   18.0863899
| 17>     S       19.0298602   21.2266445   18.8657364
| 18>     N       18.6056180   18.6556865   18.4014361
| 19>     C       17.9210603   17.4695333   17.8517983
| 20>     C       17.2737934   16.6008858   18.9225523
| 21>     C       17.5896495   15.2341218   19.0249974
| 22>     C       16.9927842   14.4347057   20.0142616
| 23>     C       16.0731349   15.0074666   20.9095612
| 24>     C       15.7550143   16.3688698   20.8082903
| 25>     O       14.8641908   16.9234102   21.6686969
| 26>     C       16.3503362   17.1617886   19.8219732
| 27>     H       16.0136264   14.4214865   13.8053148
| 28>     H       14.3209321   13.8947086   13.8688990
| 29>     H       15.2319797   14.0804381   15.3735639
| 30>     H       14.2653886   16.2954667   13.4649784
| 31>     H       13.7452070   16.0136702   15.1280061
| 32>     H       15.0681158   19.4571829   15.1190627
| 33>     H       16.5531772   19.2156940   14.1755787
| 34>     H       16.2582527   20.7555482   14.9808818
| 35>     H       17.2169113   21.1096648   16.8425650
| 36>     H       19.2597016   18.5407862   19.1652828
| 37>     H       18.7735214   16.9474205   17.3932202
| 38>     H       18.2894099   14.7876685   18.3223083
| 39>     H       17.2402660   13.3767400   20.0795530
| 40>     H       15.6088363   14.3934243   21.6739364
| 41>     H       14.5873329   16.2295391   22.2856554
| 42>     H       16.0942418   18.2141910   19.7606214
| 43> *
| 44> 
| 45>                          ****END OF INPUT****
================================================================================

                       ****************************
                       * Single Point Calculation *
                       ****************************

---------------------------------
CARTESIAN COORDINATES (ANGSTROEM)
---------------------------------
  C     15.078742   14.505681   14.373707
  C     14.612155   15.974819   14.455715
  O     15.605117   16.923453   14.926966
  C     16.641601   16.669860   15.788376
  O     17.195042   15.589732   15.898959
  C     16.975377   17.822138   16.695487
  C     16.835849   19.121855   16.319842
  C     16.143879   19.669826   15.086749
  N     17.406314   20.148471   17.077078
  C     18.310581   19.957422   18.086390
  S     19.029860   21.226644   18.865736
  N     18.605618   18.655687   18.401436
  C     17.921060   17.469533   17.851798
  C     17.273793   16.600886   18.922552
  C     17.589650   15.234122   19.024997
  C     16.992784   14.434706   20.014262
  C     16.073135   15.007467   20.909561
  C     15.755014   16.368870   20.808290
  O     14.864191   16.923410   21.668697
  C     16.350336   17.161789   19.821973
  H     16.013626   14.421486   13.805315
  H     14.320932   13.894709   13.868899
  H     15.231980   14.080438   15.373564
  H     14.265389   16.295467   13.464978
  H     13.745207   16.013670   15.128006
  H     15.068116   19.457183   15.119063
  H     16.553177   19.215694   14.175579
  H     16.258253   20.755548   14.980882
  H     17.216911   21.109665   16.842565
  H     19.259702   18.540786   19.165283
  H     18.773521   16.947420   17.393220
  H     18.289410   14.787669   18.322308
  H     17.240266   13.376740   20.079553
  H     15.608836   14.393424   21.673936
  H     14.587333   16.229539   22.285655
  H     16.094242   18.214191   19.760621

----------------------------
CARTESIAN COORDINATES (A.U.)
----------------------------
  NO LB      ZA    FRAG     MASS         X           Y           Z
   0 C     6.0000    0    12.011   28.494693   27.411764   27.162369
   1 C     6.0000    0    12.011   27.612971   30.188034   27.317343
   2 O     8.0000    0    15.999   29.489398   31.980692   28.207877
   3 C     6.0000    0    12.011   31.448068   31.501469   29.835708
   4 O     8.0000    0    15.999   32.493920   29.460325   30.044677
   5 C     6.0000    0    12.011   32.078814   33.678960   31.549899
   6 C     6.0000    0    12.011   31.815145   36.135069   30.840032
   7 C     6.0000    0    12.011   30.507510   37.170583   28.509823
   8 N     7.0000    0    14.007   32.893167   38.075093   32.271000
   9 C     6.0000    0    12.011   34.601983   37.714062   34.178324
  10 S    16.0000    0    32.060   35.961224   40.112545   35.651075
  11 N     7.0000    0    14.007   35.159523   35.254138   34.773675
  12 C     6.0000    0    12.011   33.865896   33.012634   33.735010
  13 C     6.0000    0    12.011   32.642739   31.371128   35.758442
  14 C     6.0000    0    12.011   33.239620   28.788318   35.952035
  15 C     6.0000    0    12.011   32.111708   27.277641   37.821473
  16 C     6.0000    0    12.011   30.373823   28.360002   39.513344
  17 C     6.0000    0    12.011   29.772662   30.932681   39.321970
  18 O     8.0000    0    15.999   28.089250   31.980611   40.947903
  19 C     6.0000    0    12.011   30.897658   32.431080   37.458101
  20 H     1.0000    0     1.008   30.261368   27.252660   26.088264
  21 H     1.0000    0     1.008   27.062640   26.257194   26.208421
  22 H     1.0000    0     1.008   28.784270   26.608172   29.051825
  23 H     1.0000    0     1.008   26.957678   30.793969   25.445122
  24 H     1.0000    0     1.008   25.974677   30.261451   28.587788
  25 H     1.0000    0     1.008   28.474612   36.768747   28.570888
  26 H     1.0000    0     1.008   31.280972   36.312399   26.787962
  27 H     1.0000    0     1.008   30.723645   39.222302   28.309764
  28 H     1.0000    0     1.008   32.535247   39.891485   31.827835
  29 H     1.0000    0     1.008   36.395561   35.037008   36.217136
  30 H     1.0000    0     1.008   35.476814   32.025983   32.868423
  31 H     1.0000    0     1.008   34.561976   27.944644   34.624145
  32 H     1.0000    0     1.008   32.579381   25.278375   37.944856
  33 H     1.0000    0     1.008   29.496426   27.199630   40.957804
  34 H     1.0000    0     1.008   27.566064   30.669384   42.113785
  35 H     1.0000    0     1.008   30.413709   34.419833   37.342163

--------------------------------
INTERNAL COORDINATES (ANGSTROEM)
--------------------------------
 C      0   0   0     0.000000000000     0.00000000     0.00000000
 C      1   0   0     1.543630803479     0.00000000     0.00000000
 O      2   1   0     1.451880551652   115.61817923     0.00000000
 C      3   2   1     1.371362975956   126.86732651   330.92699124
 O      4   3   2     1.218687809366   124.34159145    29.04235559
 C      4   3   2     1.503995587576   113.88553862   214.17486424
 C      6   4   3     1.360088887356   122.87374455   327.47840880
 C      7   6   4     1.516447545489   128.07610021    10.72086186
 N      7   6   4     1.397417942752   120.69714264   193.17338135
 C      9   7   6     1.368542846653   124.52891588    11.47377151
 S     10   9   7     1.653985692636   121.85212595   175.35566948
 N     10   9   7     1.371428850328   116.36422342   356.43872563
 C     12  10   9     1.475696571009   125.28096432   352.69731502
 C     13  12  10     1.523160217314   113.18451633   239.22217267
 C     14  13  12     1.406521918108   120.66021497   235.40070166
 C     15  14  13     1.404976136696   120.58325991   179.92720516
 C     16  15  14     1.405479013475   119.64508879   359.93707943
 C     17  16  15     1.401740055895   119.88561999     0.16299930
 O     18  17  16     1.356974974238   120.00504845   179.78853131
 C     18  17  16     1.398552755446   120.33059069   359.87050565
 H      1   2   3     1.097345442811   110.98090657   308.07675717
 H      1   2   3     1.096537292134   110.23422165   188.57617826
 H      1   2   3     1.097281885899   111.26255068    69.45856227
 H      2   1   3     1.097552352976   109.00145536   122.57027824
 H      2   1   3     1.097762931943   107.75399463   238.39355550
 H      8   7   6     1.097054138875   110.69921480    65.03935185
 H      8   7   6     1.097265417261   110.82232696   305.15395482
 H      8   7   6     1.096851268959   112.86665049   185.29620824
 H      9   7   6     1.007354124631   119.87320968   186.28987002
 H     12  10   9     1.012170546810   114.84302052   181.39336051
 H     13  12  10     1.099811609657   100.21407440   121.44771906
 H     15  14  13     1.087546384182   119.75825683   358.90575560
 H     16  15  14     1.088485934967   119.91280509   179.60131961
 H     17  16  15     1.084845879619   119.88175244   179.90660741
 H     19  18  17     0.968888637011   107.37812448     1.76919148
 H     20  18  17     1.084849849795   119.30098097   180.18416760

---------------------------
INTERNAL COORDINATES (A.U.)
---------------------------
 C      0   0   0     0.000000000000     0.00000000     0.00000000
 C      1   0   0     2.917039470460     0.00000000     0.00000000
 O      2   1   0     2.743656621789   115.61817923     0.00000000
 C      3   2   1     2.591500454756   126.86732651   330.92699124
 O      4   3   2     2.302986202450   124.34159145    29.04235559
 C      4   3   2     2.842139767144   113.88553862   214.17486424
 C      6   4   3     2.570195514892   122.87374455   327.47840880
 C      7   6   4     2.865670557432   128.07610021    10.72086186
 N      7   6   4     2.640737206430   120.69714264   193.17338135
 C      9   7   6     2.586171182711   124.52891588    11.47377151
 S     10   9   7     3.125579988506   121.85212595   175.35566948
 N     10   9   7     2.591624939279   116.36422342   356.43872563
 C     12  10   9     2.788662375974   125.28096432   352.69731502
 C     13  12  10     2.878355668807   113.18451633   239.22217267
 C     14  13  12     2.657941226581   120.66021497   235.40070166
 C     15  14  13     2.655020123050   120.58325991   179.92720516
 C     16  15  14     2.655970422442   119.64508879   359.93707943
 C     17  16  15     2.648904816590   119.88561999     0.16299930
 O     18  17  16     2.564311071894   120.00504845   179.78853131
 C     18  17  16     2.642881691634   120.33059069   359.87050565
 H      1   2   3     2.073682361219   110.98090657   308.07675717
 H      1   2   3     2.072155177765   110.23422165   188.57617826
 H      1   2   3     2.073562256062   111.26255068    69.45856227
 H      2   1   3     2.074073364766   109.00145536   122.57027824
 H      2   1   3     2.074471301342   107.75399463   238.39355550
 H      8   7   6     2.073131876559   110.69921480    65.03935185
 H      8   7   6     2.073531134845   110.82232696   305.15395482
 H      8   7   6     2.072748507976   112.86665049   185.29620824
 H      9   7   6     1.903623415428   119.87320968   186.28987002
 H     12  10   9     1.912725134292   114.84302052   181.39336051
 H     13  12  10     2.078342741159   100.21407440   121.44771906
 H     15  14  13     2.055164824041   119.75825683   358.90575560
 H     16  15  14     2.056940317713   119.91280509   179.60131961
 H     17  16  15     2.050061609993   119.88175244   179.90660741
 H     19  18  17     1.830934178220   107.37812448     1.76919148
 H     20  18  17     2.050069112538   119.30098097   180.18416760

---------------------
BASIS SET INFORMATION
---------------------
There are 5 groups of distinct atoms

 Group   1 Type C   : 18s5p2d1f contracted to 4s3p2d1f pattern {8811/311/11/1}
 Group   2 Type O   : 18s5p2d1f contracted to 4s3p2d1f pattern {8811/311/11/1}
 Group   3 Type N   : 18s5p2d1f contracted to 4s3p2d1f pattern {8811/311/11/1}
 Group   4 Type S   : 41s16p2d1f contracted to 5s4p2d1f pattern {13131311/7711/11/1}
 Group   5 Type H   : 5s2p1d contracted to 3s2p1d pattern {311/11/1}

Atom   0C    basis set group =>   1
Atom   1C    basis set group =>   1
Atom   2O    basis set group =>   2
Atom   3C    basis set group =>   1
Atom   4O    basis set group =>   2
Atom   5C    basis set group =>   1
Atom   6C    basis set group =>   1
Atom   7C    basis set group =>   1
Atom   8N    basis set group =>   3
Atom   9C    basis set group =>   1
Atom  10S    basis set group =>   4
Atom  11N    basis set group =>   3
Atom  12C    basis set group =>   1
Atom  13C    basis set group =>   1
Atom  14C    basis set group =>   1
Atom  15C    basis set group =>   1
Atom  16C    basis set group =>   1
Atom  17C    basis set group =>   1
Atom  18O    basis set group =>   2
Atom  19C    basis set group =>   1
Atom  20H    basis set group =>   5
Atom  21H    basis set group =>   5
Atom  22H    basis set group =>   5
Atom  23H    basis set group =>   5
Atom  24H    basis set group =>   5
Atom  25H    basis set group =>   5
Atom  26H    basis set group =>   5
Atom  27H    basis set group =>   5
Atom  28H    basis set group =>   5
Atom  29H    basis set group =>   5
Atom  30H    basis set group =>   5
Atom  31H    basis set group =>   5
Atom  32H    basis set group =>   5
Atom  33H    basis set group =>   5
Atom  34H    basis set group =>   5
Atom  35H    basis set group =>   5
---------------------------------
AUXILIARY/C BASIS SET INFORMATION
---------------------------------
There are 5 groups of distinct atoms

 Group   1 Type C   : 8s6p5d3f1g contracted to 8s6p5d3f1g pattern {11111111/111111/11111/111/1}
 Group   2 Type O   : 8s6p5d3f1g contracted to 8s6p5d3f1g pattern {11111111/111111/11111/111/1}
 Group   3 Type N   : 8s6p5d3f1g contracted to 8s6p5d3f1g pattern {11111111/111111/11111/111/1}
 Group   4 Type S   : 10s8p7d5f2g contracted to 10s8p7d5f2g pattern {1111111111/11111111/1111111/11111/11}
 Group   5 Type H   : 4s3p2d1f contracted to 4s3p2d1f pattern {1111/111/11/1}

Atom   0C    basis set group =>   1
Atom   1C    basis set group =>   1
Atom   2O    basis set group =>   2
Atom   3C    basis set group =>   1
Atom   4O    basis set group =>   2
Atom   5C    basis set group =>   1
Atom   6C    basis set group =>   1
Atom   7C    basis set group =>   1
Atom   8N    basis set group =>   3
Atom   9C    basis set group =>   1
Atom  10S    basis set group =>   4
Atom  11N    basis set group =>   3
Atom  12C    basis set group =>   1
Atom  13C    basis set group =>   1
Atom  14C    basis set group =>   1
Atom  15C    basis set group =>   1
Atom  16C    basis set group =>   1
Atom  17C    basis set group =>   1
Atom  18O    basis set group =>   2
Atom  19C    basis set group =>   1
Atom  20H    basis set group =>   5
Atom  21H    basis set group =>   5
Atom  22H    basis set group =>   5
Atom  23H    basis set group =>   5
Atom  24H    basis set group =>   5
Atom  25H    basis set group =>   5
Atom  26H    basis set group =>   5
Atom  27H    basis set group =>   5
Atom  28H    basis set group =>   5
Atom  29H    basis set group =>   5
Atom  30H    basis set group =>   5
Atom  31H    basis set group =>   5
Atom  32H    basis set group =>   5
Atom  33H    basis set group =>   5
Atom  34H    basis set group =>   5
Atom  35H    basis set group =>   5
------------------------------------------------------------------------------
                           ORCA GTO INTEGRAL CALCULATION
------------------------------------------------------------------------------

                         BASIS SET STATISTICS AND STARTUP INFO

 # of primitive gaussian shells          ...  682
 # of primitive gaussian functions       ... 1312
 # of contracted shells                  ...  298
 # of contracted basis functions         ...  828
 Highest angular momentum                ...    3
 Maximum contraction depth               ...   13
 Integral package used                   ... LIBINT
 Integral threshhold            Thresh   ...  2.500e-11
 Primitive cut-off              TCut     ...  2.500e-12


------------------------------ INTEGRAL EVALUATION ----------------------------


 * One electron integrals 
 Pre-screening matrix                    ... done
 Shell pair data                         ... done (   0.014 sec)

-------------------------------------------------------------------------------
                                 ORCA SCF
-------------------------------------------------------------------------------

------------
SCF SETTINGS
------------
Hamiltonian:
 Ab initio Hamiltonian  Method          .... Hartree-Fock(GTOs)


General Settings:
 Integral files         IntName         .... CONFS/Conf407.orca
 Hartree-Fock type      HFTyp           .... RHF
 Total Charge           Charge          ....    0
 Multiplicity           Mult            ....    1
 Number of Electrons    NEL             ....  154
 Basis Dimension        Dim             ....  828
 Nuclear Repulsion      ENuc            ....   1677.0906945310 Eh

Convergence Acceleration:
 DIIS                   CNVDIIS         .... on
   Start iteration      DIISMaxIt       ....    12
   Startup error        DIISStart       ....  0.200000
   # of expansion vecs  DIISMaxEq       ....     5
   Bias factor          DIISBfac        ....   1.050
   Max. coefficient     DIISMaxC        ....  10.000
 Newton-Raphson         CNVNR           .... off
 SOSCF                  CNVSOSCF        .... on
   Start iteration      SOSCFMaxIt      ....   150
   Startup grad/error   SOSCFStart      ....  0.003300
 Level Shifting         CNVShift        .... on
   Level shift para.    LevelShift      ....    0.2500
   Turn off err/grad.   ShiftErr        ....    0.0010
 Zerner damping         CNVZerner       .... off
 Static damping         CNVDamp         .... on
   Fraction old density DampFac         ....    0.7000
   Max. Damping (<1)    DampMax         ....    0.9800
   Min. Damping (>=0)   DampMin         ....    0.0000
   Turn off err/grad.   DampErr         ....    0.1000
 Fernandez-Rico         CNVRico         .... off

SCF Procedure:
 Maximum # iterations   MaxIter         ....   125
 SCF integral mode      SCFMode         .... Direct
   Integral package                     .... LIBINT
 Reset frequency        DirectResetFreq ....    20
 Integral Threshold     Thresh          ....  2.500e-11 Eh
 Primitive CutOff       TCut            ....  2.500e-12 Eh

Convergence Tolerance:
 Convergence Check Mode ConvCheckMode   .... Total+1el-Energy
 Convergence forced     ConvForced      .... 1
 Energy Change          TolE            ....  1.000e-08 Eh
 1-El. energy change                    ....  1.000e-05 Eh
 Orbital Gradient       TolG            ....  1.000e-05
 Orbital Rotation angle TolX            ....  1.000e-05
 DIIS Error             TolErr          ....  5.000e-07


Diagonalization of the overlap matrix:
Smallest eigenvalue                        ... 3.554e-05
Time for diagonalization                   ...    0.125 sec
Threshold for overlap eigenvalues          ... 1.000e-08
Number of eigenvalues below threshold      ... 0
Time for construction of square roots      ...    0.230 sec
Total time needed                          ...    0.357 sec

-------------------
DFT GRID GENERATION
-------------------

General Integration Accuracy     IntAcc      ...  4.340
Radial Grid Type                 RadialGrid  ... Gauss-Chebyshev
Angular Grid (max. acc.)         AngularGrid ... Lebedev-110
Angular grid pruning method      GridPruning ... 3 (G Style)
Weight generation scheme         WeightScheme... Becke
Basis function cutoff            BFCut       ...    1.0000e-11
Integration weight cutoff        WCut        ...    1.0000e-14
Grids for H and He will be reduced by one unit

# of grid points (after initial pruning)     ...  46246 (   0.0 sec)
# of grid points (after weights+screening)   ...  41453 (   0.3 sec)
nearest neighbour list constructed           ...    0.0 sec
Grid point re-assignment to atoms done       ...    0.0 sec
Grid point division into batches done        ...    0.0 sec
Reduced shell lists constructed in    1.1 sec

Total number of grid points                  ...    41453
Total number of batches                      ...      665
Average number of points per batch           ...       62
Average number of grid points per atom       ...     1151
Average number of shells per batch           ...   142.69 (47.88%)
Average number of basis functions per batch  ...   362.37 (43.76%)
Average number of large shells per batch     ...    91.21 (63.92%)
Average number of large basis fcns per batch ...   235.52 (64.99%)
Maximum spatial batch extension              ...  19.59, 20.95, 20.01 au
Average spatial batch extension              ...   3.65,  3.31,  3.36 au

Time for grid setup =    1.415 sec

------------------------------
INITIAL GUESS: MODEL POTENTIAL
------------------------------
Loading Hartree-Fock densities                     ... done
Calculating cut-offs                               ... done
Setting up the integral package                    ... done
Initializing the effective Hamiltonian             ... done
Starting the Coulomb interaction                   ... done (   3.0 sec)
Reading the grid                                   ... done
Mapping shells                                     ... done
Starting the XC term evaluation                    ... done (   1.4 sec)
Transforming the Hamiltonian                       ... done (   0.1 sec)
Diagonalizing the Hamiltonian                      ... done (   0.1 sec)
Back transforming the eigenvectors                 ... done (   0.0 sec)
Now organizing SCF variables                       ... done
                      ------------------
                      INITIAL GUESS DONE (   6.6 sec)
                      ------------------
--------------
SCF ITERATIONS
--------------
ITER       Energy         Delta-E        Max-DP      RMS-DP      [F,P]     Damp
               ***  Starting incremental Fock matrix formation  ***
  0  -1270.0000503453   0.000000000000 0.04930458  0.00042495  0.3028060 0.7000
  1  -1270.2680178322  -0.267967486914 0.03607452  0.00034022  0.1756229 0.7000
                               ***Turning on DIIS***
  2  -1270.4352136731  -0.167195840831 0.02583471  0.00023011  0.1096791 0.7000
  3  -1272.5881903203  -2.152976647198 0.06314077  0.00050856  0.0828454 0.0000
  4  -1270.7420562428   1.846134077505 0.00774301  0.00009337  0.0070879 0.0000
  5  -1270.8057184300  -0.063662187275 0.00342262  0.00004865  0.0037530 0.0000
                      *** Initiating the SOSCF procedure ***
                           *** Shutting down DIIS ***
                      *** Re-Reading the Fockian *** 
                      *** Removing any level shift *** 
ITER      Energy       Delta-E        Grad      Rot      Max-DP    RMS-DP
  6  -1270.78377386   0.0219445689  0.001550  0.001550  0.001744  0.000025
               *** Restarting incremental Fock matrix formation ***
  7  -1270.79851439  -0.0147405296  0.000881  0.002241  0.001260  0.000015
  8  -1270.79855907  -0.0000446837  0.000406  0.002604  0.001386  0.000016
  9  -1270.79857574  -0.0000166618  0.000140  0.000251  0.000353  0.000004
 10  -1270.79857777  -0.0000020311  0.000042  0.000115  0.000110  0.000001
 11  -1270.79857796  -0.0000001930  0.000021  0.000112  0.000055  0.000001
 12  -1270.79857801  -0.0000000528  0.000009  0.000034  0.000025  0.000000
 13  -1270.79857801  -0.0000000013  0.000003  0.000009  0.000005  0.000000
                  ***Gradient check signals convergence***
              ***Rediagonalizing the Fockian in SOSCF/NRSCF***

               *****************************************************
               *                     SUCCESS                       *
               *           SCF CONVERGED AFTER  14 CYCLES          *
               *****************************************************


----------------
TOTAL SCF ENERGY
----------------

Total Energy       :        -1270.79857800 Eh          -34580.18733 eV

Components:
Nuclear Repulsion  :         1677.09069453 Eh           45635.95789 eV
Electronic Energy  :        -2947.88927253 Eh          -80216.14522 eV
One Electron Energy:        -5075.73406120 Eh         -138117.74558 eV
Two Electron Energy:         2127.84478867 Eh           57901.60036 eV

Virial components:
Potential Energy   :        -2539.71489051 Eh          -69109.15561 eV
Kinetic Energy     :         1268.91631250 Eh           34528.96828 eV
Virial Ratio       :            2.00148336


---------------
SCF CONVERGENCE
---------------

  Last Energy change         ...    1.0793e-08  Tolerance :   1.0000e-08
  Last MAX-Density change    ...    2.0527e-06  Tolerance :   1.0000e-07
  Last RMS-Density change    ...    2.9101e-08  Tolerance :   5.0000e-09
  Last Orbital Gradient      ...    1.0220e-06  Tolerance :   1.0000e-05
  Last Orbital Rotation      ...    3.1394e-06  Tolerance :   1.0000e-05

             **** THE GBW FILE WAS UPDATED (CONFS/Conf407.orca.gbw) ****
             **** DENSITY FILE WAS UPDATED (CONFS/Conf407.orca.scfp) ****
             **** ENERGY FILE WAS UPDATED (CONFS/Conf407.orca.en.tmp) ****
             **** THE GBW FILE WAS UPDATED (CONFS/Conf407.orca.gbw) ****
             **** DENSITY FILE WAS UPDATED (CONFS/Conf407.orca.scfp) ****
----------------
ORBITAL ENERGIES
----------------

  NO   OCC          E(Eh)            E(eV) 
   0   2.0000     -91.887053     -2500.3738 
   1   2.0000     -20.597819      -560.4952 
   2   2.0000     -20.591839      -560.3324 
   3   2.0000     -20.545511      -559.0718 
   4   2.0000     -15.627099      -425.2350 
   5   2.0000     -15.604814      -424.6286 
   6   2.0000     -11.398625      -310.1724 
   7   2.0000     -11.381528      -309.7071 
   8   2.0000     -11.336117      -308.4714 
   9   2.0000     -11.307861      -307.7025 
  10   2.0000     -11.307245      -307.6858 
  11   2.0000     -11.303270      -307.5776 
  12   2.0000     -11.259336      -306.3821 
  13   2.0000     -11.257778      -306.3397 
  14   2.0000     -11.254954      -306.2629 
  15   2.0000     -11.248037      -306.0746 
  16   2.0000     -11.238132      -305.8051 
  17   2.0000     -11.234091      -305.6952 
  18   2.0000     -11.230946      -305.6096 
  19   2.0000     -11.224177      -305.4254 
  20   2.0000      -8.892149      -241.9677 
  21   2.0000      -6.573729      -178.8803 
  22   2.0000      -6.571724      -178.8257 
  23   2.0000      -6.571139      -178.8098 
  24   2.0000      -1.445274       -39.3279 
  25   2.0000      -1.411583       -38.4111 
  26   2.0000      -1.357216       -36.9317 
  27   2.0000      -1.338682       -36.4274 
  28   2.0000      -1.235987       -33.6329 
  29   2.0000      -1.152118       -31.3507 
  30   2.0000      -1.119312       -30.4580 
  31   2.0000      -1.042184       -28.3593 
  32   2.0000      -1.034000       -28.1366 
  33   2.0000      -1.009774       -27.4773 
  34   2.0000      -0.997519       -27.1439 
  35   2.0000      -0.982323       -26.7304 
  36   2.0000      -0.920393       -25.0452 
  37   2.0000      -0.895538       -24.3688 
  38   2.0000      -0.847264       -23.0552 
  39   2.0000      -0.835134       -22.7251 
  40   2.0000      -0.828100       -22.5338 
  41   2.0000      -0.818800       -22.2807 
  42   2.0000      -0.743709       -20.2374 
  43   2.0000      -0.727249       -19.7895 
  44   2.0000      -0.724432       -19.7128 
  45   2.0000      -0.689859       -18.7720 
  46   2.0000      -0.683763       -18.6061 
  47   2.0000      -0.678359       -18.4591 
  48   2.0000      -0.672089       -18.2885 
  49   2.0000      -0.665826       -18.1180 
  50   2.0000      -0.644949       -17.5500 
  51   2.0000      -0.643007       -17.4971 
  52   2.0000      -0.632647       -17.2152 
  53   2.0000      -0.604802       -16.4575 
  54   2.0000      -0.601264       -16.3612 
  55   2.0000      -0.597868       -16.2688 
  56   2.0000      -0.595196       -16.1961 
  57   2.0000      -0.579604       -15.7718 
  58   2.0000      -0.572223       -15.5710 
  59   2.0000      -0.570942       -15.5361 
  60   2.0000      -0.558614       -15.2007 
  61   2.0000      -0.545052       -14.8316 
  62   2.0000      -0.537735       -14.6325 
  63   2.0000      -0.525764       -14.3068 
  64   2.0000      -0.515522       -14.0281 
  65   2.0000      -0.509861       -13.8740 
  66   2.0000      -0.497921       -13.5491 
  67   2.0000      -0.493251       -13.4220 
  68   2.0000      -0.479325       -13.0431 
  69   2.0000      -0.462041       -12.5728 
  70   2.0000      -0.454702       -12.3731 
  71   2.0000      -0.445290       -12.1170 
  72   2.0000      -0.351752        -9.5717 
  73   2.0000      -0.344391        -9.3714 
  74   2.0000      -0.326227        -8.8771 
  75   2.0000      -0.316259        -8.6058 
  76   2.0000      -0.314548        -8.5593 
  77   0.0000       0.077825         2.1177 
  78   0.0000       0.111351         3.0300 
  79   0.0000       0.121894         3.3169 
  80   0.0000       0.135724         3.6932 
  81   0.0000       0.138527         3.7695 
  82   0.0000       0.145462         3.9582 
  83   0.0000       0.153280         4.1710 
  84   0.0000       0.162636         4.4255 
  85   0.0000       0.164929         4.4879 
  86   0.0000       0.166431         4.5288 
  87   0.0000       0.181729         4.9451 
  88   0.0000       0.188189         5.1209 
  89   0.0000       0.194120         5.2823 
  90   0.0000       0.201083         5.4717 
  91   0.0000       0.206504         5.6193 
  92   0.0000       0.210109         5.7174 
  93   0.0000       0.220161         5.9909 
  94   0.0000       0.222905         6.0656 
  95   0.0000       0.236068         6.4237 
  96   0.0000       0.238583         6.4922 
  97   0.0000       0.247414         6.7325 
  98   0.0000       0.251174         6.8348 
  99   0.0000       0.271018         7.3748 
 100   0.0000       0.296811         8.0767 
 101   0.0000       0.308144         8.3850 
 102   0.0000       0.313640         8.5346 
 103   0.0000       0.317776         8.6471 
 104   0.0000       0.329455         8.9649 
 105   0.0000       0.331557         9.0221 
 106   0.0000       0.348843         9.4925 
 107   0.0000       0.351365         9.5611 
 108   0.0000       0.354880         9.6568 
 109   0.0000       0.366050         9.9607 
 110   0.0000       0.368278        10.0213 
 111   0.0000       0.378955        10.3119 
 112   0.0000       0.384768        10.4701 
 113   0.0000       0.397206        10.8085 
 114   0.0000       0.401362        10.9216 
 115   0.0000       0.409190        11.1346 
 116   0.0000       0.419147        11.4056 
 117   0.0000       0.431596        11.7443 
 118   0.0000       0.434053        11.8112 
 119   0.0000       0.438290        11.9265 
 120   0.0000       0.441965        12.0265 
 121   0.0000       0.450536        12.2597 
 122   0.0000       0.451457        12.2848 
 123   0.0000       0.458386        12.4733 
 124   0.0000       0.461050        12.5458 
 125   0.0000       0.470384        12.7998 
 126   0.0000       0.472012        12.8441 
 127   0.0000       0.487963        13.2781 
 128   0.0000       0.490922        13.3587 
 129   0.0000       0.493240        13.4217 
 130   0.0000       0.496585        13.5128 
 131   0.0000       0.505635        13.7590 
 132   0.0000       0.510561        13.8931 
 133   0.0000       0.520349        14.1594 
 134   0.0000       0.522746        14.2246 
 135   0.0000       0.525245        14.2926 
 136   0.0000       0.537898        14.6369 
 137   0.0000       0.539762        14.6877 
 138   0.0000       0.541639        14.7387 
 139   0.0000       0.546203        14.8629 
 140   0.0000       0.552583        15.0365 
 141   0.0000       0.562981        15.3195 
 142   0.0000       0.564926        15.3724 
 143   0.0000       0.572647        15.5825 
 144   0.0000       0.574747        15.6397 
 145   0.0000       0.580250        15.7894 
 146   0.0000       0.583527        15.8786 
 147   0.0000       0.590322        16.0635 
 148   0.0000       0.596108        16.2209 
 149   0.0000       0.597510        16.2591 
 150   0.0000       0.598301        16.2806 
 151   0.0000       0.600605        16.3433 
 152   0.0000       0.605500        16.4765 
 153   0.0000       0.609935        16.5972 
 154   0.0000       0.621086        16.9006 
 155   0.0000       0.625578        17.0228 
 156   0.0000       0.626569        17.0498 
 157   0.0000       0.630707        17.1624 
 158   0.0000       0.634125        17.2554 
 159   0.0000       0.642100        17.4724 
 160   0.0000       0.643132        17.5005 
 161   0.0000       0.647406        17.6168 
 162   0.0000       0.653779        17.7902 
 163   0.0000       0.657960        17.9040 
 164   0.0000       0.666154        18.1270 
 165   0.0000       0.667849        18.1731 
 166   0.0000       0.672003        18.2861 
 167   0.0000       0.681491        18.5443 
 168   0.0000       0.683829        18.6079 
 169   0.0000       0.694063        18.8864 
 170   0.0000       0.701341        19.0845 
 171   0.0000       0.703073        19.1316 
 172   0.0000       0.707410        19.2496 
 173   0.0000       0.717121        19.5139 
 174   0.0000       0.720619        19.6090 
 175   0.0000       0.730076        19.8664 
 176   0.0000       0.735047        20.0017 
 177   0.0000       0.738553        20.0971 
 178   0.0000       0.742578        20.2066 
 179   0.0000       0.750663        20.4266 
 180   0.0000       0.754750        20.5378 
 181   0.0000       0.765489        20.8300 
 182   0.0000       0.772578        21.0229 
 183   0.0000       0.773410        21.0455 
 184   0.0000       0.784995        21.3608 
 185   0.0000       0.805270        21.9125 
 186   0.0000       0.816231        22.2108 
 187   0.0000       0.823099        22.3977 
 188   0.0000       0.829078        22.5603 
 189   0.0000       0.834197        22.6996 
 190   0.0000       0.841020        22.8853 
 191   0.0000       0.847160        23.0524 
 192   0.0000       0.850449        23.1419 
 193   0.0000       0.857968        23.3465 
 194   0.0000       0.868252        23.6263 
 195   0.0000       0.872477        23.7413 
 196   0.0000       0.887631        24.1537 
 197   0.0000       0.895459        24.3667 
 198   0.0000       0.900581        24.5060 
 199   0.0000       0.908761        24.7287 
 200   0.0000       0.917249        24.9596 
 201   0.0000       0.919909        25.0320 
 202   0.0000       0.930846        25.3296 
 203   0.0000       0.932495        25.3745 
 204   0.0000       0.937540        25.5118 
 205   0.0000       0.945973        25.7412 
 206   0.0000       0.948909        25.8211 
 207   0.0000       0.955490        26.0002 
 208   0.0000       0.971667        26.4404 
 209   0.0000       0.974732        26.5238 
 210   0.0000       0.984158        26.7803 
 211   0.0000       0.987606        26.8741 
 212   0.0000       0.991393        26.9772 
 213   0.0000       1.000494        27.2248 
 214   0.0000       1.006104        27.3775 
 215   0.0000       1.014270        27.5997 
 216   0.0000       1.017200        27.6794 
 217   0.0000       1.030814        28.0499 
 218   0.0000       1.038106        28.2483 
 219   0.0000       1.041058        28.3286 
 220   0.0000       1.046150        28.4672 
 221   0.0000       1.056698        28.7542 
 222   0.0000       1.078797        29.3555 
 223   0.0000       1.083651        29.4876 
 224   0.0000       1.086620        29.5684 
 225   0.0000       1.097388        29.8615 
 226   0.0000       1.101689        29.9785 
 227   0.0000       1.108277        30.1577 
 228   0.0000       1.118794        30.4439 
 229   0.0000       1.120639        30.4941 
 230   0.0000       1.124305        30.5939 
 231   0.0000       1.140003        31.0211 
 232   0.0000       1.141749        31.0686 
 233   0.0000       1.145457        31.1695 
 234   0.0000       1.153789        31.3962 
 235   0.0000       1.158201        31.5163 
 236   0.0000       1.165305        31.7096 
 237   0.0000       1.174449        31.9584 
 238   0.0000       1.176713        32.0200 
 239   0.0000       1.182081        32.1661 
 240   0.0000       1.186242        32.2793 
 241   0.0000       1.196622        32.5617 
 242   0.0000       1.202750        32.7285 
 243   0.0000       1.213436        33.0193 
 244   0.0000       1.218289        33.1513 
 245   0.0000       1.222892        33.2766 
 246   0.0000       1.234563        33.5942 
 247   0.0000       1.240370        33.7522 
 248   0.0000       1.247173        33.9373 
 249   0.0000       1.249303        33.9953 
 250   0.0000       1.262174        34.3455 
 251   0.0000       1.265696        34.4413 
 252   0.0000       1.277873        34.7727 
 253   0.0000       1.281610        34.8744 
 254   0.0000       1.288497        35.0618 
 255   0.0000       1.290466        35.1154 
 256   0.0000       1.301497        35.4155 
 257   0.0000       1.312027        35.7021 
 258   0.0000       1.326094        36.0849 
 259   0.0000       1.326859        36.1057 
 260   0.0000       1.337108        36.3846 
 261   0.0000       1.343837        36.5677 
 262   0.0000       1.356899        36.9231 
 263   0.0000       1.363948        37.1149 
 264   0.0000       1.369085        37.2547 
 265   0.0000       1.381704        37.5981 
 266   0.0000       1.383857        37.6567 
 267   0.0000       1.389577        37.8123 
 268   0.0000       1.399740        38.0889 
 269   0.0000       1.406488        38.2725 
 270   0.0000       1.414131        38.4805 
 271   0.0000       1.421206        38.6730 
 272   0.0000       1.435353        39.0579 
 273   0.0000       1.449771        39.4503 
 274   0.0000       1.460293        39.7366 
 275   0.0000       1.462002        39.7831 
 276   0.0000       1.466266        39.8991 
 277   0.0000       1.468594        39.9625 
 278   0.0000       1.480731        40.2927 
 279   0.0000       1.487844        40.4863 
 280   0.0000       1.495499        40.6946 
 281   0.0000       1.498612        40.7793 
 282   0.0000       1.502947        40.8973 
 283   0.0000       1.508315        41.0434 
 284   0.0000       1.513998        41.1980 
 285   0.0000       1.516764        41.2733 
 286   0.0000       1.526785        41.5459 
 287   0.0000       1.535235        41.7759 
 288   0.0000       1.537488        41.8372 
 289   0.0000       1.550174        42.1824 
 290   0.0000       1.558205        42.4009 
 291   0.0000       1.560089        42.4522 
 292   0.0000       1.564700        42.5776 
 293   0.0000       1.573998        42.8307 
 294   0.0000       1.582818        43.0707 
 295   0.0000       1.587070        43.1864 
 296   0.0000       1.598765        43.5046 
 297   0.0000       1.615896        43.9708 
 298   0.0000       1.618368        44.0380 
 299   0.0000       1.625445        44.2306 
 300   0.0000       1.631418        44.3931 
 301   0.0000       1.640097        44.6293 
 302   0.0000       1.652136        44.9569 
 303   0.0000       1.654384        45.0181 
 304   0.0000       1.663363        45.2624 
 305   0.0000       1.668383        45.3990 
 306   0.0000       1.680024        45.7158 
 307   0.0000       1.681963        45.7685 
 308   0.0000       1.690769        46.0082 
 309   0.0000       1.698601        46.2213 
 310   0.0000       1.711673        46.5770 
 311   0.0000       1.717358        46.7317 
 312   0.0000       1.730400        47.0866 
 313   0.0000       1.733410        47.1685 
 314   0.0000       1.747061        47.5399 
 315   0.0000       1.752570        47.6899 
 316   0.0000       1.759079        47.8670 
 317   0.0000       1.770775        48.1852 
 318   0.0000       1.781408        48.4746 
 319   0.0000       1.792818        48.7851 
 320   0.0000       1.804954        49.1153 
 321   0.0000       1.813066        49.3360 
 322   0.0000       1.828136        49.7461 
 323   0.0000       1.830000        49.7968 
 324   0.0000       1.834734        49.9257 
 325   0.0000       1.857160        50.5359 
 326   0.0000       1.877521        51.0900 
 327   0.0000       1.902179        51.7609 
 328   0.0000       1.903305        51.7916 
 329   0.0000       1.907688        51.9108 
 330   0.0000       1.915968        52.1361 
 331   0.0000       1.930525        52.5323 
 332   0.0000       1.937196        52.7138 
 333   0.0000       1.952659        53.1346 
 334   0.0000       1.963914        53.4408 
 335   0.0000       1.978754        53.8446 
 336   0.0000       1.983705        53.9794 
 337   0.0000       2.010699        54.7139 
 338   0.0000       2.012784        54.7706 
 339   0.0000       2.022499        55.0350 
 340   0.0000       2.024840        55.0987 
 341   0.0000       2.034815        55.3701 
 342   0.0000       2.055093        55.9219 
 343   0.0000       2.062392        56.1205 
 344   0.0000       2.088186        56.8224 
 345   0.0000       2.105469        57.2927 
 346   0.0000       2.120799        57.7099 
 347   0.0000       2.133935        58.0673 
 348   0.0000       2.149286        58.4851 
 349   0.0000       2.157343        58.7043 
 350   0.0000       2.172982        59.1299 
 351   0.0000       2.193870        59.6982 
 352   0.0000       2.207191        60.0607 
 353   0.0000       2.214228        60.2522 
 354   0.0000       2.234981        60.8169 
 355   0.0000       2.245953        61.1155 
 356   0.0000       2.272884        61.8483 
 357   0.0000       2.284683        62.1694 
 358   0.0000       2.304858        62.7184 
 359   0.0000       2.310999        62.8855 
 360   0.0000       2.318504        63.0897 
 361   0.0000       2.324271        63.2466 
 362   0.0000       2.341998        63.7290 
 363   0.0000       2.348398        63.9031 
 364   0.0000       2.364064        64.3295 
 365   0.0000       2.370552        64.5060 
 366   0.0000       2.386386        64.9369 
 367   0.0000       2.397051        65.2271 
 368   0.0000       2.414021        65.6888 
 369   0.0000       2.428828        66.0918 
 370   0.0000       2.432159        66.1824 
 371   0.0000       2.455392        66.8146 
 372   0.0000       2.470414        67.2234 
 373   0.0000       2.475105        67.3510 
 374   0.0000       2.480672        67.5025 
 375   0.0000       2.495097        67.8950 
 376   0.0000       2.506494        68.2052 
 377   0.0000       2.515389        68.4472 
 378   0.0000       2.526196        68.7413 
 379   0.0000       2.540273        69.1243 
 380   0.0000       2.548929        69.3599 
 381   0.0000       2.573180        70.0198 
 382   0.0000       2.581946        70.2583 
 383   0.0000       2.602044        70.8052 
 384   0.0000       2.605089        70.8881 
 385   0.0000       2.619834        71.2893 
 386   0.0000       2.639476        71.8238 
 387   0.0000       2.642487        71.9057 
 388   0.0000       2.648345        72.0651 
 389   0.0000       2.665538        72.5330 
 390   0.0000       2.679205        72.9049 
 391   0.0000       2.686992        73.1168 
 392   0.0000       2.692763        73.2738 
 393   0.0000       2.714629        73.8688 
 394   0.0000       2.722425        74.0810 
 395   0.0000       2.730790        74.3086 
 396   0.0000       2.736831        74.4729 
 397   0.0000       2.740312        74.5677 
 398   0.0000       2.749161        74.8085 
 399   0.0000       2.755147        74.9714 
 400   0.0000       2.775115        75.5147 
 401   0.0000       2.784227        75.7627 
 402   0.0000       2.801793        76.2407 
 403   0.0000       2.813155        76.5498 
 404   0.0000       2.826107        76.9023 
 405   0.0000       2.832517        77.0767 
 406   0.0000       2.842362        77.3446 
 407   0.0000       2.851237        77.5861 
 408   0.0000       2.853258        77.6411 
 409   0.0000       2.860221        77.8306 
 410   0.0000       2.871024        78.1245 
 411   0.0000       2.880113        78.3718 
 412   0.0000       2.884938        78.5032 
 413   0.0000       2.901000        78.9402 
 414   0.0000       2.913819        79.2891 
 415   0.0000       2.924342        79.5754 
 416   0.0000       2.934521        79.8524 
 417   0.0000       2.936329        79.9016 
 418   0.0000       2.946475        80.1777 
 419   0.0000       2.955588        80.4256 
 420   0.0000       2.958342        80.5006 
 421   0.0000       2.962269        80.6074 
 422   0.0000       2.981387        81.1277 
 423   0.0000       2.983488        81.1848 
 424   0.0000       2.995502        81.5118 
 425   0.0000       3.003854        81.7390 
 426   0.0000       3.012296        81.9687 
 427   0.0000       3.028531        82.4105 
 428   0.0000       3.033868        82.5557 
 429   0.0000       3.037962        82.6671 
 430   0.0000       3.040986        82.7494 
 431   0.0000       3.047512        82.9270 
 432   0.0000       3.050002        82.9948 
 433   0.0000       3.073758        83.6412 
 434   0.0000       3.075865        83.6985 
 435   0.0000       3.086339        83.9836 
 436   0.0000       3.092367        84.1476 
 437   0.0000       3.094623        84.2090 
 438   0.0000       3.103813        84.4590 
 439   0.0000       3.108417        84.5843 
 440   0.0000       3.115931        84.7888 
 441   0.0000       3.117877        84.8417 
 442   0.0000       3.126705        85.0820 
 443   0.0000       3.137107        85.3650 
 444   0.0000       3.141996        85.4980 
 445   0.0000       3.151742        85.7633 
 446   0.0000       3.157632        85.9235 
 447   0.0000       3.170513        86.2740 
 448   0.0000       3.182485        86.5998 
 449   0.0000       3.186645        86.7130 
 450   0.0000       3.203703        87.1772 
 451   0.0000       3.205022        87.2131 
 452   0.0000       3.210828        87.3711 
 453   0.0000       3.212142        87.4068 
 454   0.0000       3.216323        87.5206 
 455   0.0000       3.224335        87.7386 
 456   0.0000       3.232542        87.9619 
 457   0.0000       3.244280        88.2813 
 458   0.0000       3.251594        88.4804 
 459   0.0000       3.261143        88.7402 
 460   0.0000       3.265013        88.8455 
 461   0.0000       3.276825        89.1669 
 462   0.0000       3.280745        89.2736 
 463   0.0000       3.289025        89.4989 
 464   0.0000       3.296515        89.7027 
 465   0.0000       3.301835        89.8475 
 466   0.0000       3.310101        90.0724 
 467   0.0000       3.317581        90.2760 
 468   0.0000       3.324012        90.4510 
 469   0.0000       3.327519        90.5464 
 470   0.0000       3.335374        90.7601 
 471   0.0000       3.340103        90.8888 
 472   0.0000       3.345876        91.0459 
 473   0.0000       3.357414        91.3599 
 474   0.0000       3.360518        91.4443 
 475   0.0000       3.361958        91.4835 
 476   0.0000       3.368384        91.6584 
 477   0.0000       3.373848        91.8071 
 478   0.0000       3.382720        92.0485 
 479   0.0000       3.391816        92.2960 
 480   0.0000       3.397955        92.4631 
 481   0.0000       3.399431        92.5032 
 482   0.0000       3.407059        92.7108 
 483   0.0000       3.409694        92.7825 
 484   0.0000       3.412238        92.8517 
 485   0.0000       3.415986        92.9537 
 486   0.0000       3.416620        92.9710 
 487   0.0000       3.428742        93.3008 
 488   0.0000       3.431405        93.3733 
 489   0.0000       3.442324        93.6704 
 490   0.0000       3.447524        93.8119 
 491   0.0000       3.452052        93.9351 
 492   0.0000       3.454288        93.9960 
 493   0.0000       3.462108        94.2088 
 494   0.0000       3.467787        94.3633 
 495   0.0000       3.472719        94.4975 
 496   0.0000       3.481770        94.7438 
 497   0.0000       3.485171        94.8363 
 498   0.0000       3.488615        94.9300 
 499   0.0000       3.495692        95.1226 
 500   0.0000       3.507101        95.4331 
 501   0.0000       3.517671        95.7207 
 502   0.0000       3.523293        95.8737 
 503   0.0000       3.532189        96.1157 
 504   0.0000       3.537777        96.2678 
 505   0.0000       3.541006        96.3557 
 506   0.0000       3.549003        96.5733 
 507   0.0000       3.557882        96.8149 
 508   0.0000       3.578452        97.3746 
 509   0.0000       3.579099        97.3922 
 510   0.0000       3.585579        97.5686 
 511   0.0000       3.594428        97.8094 
 512   0.0000       3.600788        97.9824 
 513   0.0000       3.611918        98.2853 
 514   0.0000       3.621509        98.5463 
 515   0.0000       3.627430        98.7074 
 516   0.0000       3.630602        98.7937 
 517   0.0000       3.637133        98.9714 
 518   0.0000       3.640894        99.0738 
 519   0.0000       3.643832        99.1537 
 520   0.0000       3.647472        99.2528 
 521   0.0000       3.653298        99.4113 
 522   0.0000       3.660395        99.6044 
 523   0.0000       3.664588        99.7185 
 524   0.0000       3.672390        99.9308 
 525   0.0000       3.678150       100.0875 
 526   0.0000       3.680976       100.1644 
 527   0.0000       3.684247       100.2535 
 528   0.0000       3.693918       100.5166 
 529   0.0000       3.702821       100.7589 
 530   0.0000       3.706062       100.8471 
 531   0.0000       3.716547       101.1324 
 532   0.0000       3.723811       101.3300 
 533   0.0000       3.729030       101.4721 
 534   0.0000       3.738442       101.7282 
 535   0.0000       3.740961       101.7967 
 536   0.0000       3.750216       102.0486 
 537   0.0000       3.755844       102.2017 
 538   0.0000       3.759034       102.2885 
 539   0.0000       3.770124       102.5903 
 540   0.0000       3.775173       102.7277 
 541   0.0000       3.780884       102.8831 
 542   0.0000       3.785069       102.9970 
 543   0.0000       3.794539       103.2547 
 544   0.0000       3.805939       103.5649 
 545   0.0000       3.807875       103.6176 
 546   0.0000       3.816334       103.8477 
 547   0.0000       3.829204       104.1979 
 548   0.0000       3.841113       104.5220 
 549   0.0000       3.849838       104.7594 
 550   0.0000       3.857967       104.9806 
 551   0.0000       3.862703       105.1095 
 552   0.0000       3.873006       105.3898 
 553   0.0000       3.883617       105.6786 
 554   0.0000       3.888073       105.7998 
 555   0.0000       3.895334       105.9974 
 556   0.0000       3.899133       106.1008 
 557   0.0000       3.904628       106.2503 
 558   0.0000       3.917342       106.5963 
 559   0.0000       3.934359       107.0594 
 560   0.0000       3.939875       107.2095 
 561   0.0000       3.943170       107.2991 
 562   0.0000       3.952702       107.5585 
 563   0.0000       3.966720       107.9399 
 564   0.0000       3.974951       108.1639 
 565   0.0000       3.990334       108.5825 
 566   0.0000       3.993655       108.6729 
 567   0.0000       3.997105       108.7668 
 568   0.0000       4.006280       109.0164 
 569   0.0000       4.021384       109.4274 
 570   0.0000       4.024938       109.5241 
 571   0.0000       4.035323       109.8067 
 572   0.0000       4.046981       110.1239 
 573   0.0000       4.051940       110.2589 
 574   0.0000       4.053236       110.2942 
 575   0.0000       4.072418       110.8161 
 576   0.0000       4.074830       110.8818 
 577   0.0000       4.086995       111.2128 
 578   0.0000       4.089719       111.2869 
 579   0.0000       4.097079       111.4872 
 580   0.0000       4.112736       111.9132 
 581   0.0000       4.114289       111.9555 
 582   0.0000       4.130089       112.3854 
 583   0.0000       4.133719       112.4842 
 584   0.0000       4.139200       112.6334 
 585   0.0000       4.145643       112.8087 
 586   0.0000       4.150668       112.9454 
 587   0.0000       4.156350       113.1000 
 588   0.0000       4.159187       113.1772 
 589   0.0000       4.174163       113.5847 
 590   0.0000       4.180481       113.7567 
 591   0.0000       4.183388       113.8358 
 592   0.0000       4.192025       114.0708 
 593   0.0000       4.194043       114.1257 
 594   0.0000       4.201050       114.3164 
 595   0.0000       4.210784       114.5813 
 596   0.0000       4.218897       114.8020 
 597   0.0000       4.231158       115.1357 
 598   0.0000       4.234628       115.2301 
 599   0.0000       4.237822       115.3170 
 600   0.0000       4.249847       115.6442 
 601   0.0000       4.255810       115.8065 
 602   0.0000       4.265733       116.0765 
 603   0.0000       4.266277       116.0913 
 604   0.0000       4.279444       116.4496 
 605   0.0000       4.293334       116.8276 
 606   0.0000       4.296320       116.9088 
 607   0.0000       4.314548       117.4048 
 608   0.0000       4.317285       117.4793 
 609   0.0000       4.328521       117.7850 
 610   0.0000       4.332510       117.8936 
 611   0.0000       4.341588       118.1406 
 612   0.0000       4.353039       118.4522 
 613   0.0000       4.359861       118.6378 
 614   0.0000       4.368395       118.8701 
 615   0.0000       4.372782       118.9894 
 616   0.0000       4.379764       119.1794 
 617   0.0000       4.382367       119.2503 
 618   0.0000       4.397377       119.6587 
 619   0.0000       4.402992       119.8115 
 620   0.0000       4.407893       119.9449 
 621   0.0000       4.416400       120.1764 
 622   0.0000       4.430433       120.5582 
 623   0.0000       4.436451       120.7220 
 624   0.0000       4.439246       120.7980 
 625   0.0000       4.450995       121.1177 
 626   0.0000       4.453253       121.1792 
 627   0.0000       4.472064       121.6911 
 628   0.0000       4.476228       121.8044 
 629   0.0000       4.481359       121.9440 
 630   0.0000       4.502055       122.5071 
 631   0.0000       4.506684       122.6331 
 632   0.0000       4.517254       122.9207 
 633   0.0000       4.520725       123.0152 
 634   0.0000       4.533616       123.3660 
 635   0.0000       4.545165       123.6802 
 636   0.0000       4.548286       123.7652 
 637   0.0000       4.563211       124.1713 
 638   0.0000       4.565572       124.2355 
 639   0.0000       4.568370       124.3117 
 640   0.0000       4.585597       124.7804 
 641   0.0000       4.593796       125.0035 
 642   0.0000       4.604363       125.2911 
 643   0.0000       4.617016       125.6354 
 644   0.0000       4.624311       125.8339 
 645   0.0000       4.628890       125.9585 
 646   0.0000       4.638216       126.2123 
 647   0.0000       4.642066       126.3170 
 648   0.0000       4.645137       126.4006 
 649   0.0000       4.651926       126.5854 
 650   0.0000       4.658350       126.7601 
 651   0.0000       4.667877       127.0194 
 652   0.0000       4.672715       127.1510 
 653   0.0000       4.675986       127.2400 
 654   0.0000       4.687657       127.5576 
 655   0.0000       4.695765       127.7783 
 656   0.0000       4.703481       127.9882 
 657   0.0000       4.713920       128.2723 
 658   0.0000       4.720474       128.4506 
 659   0.0000       4.737835       128.9230 
 660   0.0000       4.747256       129.1794 
 661   0.0000       4.759449       129.5112 
 662   0.0000       4.772695       129.8716 
 663   0.0000       4.784668       130.1974 
 664   0.0000       4.806281       130.7856 
 665   0.0000       4.809296       130.8676 
 666   0.0000       4.822117       131.2165 
 667   0.0000       4.853774       132.0779 
 668   0.0000       4.864199       132.3616 
 669   0.0000       4.897299       133.2623 
 670   0.0000       4.906852       133.5222 
 671   0.0000       4.909250       133.5875 
 672   0.0000       4.917847       133.8214 
 673   0.0000       4.944546       134.5479 
 674   0.0000       4.962847       135.0459 
 675   0.0000       4.996894       135.9724 
 676   0.0000       5.008569       136.2901 
 677   0.0000       5.012453       136.3958 
 678   0.0000       5.021739       136.6485 
 679   0.0000       5.033124       136.9583 
 680   0.0000       5.053751       137.5195 
 681   0.0000       5.054673       137.5447 
 682   0.0000       5.081440       138.2730 
 683   0.0000       5.089914       138.5036 
 684   0.0000       5.097517       138.7105 
 685   0.0000       5.104295       138.8949 
 686   0.0000       5.124413       139.4424 
 687   0.0000       5.130521       139.6086 
 688   0.0000       5.143507       139.9619 
 689   0.0000       5.148830       140.1068 
 690   0.0000       5.166669       140.5922 
 691   0.0000       5.178324       140.9094 
 692   0.0000       5.184684       141.0824 
 693   0.0000       5.186366       141.1282 
 694   0.0000       5.195069       141.3650 
 695   0.0000       5.214316       141.8888 
 696   0.0000       5.224066       142.1541 
 697   0.0000       5.228777       142.2822 
 698   0.0000       5.237170       142.5106 
 699   0.0000       5.245570       142.7392 
 700   0.0000       5.254332       142.9777 
 701   0.0000       5.274246       143.5195 
 702   0.0000       5.295190       144.0894 
 703   0.0000       5.315666       144.6466 
 704   0.0000       5.319453       144.7497 
 705   0.0000       5.329715       145.0289 
 706   0.0000       5.333889       145.1425 
 707   0.0000       5.354457       145.7022 
 708   0.0000       5.365633       146.0063 
 709   0.0000       5.387446       146.5999 
 710   0.0000       5.400727       146.9612 
 711   0.0000       5.417743       147.4243 
 712   0.0000       5.423506       147.5811 
 713   0.0000       5.460474       148.5871 
 714   0.0000       5.471111       148.8765 
 715   0.0000       5.475431       148.9941 
 716   0.0000       5.499524       149.6496 
 717   0.0000       5.505950       149.8245 
 718   0.0000       5.521327       150.2429 
 719   0.0000       5.523226       150.2946 
 720   0.0000       5.529941       150.4773 
 721   0.0000       5.546255       150.9213 
 722   0.0000       5.561687       151.3412 
 723   0.0000       5.567879       151.5097 
 724   0.0000       5.591949       152.1647 
 725   0.0000       5.605872       152.5435 
 726   0.0000       5.619638       152.9181 
 727   0.0000       5.631099       153.2300 
 728   0.0000       5.633411       153.2929 
 729   0.0000       5.638743       153.4380 
 730   0.0000       5.648615       153.7066 
 731   0.0000       5.660140       154.0202 
 732   0.0000       5.672188       154.3481 
 733   0.0000       5.677006       154.4792 
 734   0.0000       5.699002       155.0777 
 735   0.0000       5.707633       155.3126 
 736   0.0000       5.721658       155.6942 
 737   0.0000       5.725615       155.8019 
 738   0.0000       5.743119       156.2782 
 739   0.0000       5.763775       156.8403 
 740   0.0000       5.765357       156.8833 
 741   0.0000       5.777133       157.2038 
 742   0.0000       5.808475       158.0566 
 743   0.0000       5.809518       158.0850 
 744   0.0000       5.829800       158.6369 
 745   0.0000       5.832747       158.7171 
 746   0.0000       5.843911       159.0209 
 747   0.0000       5.868647       159.6940 
 748   0.0000       5.914266       160.9354 
 749   0.0000       5.929414       161.3476 
 750   0.0000       5.938181       161.5861 
 751   0.0000       5.971910       162.5039 
 752   0.0000       5.979225       162.7030 
 753   0.0000       5.993510       163.0917 
 754   0.0000       6.000336       163.2774 
 755   0.0000       6.002523       163.3369 
 756   0.0000       6.047660       164.5652 
 757   0.0000       6.059132       164.8774 
 758   0.0000       6.077867       165.3872 
 759   0.0000       6.088151       165.6670 
 760   0.0000       6.095769       165.8743 
 761   0.0000       6.163581       167.7196 
 762   0.0000       6.209584       168.9714 
 763   0.0000       6.222902       169.3338 
 764   0.0000       6.227426       169.4569 
 765   0.0000       6.266207       170.5122 
 766   0.0000       6.278589       170.8491 
 767   0.0000       6.323146       172.0615 
 768   0.0000       6.331058       172.2769 
 769   0.0000       6.353954       172.8999 
 770   0.0000       6.372343       173.4003 
 771   0.0000       6.383438       173.7022 
 772   0.0000       6.409690       174.4165 
 773   0.0000       6.443786       175.3443 
 774   0.0000       6.459387       175.7689 
 775   0.0000       6.488432       176.5592 
 776   0.0000       6.497169       176.7970 
 777   0.0000       6.530959       177.7164 
 778   0.0000       6.561646       178.5515 
 779   0.0000       6.596356       179.4960 
 780   0.0000       6.604650       179.7217 
 781   0.0000       6.677357       181.7001 
 782   0.0000       6.715803       182.7463 
 783   0.0000       6.772004       184.2756 
 784   0.0000       6.803687       185.1377 
 785   0.0000       6.913883       188.1363 
 786   0.0000       6.921417       188.3413 
 787   0.0000       6.926354       188.4757 
 788   0.0000       6.982448       190.0021 
 789   0.0000       7.043985       191.6766 
 790   0.0000       7.058362       192.0678 
 791   0.0000       7.066569       192.2911 
 792   0.0000       7.086228       192.8261 
 793   0.0000       7.109074       193.4477 
 794   0.0000       7.160669       194.8517 
 795   0.0000       7.222636       196.5379 
 796   0.0000       7.263779       197.6575 
 797   0.0000       7.285529       198.2493 
 798   0.0000       7.344220       199.8464 
 799   0.0000       7.385242       200.9627 
 800   0.0000       7.420584       201.9244 
 801   0.0000       7.548331       205.4005 
 802   0.0000       7.583624       206.3609 
 803   0.0000       7.598831       206.7747 
 804   0.0000       7.698127       209.4767 
 805   0.0000       7.819217       212.7717 
 806   0.0000       7.827200       212.9889 
 807   0.0000       7.935794       215.9439 
 808   0.0000       7.941165       216.0901 
 809   0.0000       9.339540       254.1418 
 810   0.0000       9.503992       258.6168 
 811   0.0000      10.746226       292.4197 
 812   0.0000      11.107087       302.2392 
 813   0.0000      11.676254       317.7270 
 814   0.0000      12.563155       341.8608 
 815   0.0000      12.852529       349.7351 
 816   0.0000      12.923335       351.6618 
 817   0.0000      13.055420       355.2561 
 818   0.0000      13.108412       356.6980 
 819   0.0000      13.387776       364.2999 
 820   0.0000      13.505008       367.4899 
 821   0.0000      13.761053       374.4573 
 822   0.0000      13.864244       377.2653 
 823   0.0000      14.004605       381.0847 
 824   0.0000      14.021920       381.5558 
 825   0.0000      14.477267       393.9465 
 826   0.0000      14.626470       398.0065 
 827   0.0000      15.947643       433.9574 

                    ********************************
                    * MULLIKEN POPULATION ANALYSIS *
                    ********************************

-----------------------
MULLIKEN ATOMIC CHARGES
-----------------------
   0 C :   -0.284823
   1 C :    0.046858
   2 O :   -0.367113
   3 C :    0.420781
   4 O :   -0.415607
   5 C :   -0.149322
   6 C :    0.154809
   7 C :   -0.282564
   8 N :   -0.128924
   9 C :    0.207429
  10 S :   -0.444184
  11 N :   -0.211175
  12 C :    0.039956
  13 C :    0.032052
  14 C :   -0.172928
  15 C :   -0.134569
  16 C :   -0.277452
  17 C :    0.314021
  18 O :   -0.358861
  19 C :   -0.250796
  20 H :    0.108082
  21 H :    0.095597
  22 H :    0.112837
  23 H :    0.095235
  24 H :    0.088100
  25 H :    0.127410
  26 H :    0.125224
  27 H :    0.102153
  28 H :    0.198529
  29 H :    0.199793
  30 H :    0.156587
  31 H :    0.160545
  32 H :    0.160199
  33 H :    0.128278
  34 H :    0.239866
  35 H :    0.163980
Sum of atomic charges:   -0.0000000

--------------------------------
MULLIKEN REDUCED ORBITAL CHARGES
--------------------------------
  0 C s       :     3.250677  s :     3.250677
      pz      :     1.035285  p :     2.956190
      px      :     1.009151
      py      :     0.911754
      dz2     :     0.011944  d :     0.073565
      dxz     :     0.016742
      dyz     :     0.015990
      dx2y2   :     0.016530
      dxy     :     0.012359
      f0      :     0.000843  f :     0.004391
      f+1     :     0.000123
      f-1     :     0.000792
      f+2     :     0.000676
      f-2     :     0.000387
      f+3     :     0.000852
      f-3     :     0.000719
  1 C s       :     3.180892  s :     3.180892
      pz      :     0.967909  p :     2.611721
      px      :     0.823845
      py      :     0.819967
      dz2     :     0.022219  d :     0.149356
      dxz     :     0.028417
      dyz     :     0.028716
      dx2y2   :     0.036292
      dxy     :     0.033711
      f0      :     0.001206  f :     0.011173
      f+1     :     0.001477
      f-1     :     0.001291
      f+2     :     0.001021
      f-2     :     0.001718
      f+3     :     0.002211
      f-3     :     0.002250
  2 O s       :     3.712655  s :     3.712655
      pz      :     1.594792  p :     4.621681
      px      :     1.385788
      py      :     1.641101
      dz2     :     0.004816  d :     0.030518
      dxz     :     0.006749
      dyz     :     0.004817
      dx2y2   :     0.006020
      dxy     :     0.008116
      f0      :     0.000302  f :     0.002259
      f+1     :     0.000451
      f-1     :     0.000090
      f+2     :     0.000440
      f-2     :     0.000430
      f+3     :     0.000262
      f-3     :     0.000284
  3 C s       :     3.097516  s :     3.097516
      pz      :     0.693065  p :     2.152064
      px      :     0.667372
      py      :     0.791627
      dz2     :     0.043748  d :     0.303102
      dxz     :     0.045552
      dyz     :     0.070036
      dx2y2   :     0.079081
      dxy     :     0.064685
      f0      :     0.003131  f :     0.026537
      f+1     :     0.003607
      f-1     :     0.002368
      f+2     :     0.003666
      f-2     :     0.004388
      f+3     :     0.003390
      f-3     :     0.005987
  4 O s       :     3.770914  s :     3.770914
      pz      :     1.639057  p :     4.606871
      px      :     1.553026
      py      :     1.414788
      dz2     :     0.003983  d :     0.035409
      dxz     :     0.001828
      dyz     :     0.008135
      dx2y2   :     0.009827
      dxy     :     0.011635
      f0      :     0.000258  f :     0.002414
      f+1     :     0.000122
      f-1     :     0.000337
      f+2     :     0.000166
      f-2     :     0.000256
      f+3     :     0.000685
      f-3     :     0.000589
  5 C s       :     3.179094  s :     3.179094
      pz      :     0.936208  p :     2.876386
      px      :     1.105039
      py      :     0.835139
      dz2     :     0.015337  d :     0.083623
      dxz     :     0.010551
      dyz     :     0.027829
      dx2y2   :     0.008159
      dxy     :     0.021747
      f0      :     0.000784  f :     0.010220
      f+1     :     0.001194
      f-1     :     0.001538
      f+2     :     0.002320
      f-2     :     0.001231
      f+3     :     0.001806
      f-3     :     0.001346
  6 C s       :     3.183998  s :     3.183998
      pz      :     0.842168  p :     2.469826
      px      :     0.825855
      py      :     0.801803
      dz2     :     0.031550  d :     0.177050
      dxz     :     0.017701
      dyz     :     0.051171
      dx2y2   :     0.021579
      dxy     :     0.055048
      f0      :     0.001531  f :     0.014318
      f+1     :     0.001190
      f-1     :     0.002777
      f+2     :     0.002660
      f-2     :     0.002117
      f+3     :     0.002398
      f-3     :     0.001646
  7 C s       :     3.277862  s :     3.277862
      pz      :     0.920399  p :     2.931025
      px      :     1.009570
      py      :     1.001056
      dz2     :     0.020066  d :     0.068998
      dxz     :     0.012334
      dyz     :     0.010136
      dx2y2   :     0.020447
      dxy     :     0.006015
      f0      :     0.000392  f :     0.004679
      f+1     :     0.001227
      f-1     :     0.001019
      f+2     :     0.000386
      f-2     :     0.000546
      f+3     :     0.000447
      f-3     :     0.000661
  8 N s       :     3.345833  s :     3.345833
      pz      :     1.279860  p :     3.718685
      px      :     1.373882
      py      :     1.064943
      dz2     :     0.011813  d :     0.059444
      dxz     :     0.009884
      dyz     :     0.013648
      dx2y2   :     0.013531
      dxy     :     0.010568
      f0      :     0.000573  f :     0.004961
      f+1     :     0.001038
      f-1     :     0.000475
      f+2     :     0.000969
      f-2     :     0.001002
      f+3     :     0.000401
      f-3     :     0.000503
  9 C s       :     3.160407  s :     3.160407
      pz      :     0.746173  p :     2.352226
      px      :     0.738556
      py      :     0.867497
      dz2     :     0.057548  d :     0.262344
      dxz     :     0.030266
      dyz     :     0.056714
      dx2y2   :     0.062012
      dxy     :     0.055804
      f0      :     0.002383  f :     0.017595
      f+1     :     0.002473
      f-1     :     0.002434
      f+2     :     0.003381
      f-2     :     0.001705
      f+3     :     0.002720
      f-3     :     0.002499
 10 S s       :     5.854964  s :     5.854964
      pz      :     3.569941  p :    10.494415
      px      :     3.571572
      py      :     3.352902
      dz2     :     0.009457  d :     0.084688
      dxz     :     0.007307
      dyz     :     0.029702
      dx2y2   :     0.011652
      dxy     :     0.026569
      f0      :     0.001221  f :     0.010117
      f+1     :     0.000392
      f-1     :     0.001330
      f+2     :     0.001640
      f-2     :     0.002384
      f+3     :     0.002101
      f-3     :     0.001048
 11 N s       :     3.381365  s :     3.381365
      pz      :     1.369997  p :     3.767133
      px      :     1.385749
      py      :     1.011386
      dz2     :     0.007180  d :     0.058247
      dxz     :     0.007867
      dyz     :     0.013715
      dx2y2   :     0.013537
      dxy     :     0.015948
      f0      :     0.000409  f :     0.004431
      f+1     :     0.000514
      f-1     :     0.000593
      f+2     :     0.000693
      f-2     :     0.000649
      f+3     :     0.000828
      f-3     :     0.000745
 12 C s       :     3.119512  s :     3.119512
      pz      :     0.872984  p :     2.645036
      px      :     0.940000
      py      :     0.832051
      dz2     :     0.034198  d :     0.184135
      dxz     :     0.033998
      dyz     :     0.039658
      dx2y2   :     0.029992
      dxy     :     0.046288
      f0      :     0.001164  f :     0.011362
      f+1     :     0.001428
      f-1     :     0.001702
      f+2     :     0.001948
      f-2     :     0.002326
      f+3     :     0.001398
      f-3     :     0.001396
 13 C s       :     3.101496  s :     3.101496
      pz      :     0.901708  p :     2.745877
      px      :     0.906778
      py      :     0.937392
      dz2     :     0.020426  d :     0.109349
      dxz     :     0.009982
      dyz     :     0.032580
      dx2y2   :     0.019948
      dxy     :     0.026413
      f0      :     0.001139  f :     0.011226
      f+1     :     0.001517
      f-1     :     0.001512
[...]
      f-1     :     0.005601
      f+2     :     0.007465
      f-2     :     0.004781
      f+3     :     0.006336
      f-3     :     0.006776
 15 C s       :     2.705744  s :     2.705744
      pz      :     0.931789  p :     2.797823
      px      :     0.899158
      py      :     0.966876
      dz2     :     0.110702  d :     0.415152
      dxz     :     0.070006
      dyz     :     0.074547
      dx2y2   :     0.096213
      dxy     :     0.063683
      f0      :     0.004436  f :     0.040955
      f+1     :     0.005734
      f-1     :     0.007115
      f+2     :     0.007572
      f-2     :     0.006367
      f+3     :     0.004911
      f-3     :     0.004819
 16 C s       :     2.702058  s :     2.702058
      pz      :     0.948086  p :     2.868065
      px      :     0.944118
      py      :     0.975861
      dz2     :     0.058933  d :     0.391036
      dxz     :     0.051700
      dyz     :     0.103674
      dx2y2   :     0.085404
      dxy     :     0.091326
      f0      :     0.005050  f :     0.040298
      f+1     :     0.004812
      f-1     :     0.005139
      f+2     :     0.006472
      f-2     :     0.005061
      f+3     :     0.008001
      f-3     :     0.005764
 17 C s       :     2.701675  s :     2.701675
      pz      :     0.859933  p :     2.684587
      px      :     0.817804
      py      :     1.006851
      dz2     :     0.145529  d :     0.707124
      dxz     :     0.103887
      dyz     :     0.166731
      dx2y2   :     0.141641
      dxy     :     0.149336
      f0      :     0.013318  f :     0.099138
      f+1     :     0.014052
      f-1     :     0.012615
      f+2     :     0.018191
      f-2     :     0.014652
      f+3     :     0.014129
      f-3     :     0.012180
 18 O s       :     3.177368  s :     3.177368
      pz      :     1.366495  p :     4.348822
      px      :     1.476612
      py      :     1.505714
      dz2     :     0.010680  d :     0.075590
      dxz     :     0.016461
      dyz     :     0.023381
      dx2y2   :     0.011440
      dxy     :     0.013627
      f0      :     0.000689  f :     0.005078
      f+1     :     0.000626
      f-1     :     0.000629
      f+2     :     0.000878
      f-2     :     0.001087
      f+3     :     0.000556
      f-3     :     0.000614
 19 C s       :     2.695633  s :     2.695633
      pz      :     0.948433  p :     2.845231
      px      :     0.931398
      py      :     0.965400
      dz2     :     0.093077  d :     0.388534
      dxz     :     0.068126
      dyz     :     0.076294
      dx2y2   :     0.084575
      dxy     :     0.066461
      f0      :     0.004303  f :     0.040821
      f+1     :     0.006244
      f-1     :     0.006827
      f+2     :     0.007379
      f-2     :     0.006828
      f+3     :     0.004837
      f-3     :     0.004403
 20 H s       :     0.845974  s :     0.845974
      pz      :     0.047382  p :     0.150504
      px      :     0.065734
      py      :     0.037388
      dz2     :     0.005743  d :     0.027604
      dxz     :     0.007544
      dyz     :     0.002117
      dx2y2   :     0.005548
      dxy     :     0.006651
 21 H s       :     0.848728  s :     0.848728
      pz      :     0.047974  p :     0.152017
      px      :     0.055274
      py      :     0.048770
      dz2     :     0.005319  d :     0.027517
      dxz     :     0.005348
      dyz     :     0.003929
      dx2y2   :     0.007252
      dxy     :     0.005668
 22 H s       :     0.845566  s :     0.845566
      pz      :     0.068733  p :     0.151929
      px      :     0.040002
      py      :     0.043194
      dz2     :     0.008528  d :     0.027673
      dxz     :     0.008218
      dyz     :     0.007772
      dx2y2   :     0.001737
      dxy     :     0.001419
 23 H s       :     0.854099  s :     0.854099
      pz      :     0.072030  p :     0.144592
      px      :     0.035703
      py      :     0.036859
      dz2     :     0.009706  d :     0.026951
      dxz     :     0.007788
      dyz     :     0.006280
      dx2y2   :     0.001207
      dxy     :     0.001970
 24 H s       :     0.856366  s :     0.856366
      pz      :     0.050960  p :     0.146583
      px      :     0.060167
      py      :     0.035455
      dz2     :     0.006084  d :     0.027169
      dxz     :     0.007515
      dyz     :     0.002943
      dx2y2   :     0.004918
      dxy     :     0.005709
 25 H s       :     0.830262  s :     0.830262
      pz      :     0.037745  p :     0.151807
      px      :     0.073046
      py      :     0.041015
      dz2     :     0.002377  d :     0.027791
      dxz     :     0.008794
      dyz     :     0.000174
      dx2y2   :     0.007954
      dxy     :     0.008492
 26 H s       :     0.830204  s :     0.830204
      pz      :     0.062323  p :     0.151332
      px      :     0.043570
      py      :     0.045439
      dz2     :     0.008707  d :     0.027766
      dxz     :     0.006750
      dyz     :     0.006581
      dx2y2   :     0.003687
      dxy     :     0.002042
 27 H s       :     0.843605  s :     0.843605
      pz      :     0.036904  p :     0.150106
      px      :     0.040631
      py      :     0.072571
      dz2     :     0.002367  d :     0.027734
      dxz     :     0.000161
      dyz     :     0.009097
      dx2y2   :     0.007118
      dxy     :     0.008990
 28 H s       :     0.742716  s :     0.742716
      pz      :     0.065742  p :     0.254350
      px      :     0.073427
      py      :     0.115181
      dz2     :     0.006900  d :     0.061928
      dxz     :     0.001580
      dyz     :     0.018646
      dx2y2   :     0.014985
      dxy     :     0.019817
 29 H s       :     0.747990  s :     0.747990
      pz      :     0.111393  p :     0.253951
      px      :     0.100402
      py      :     0.042156
      dz2     :     0.021061  d :     0.061364
      dxz     :     0.015205
      dyz     :     0.008978
      dx2y2   :     0.009130
      dxy     :     0.006991
 30 H s       :     0.825585  s :     0.825585
      pz      :     0.045107  p :     0.153727
      px      :     0.061203
      py      :     0.047417
      dz2     :     0.004037  d :     0.029240
      dxz     :     0.007217
      dyz     :     0.003950
      dx2y2   :     0.007121
      dxy     :     0.006916
 31 H s       :     0.840628  s :     0.840628
      pz      :     0.058033  p :     0.155876
      px      :     0.058477
      py      :     0.039366
      dz2     :     0.006295  d :     0.027464
      dxz     :     0.006464
      dyz     :     0.005037
      dx2y2   :     0.004809
      dxy     :     0.004859
 32 H s       :     0.843292  s :     0.843292
      pz      :     0.035768  p :     0.151364
      px      :     0.039227
      py      :     0.076368
      dz2     :     0.002698  d :     0.026483
      dxz     :     0.000490
      dyz     :     0.007755
      dx2y2   :     0.007708
      dxy     :     0.007833
 33 H s       :     0.849322  s :     0.849322
      pz      :     0.061127  p :     0.159139
      px      :     0.049546
      py      :     0.048466
      dz2     :     0.007154  d :     0.027769
      dxz     :     0.005430
      dyz     :     0.006495
      dx2y2   :     0.004485
      dxy     :     0.004206
 34 H s       :     0.707104  s :     0.707104
      pz      :     0.113206  p :     0.348159
      px      :     0.092581
      py      :     0.142372
      dz2     :     0.024742  d :     0.099643
      dxz     :     0.013998
      dyz     :     0.024150
      dx2y2   :     0.017868
      dxy     :     0.018885
 35 H s       :     0.839155  s :     0.839155
      pz      :     0.037402  p :     0.156621
      px      :     0.041626
      py      :     0.077594
      dz2     :     0.002679  d :     0.027917
      dxz     :     0.000566
      dyz     :     0.008275
      dx2y2   :     0.007916
      dxy     :     0.008481


                      *****************************
                      * MAYER POPULATION ANALYSIS *
                      *****************************

  NA   - Mulliken gross atomic population
  ZA   - Total nuclear charge
  QA   - Mulliken gross atomic charge
  VA   - Mayer's total valence
  BVA  - Mayer's bonded valence
  FA   - Mayer's free valence

  ATOM       NA         ZA         QA         VA         BVA        FA
  0 C      6.2848     6.0000    -0.2848     3.8779     3.8779    -0.0000
  1 C      5.9531     6.0000     0.0469     3.8936     3.8936     0.0000
  2 O      8.3671     8.0000    -0.3671     2.0365     2.0365     0.0000
  3 C      5.5792     6.0000     0.4208     4.1751     4.1751    -0.0000
  4 O      8.4156     8.0000    -0.4156     2.0848     2.0848    -0.0000
  5 C      6.1493     6.0000    -0.1493     3.6522     3.6522    -0.0000
  6 C      5.8452     6.0000     0.1548     3.8462     3.8462     0.0000
  7 C      6.2826     6.0000    -0.2826     3.8893     3.8893    -0.0000
  8 N      7.1289     7.0000    -0.1289     3.2931     3.2931    -0.0000
  9 C      5.7926     6.0000     0.2074     4.1541     4.1541     0.0000
 10 S     16.4442    16.0000    -0.4442     1.7524     1.7524     0.0000
 11 N      7.2112     7.0000    -0.2112     3.2501     3.2501    -0.0000
 12 C      5.9600     6.0000     0.0400     3.9302     3.9302    -0.0000
 13 C      5.9679     6.0000     0.0321     3.7670     3.7670    -0.0000
 14 C      6.1729     6.0000    -0.1729     3.8644     3.8644     0.0000
 15 C      6.1346     6.0000    -0.1346     3.8035     3.8035    -0.0000
 16 C      6.2775     6.0000    -0.2775     3.7963     3.7963     0.0000
 17 C      5.6860     6.0000     0.3140     3.8585     3.8585    -0.0000
 18 O      8.3589     8.0000    -0.3589     2.1151     2.1151     0.0000
 19 C      6.2508     6.0000    -0.2508     3.8465     3.8465    -0.0000
 20 H      0.8919     1.0000     0.1081     0.9849     0.9849     0.0000
 21 H      0.9044     1.0000     0.0956     0.9791     0.9791    -0.0000
 22 H      0.8872     1.0000     0.1128     0.9845     0.9845    -0.0000
 23 H      0.9048     1.0000     0.0952     0.9730     0.9730     0.0000
 24 H      0.9119     1.0000     0.0881     0.9693     0.9693    -0.0000
 25 H      0.8726     1.0000     0.1274     0.9792     0.9792    -0.0000
 26 H      0.8748     1.0000     0.1252     0.9825     0.9825    -0.0000
 27 H      0.8978     1.0000     0.1022     0.9866     0.9866     0.0000
 28 H      0.8015     1.0000     0.1985     1.0220     1.0220    -0.0000
 29 H      0.8002     1.0000     0.1998     1.0147     1.0147    -0.0000
 30 H      0.8434     1.0000     0.1566     0.9921     0.9921    -0.0000
 31 H      0.8395     1.0000     0.1605     0.9897     0.9897    -0.0000
 32 H      0.8398     1.0000     0.1602     0.9770     0.9770    -0.0000
 33 H      0.8717     1.0000     0.1283     0.9921     0.9921     0.0000
 34 H      0.7601     1.0000     0.2399     1.0111     1.0111    -0.0000
 35 H      0.8360     1.0000     0.1640     0.9898     0.9898    -0.0000

  Mayer bond orders larger than 0.100000
B(  0-C ,  1-C ) :   0.9810 B(  0-C , 20-H ) :   0.9734 B(  0-C , 21-H ) :   0.9726 
B(  0-C , 22-H ) :   0.9729 B(  1-C ,  2-O ) :   0.9072 B(  1-C , 23-H ) :   0.9798 
B(  1-C , 24-H ) :   0.9768 B(  2-O ,  3-C ) :   1.1021 B(  3-C ,  4-O ) :   1.9947 
B(  3-C ,  5-C ) :   1.0378 B(  5-C ,  6-C ) :   1.6668 B(  5-C , 12-C ) :   0.9474 
B(  6-C ,  7-C ) :   0.9538 B(  6-C ,  8-N ) :   1.1314 B(  7-C , 25-H ) :   0.9639 
B(  7-C , 26-H ) :   0.9656 B(  7-C , 27-H ) :   0.9916 B(  8-N ,  9-C ) :   1.1873 
B(  8-N , 28-H ) :   0.9471 B(  9-C , 10-S ) :   1.6065 B(  9-C , 11-N ) :   1.3061 
B( 11-N , 12-C ) :   0.9755 B( 11-N , 29-H ) :   0.9486 B( 12-C , 13-C ) :   0.9726 
B( 12-C , 30-H ) :   0.9967 B( 13-C , 14-C ) :   1.3759 B( 13-C , 19-C ) :   1.3662 
B( 14-C , 15-C ) :   1.3965 B( 14-C , 31-H ) :   0.9635 B( 15-C , 16-C ) :   1.3588 
B( 15-C , 32-H ) :   0.9712 B( 16-C , 17-C ) :   1.3332 B( 16-C , 33-H ) :   0.9860 
B( 17-C , 18-O ) :   1.1037 B( 17-C , 19-C ) :   1.3670 B( 18-O , 34-H ) :   0.9807 
B( 19-C , 35-H ) :   0.9600 

-------
TIMINGS
-------

Total SCF time: 0 days 1 hours 53 min 45 sec 

Total time                  ....    6825.420 sec
Sum of individual times     ....    6812.713 sec  ( 99.8%)

Fock matrix formation       ....    6773.868 sec  ( 99.2%)
Diagonalization             ....       2.574 sec  (  0.0%)
Density matrix formation    ....       0.440 sec  (  0.0%)
Population analysis         ....       0.711 sec  (  0.0%)
Initial guess               ....       5.150 sec  (  0.1%)
Orbital Transformation      ....       0.000 sec  (  0.0%)
Orbital Orthonormalization  ....       0.000 sec  (  0.0%)
DIIS solution               ....      22.579 sec  (  0.3%)
SOSCF solution              ....       5.977 sec  (  0.1%)

------------------------------------------------------------------------------
                                ORCA  MP2 
------------------------------------------------------------------------------

Freezing NCore=48 chemical core electrons

-------------
RI-MP2 ENERGY
-------------
Dimension of the basis                    ...  828
Memory devoted to MP2                     ...  256 MB   
Data format for buffers                   ... DOUBLE
Compression type for matrix containers    ... UNCOMPRESSED
Overall scaling of the MP2 energy         ...   1.000e+00
Calculating two index integrals           ... done (    0.046 sec)
Cholesky decomposition of V**-1           ... done (    0.428 sec)

-----------------
RI-TRANSFORMATION (AUX index driven)
-----------------

Dimension of the orbital-basis         ... 828
Dimension of the aux-basis             ... 2141
Transformation of internal/external MOs...   24-  76 to   77- 827
Number Format for Storage              ... Double (8 Byte)
Integral mode                          ... Direct

First Phase: integral generation and transformation of MO indices
  Aux angular momentum 0               ... done (    6.137 sec)
  Aux angular momentum 1               ... done (   10.360 sec)
  Aux angular momentum 2               ... done (   12.539 sec)
  Aux angular momentum 3               ... done (    9.407 sec)
  Aux angular momentum 4               ... done (    3.141 sec)
Closing buffer VIA ( 0.63 GB; CompressionRatio= 1.00)
  Phase 1 completed in    41.943 sec
Second Phase: sorting and transformation of aux index

IA-Transformation
Memory available                       ... 167 MB 
Max. # MO pairs treated in a batch     ... 12    
# of internal orbitals                 ... 53
# batches for internal orbitals        ... 5
Closing buffer IAV ( 0.63 GB; CompressionRatio= 1.00)
(ia|v) transformation done in    37.258 sec

  Phase 2 completed in    37.334 sec
RI-Integral transformation completed in    79.287 sec
Opening buffers                              ... done

Starting loop over batches of integrals:

Operator 0  - window                       ... ( 24- 76)x( 77-827)
Operator 0  - Memory available             ...   256 MB
Operator 0  - Memory needed per MO         ...  12.3 MB
Operator 0  - Number of orbitals per batch ... 13
Operator 0  - Number of batches            ... 5

OPERATOR  0   PASS   0:  MOs    24 ...   36
  Reading integrals       ... ok
  Internal MO  26
  Internal MO  29
  Internal MO  32
  Internal MO  35
OPERATOR  0   PASS   1:  MOs    37 ...   49
  Reading integrals       ... ok
  Internal MO  38
  Internal MO  41
  Internal MO  44
  Internal MO  47
OPERATOR  0   PASS   2:  MOs    50 ...   62
  Reading integrals       ... ok
  Internal MO  50
  Internal MO  53
  Internal MO  56
  Internal MO  59
  Internal MO  62
OPERATOR  0   PASS   3:  MOs    63 ...   75
  Reading integrals       ... ok
  Internal MO  65
  Internal MO  68
  Internal MO  71
  Internal MO  74
OPERATOR  0   PASS   4:  MOs    76 ...   76
  Reading integrals       ... ok
Time spent in pair loops =   100.169 sec
Deleting buffer (Ka|jb)[aa] ...done

-----------------------------------------------
 RI-MP2 CORRELATION ENERGY:     -3.529436355 Eh
-----------------------------------------------


-------
TIMINGS
-------

Total time                :  180.082 sec
Integral trafo            :   79.308 sec ( 44.0%)
I/O of integrals          :    3.013 sec (  1.7%)
K(i,j) Operators          :   62.443 sec ( 34.7%)
T(i,j) pair energies      :   10.321 sec (  5.7%)
V-calculation             :    0.046 sec (  0.0%)
V**(-1/2)                 :    0.428 sec (  0.2%)
Gamma(ia|P)               :    0.000 sec (  0.0%)
Gamma-Trafo               :    0.000 sec (  0.0%)
D(virtual)                :    0.000 sec (  0.0%)
D(internal)               :    0.000 sec (  0.0%)
W(virtual)                :    0.000 sec (  0.0%)
W(internal)               :    0.000 sec (  0.0%)
L(virtual)                :    0.000 sec (  0.0%)
L(internal)               :    0.000 sec (  0.0%)
G(D)                      :    0.000 sec (  0.0%)
G(Z)                      :    0.000 sec (  0.0%)
Z-Vector Solution         :    0.000 sec (  0.0%)
3-Index Derivative        :    0.000 sec (  0.0%)
2-Index Derivative        :    0.000 sec (  0.0%)
Separable Gradient        :    0.000 sec (  0.0%)


---------------------------------------
MP2 TOTAL ENERGY:    -1274.328014358 Eh
---------------------------------------

-------------------------   --------------------
FINAL SINGLE POINT ENERGY     -1274.328014358132
-------------------------   --------------------


                            ***************************************
                            *     ORCA property calculations      *
                            ***************************************


  WARNING: The energy has been calculated at the MP2 level but the densities
           used in the property calculations are still SCF densities
           MP2 response densities have not been calculated 
           use %mp2 Density relaxed end
           or  %mp2 Density unrelaxed end

                                    ---------------------
                                    Active property flags
                                    ---------------------
   (+) Dipole Moment


------------------------------------------------------------------------------
                       ORCA ELECTRIC PROPERTIES CALCULATION
------------------------------------------------------------------------------

Dipole Moment Calculation                       ... on
Quadrupole Moment Calculation                   ... off
Polarizability Calculation                      ... off
GBWName                                         ... CONFS/Conf407.orca.gbw
Electron density file                           ... CONFS/Conf407.orca.scfp
The origin for moment calculation is the CENTER OF MASS  = (31.872595, 33.091369 33.585532)

-------------
DIPOLE MOMENT
-------------
                                X             Y             Z
Electronic contribution:      9.11296      10.56235      11.11756
Nuclear contribution   :    -10.72594     -11.80865     -12.16894
                        -----------------------------------------
Total Dipole Moment    :     -1.61299      -1.24630      -1.05138
                        -----------------------------------------
Magnitude (a.u.)       :      2.29356
Magnitude (Debye)      :      5.82976



--------------------
Rotational spectrum 
--------------------
 
Rotational constants in cm-1:     0.010009     0.009113     0.005594 
Rotational constants in MHz :   300.072358   273.213635   167.704429 

 Dipole components along the rotational axes: 
x,y,z [a.u.] :     2.147169    -0.185913    -0.784540 
x,y,z [Debye]:     5.457671    -0.472554    -1.994142 

 

Timings for individual modules:

Sum of individual times         ...     7008.483 sec (= 116.808 min)
GTO integral calculation        ...        1.640 sec (=   0.027 min)   0.0 %
SCF iterations                  ...     6825.482 sec (= 113.758 min)  97.4 %
MP2 module                      ...      181.360 sec (=   3.023 min)   2.6 %
                             ****ORCA TERMINATED NORMALLY****
TOTAL RUN TIME: 0 days 1 hours 56 minutes 49 seconds 449 msec
