
                                 *****************
                                 * O   R   C   A *
                                 *****************

           --- An Ab Initio, DFT and Semiempirical electronic structure package ---

                  #######################################################
                  #                        -***-                        #
                  #          Department of theory and spectroscopy      #
                  #               Directorship: Frank Neese             #
                  #        Max Planck Institute fuer Kohlenforschung    #
                  #                Kaiser Wilhelm Platz 1               #
                  #                 D-45470 Muelheim/Ruhr               #
                  #                      Germany                        #
                  #                                                     #
                  #                  All rights reserved                #
                  #                        -***-                        #
                  #######################################################


                         Program Version 4.2.0 -  RELEASE  -


 With contributions from (in alphabetic order):
   Daniel Aravena         : Magnetic Suceptibility
   Michael Atanasov       : Ab Initio Ligand Field Theory (pilot matlab implementation)
   Alexander A. Auer      : GIAO ZORA, VPT2
   Ute Becker             : Parallelization
   Giovanni Bistoni       : ED, misc. LED, open-shell LED, HFLED
   Martin Brehm           : Molecular dynamics
   Dmytro Bykov           : SCF Hessian
   Vijay G. Chilkuri      : MRCI spin determinant printing, contributions to CSF-ICE
   Dipayan Datta          : RHF DLPNO-CCSD density
   Achintya Kumar Dutta   : EOM-CC, STEOM-CC
   Dmitry Ganyushin       : Spin-Orbit,Spin-Spin,Magnetic field MRCI
   Miquel Garcia          : C-PCM Hessian, Gaussian charge scheme
   Yang Guo               : DLPNO-NEVPT2, CIM, IAO-localization
   Andreas Hansen         : Spin unrestricted coupled pair/coupled cluster methods
   Benjamin Helmich-Paris : CASSCF linear response (MC-RPA)
   Lee Huntington         : MR-EOM, pCC
   Robert Izsak           : Overlap fitted RIJCOSX, COSX-SCS-MP3, EOM
   Christian Kollmar      : KDIIS, OOCD, Brueckner-CCSD(T), CCSD density
   Simone Kossmann        : Meta GGA functionals, TD-DFT gradient, OOMP2, MP2 Hessian
   Martin Krupicka        : AUTO-CI
   Lucas Lang             : DCDCAS
   Dagmar Lenk            : GEPOL surface, SMD
   Dimitrios Liakos       : Extrapolation schemes; Compound Job, initial MDCI parallelization
   Dimitrios Manganas     : Further ROCIS development; embedding schemes
   Dimitrios Pantazis     : SARC Basis sets
   Taras Petrenko         : DFT Hessian,TD-DFT gradient, ASA, ECA, R-Raman, ABS, FL, XAS/XES, NRVS
   Peter Pinski           : DLPNO-MP2, DLPNO-MP2 Gradient
   Christoph Reimann      : Effective Core Potentials
   Marius Retegan         : Local ZFS, SOC
   Christoph Riplinger    : Optimizer, TS searches, QM/MM, DLPNO-CCSD(T), (RO)-DLPNO pert. Triples
   Tobias Risthaus        : Range-separated hybrids, TD-DFT gradient, RPA, STAB
   Michael Roemelt        : Original ROCIS implementation
   Masaaki Saitow         : Open-shell DLPNO-CCSD energy and density
   Barbara Sandhoefer     : DKH picture change effects
   Avijit Sen             : IP-ROCIS
   Kantharuban Sivalingam : CASSCF convergence, NEVPT2, FIC-MRCI
   Bernardo de Souza      : ESD, SOC TD-DFT
   Georgi Stoychev        : AutoAux, RI-MP2 NMR
   Willem Van den Heuvel  : Paramagnetic NMR
   Boris Wezisla          : Elementary symmetry handling
   Frank Wennmohs         : Technical directorship


 We gratefully acknowledge several colleagues who have allowed us to
 interface, adapt or use parts of their codes:
   Stefan Grimme, W. Hujo, H. Kruse,             : VdW corrections, initial TS optimization,
                  C. Bannwarth                     DFT functionals, gCP, sTDA/sTD-DF
   Ed Valeev, F. Pavosevic, A. Kumar             : LibInt (2-el integral package), F12 methods
   Garnet Chan, S. Sharma, J. Yang, R. Olivares  : DMRG
   Ulf Ekstrom                                   : XCFun DFT Library
   Mihaly Kallay                                 : mrcc  (arbitrary order and MRCC methods)
   Andreas Klamt, Michael Diedenhofen            : otool_cosmo (COSMO solvation model)
   Jiri Pittner, Ondrej Demel                    : Mk-CCSD
   Frank Weinhold                                : gennbo (NPA and NBO analysis)
   Christopher J. Cramer and Donald G. Truhlar   : smd solvation model
   Lars Goerigk                                  : TD-DFT with DH, B97 family of functionals
   V. Asgeirsson, H. Jonsson                     : NEB implementation
   FAccTs GmbH                                   : IRC, NEB, NEB-TS, Multilevel, MM, QM/MM, CI optimization
   S Lehtola, MJT Oliveira, MAL Marques          : LibXC Library


 Your calculation uses the libint2 library for the computation of 2-el integrals
 For citations please refer to: http://libint.valeyev.net

 Your ORCA version has been built with support for libXC version: 4.2.3
 For citations please refer to: https://tddft.org/programs/libxc/

 This ORCA versions uses:
   CBLAS   interface :  Fast vector & matrix operations
   LAPACKE interface :  Fast linear algebra routines
   SCALAPACK package :  Parallel linear algebra routines


----- Orbital basis set information -----
Your calculation utilizes the basis: cc-pVTZ 
       H, B-Ne : Obtained from the ccRepo (grant-hill.group.shef.ac.uk/ccrepo) Feb. 2017
                 T. H. Dunning, Jr., J. Chem. Phys. 90, 1007 (1989)
            He : Obtained from the ccRepo (grant-hill.group.shef.ac.uk/ccrepo) Feb. 2017
                 D. E. Woon, T. H. Dunning, Jr., J. Chem. Phys. 100, 2975 (1994)
  Li-Be, Na-Mg : Obtained from the ccRepo (grant-hill.group.shef.ac.uk/ccrepo) Feb. 2017
                 B. P. Prascher, D. E. Woon, K. A. Peterson, T. H. Dunning, Jr., A. K. Wilson, Theor. Chem. Acc. 128, 69 (2011)
         Al-Ar : Obtained from the ccRepo (grant-hill.group.shef.ac.uk/ccrepo) Feb. 2017
                 D. E. Woon, T. H. Dunning, Jr., J. Chem. Phys. 98, 1358 (1993)
            Ca : Obtained from the Peterson Research Group Website (tyr0.chem.wsu.edu/~kipeters) Feb. 2017
                 J. Koput, K. A. Peterson, J. Phys. Chem. 106, 9595 (2002)
         Sc-Zn : Obtained from the ccRepo (grant-hill.group.shef.ac.uk/ccrepo) Feb. 2017
                 N. B. Balabanov, K. A. Peterson, J. Chem. Phys. 123, 064107 (2005)
                 N. B. Balabanov, K. A. Peterson, J. Chem. Phys. 125, 074110 (2006)
         Ga-Kr : Obtained from the ccRepo (grant-hill.group.shef.ac.uk/ccrepo) Feb. 2017
                 A. K. Wilson, D. E. Woon, K. A. Peterson, T. H. Dunning, Jr., J. Chem. Phys. 110, 7667 (1999)
             Y : Obtained from the ccRepo (grant-hill.group.shef.ac.uk/ccrepo) Feb. 2017
                 K. A. Peterson, D. Figgen, M. Dolg, H. Stoll, J. Chem. Phys. 126, 124101 (2007)
        Ag, Au : Obtained from the Peterson Research Group Website (tyr0.chem.wsu.edu/~kipeters) Feb. 2017
                 K. A. Peterson, C. Puzzarini, Theor. Chem. Acc. 114, 283 (2005)

----- AuxC basis set information -----
Your calculation utilizes the auxiliary basis: cc-pVTZ/C 
  Obtained from the EMSL Basis Set Exchange (bse.pnl.gov) Feb. 2017
  H-He, B-F, Al-Ar, Ga-Kr : F. Weigend, A. Kohn, C. Hattig, J. Chem. Phys. 116, 3175 (2002)
             Li-Be, Na-Mg : C. Haettig, Phys. Chem. Chem. Phys. 7, 59 (2005)
                       Ne : C. Haettig, Phys. Chem. Chem. Phys. 7, 59 (2005)
                            F. Weigend, A. Kohn, C. Hattig, J. Chem. Phys. 116, 3175 (2002)
                    Sc-Zn : J. G. Hill, J. A. Platts, J. Chem. Phys. 128, 044104 (2008)

================================================================================
                                        WARNINGS
                       Please study these warnings very carefully!
================================================================================


WARNING: No MP2 level density has been requested!
         To caclulate MP2 level properties use
         %mp2 Density relaxed end
         or
         %mp2 Density unrelaxed end

WARNING: Post HF methods need fully converged wavefunctions
  ===> : Setting SCFConvForced true
         You can overwrite this default with %scf ConvForced false 


INFO   : the flag for use of LIBINT has been found!

================================================================================
                                       INPUT FILE
================================================================================
NAME = CONFS/Conf836.orca
|  1> ! ri-mp2 cc-pvtz cc-pvtz/c TightSCF NoKeepInts
|  2> 
|  3> %scf
|  4>   MaxCore 4096
|  5> end
|  6> *xyz  0  1
|  7>     C       15.5835311   14.3158819   14.3497780
|  8>     C       14.8358584   15.3092543   15.2548941
|  9>     O       15.8230415   16.1761080   15.8428122
| 10>     C       15.6824305   17.5356448   15.7939557
| 11>     O       14.8589113   18.0823208   15.0800114
| 12>     C       16.6187439   18.2451429   16.7361844
| 13>     C       16.8213398   19.5844514   16.6371064
| 14>     C       16.0127501   20.5768075   15.8269704
| 15>     N       17.8746143   20.2054026   17.3124478
| 16>     C       18.8836680   19.5388408   17.9529686
| 17>     S       20.1550191   20.3346598   18.6501802
| 18>     N       18.7974478   18.1698978   17.9680828
| 19>     C       17.6549284   17.3787714   17.4730924
| 20>     C       17.0618294   16.4734308   18.5449740
| 21>     C       17.2021345   15.0757912   18.4616745
| 22>     C       16.6557942   14.2435220   19.4531799
| 23>     C       15.9672258   14.8141631   20.5375440
| 24>     C       15.8300077   16.2066181   20.6243993
| 25>     O       15.1668231   16.7600445   21.6708150
| 26>     C       16.3745632   17.0322329   19.6357957
| 27>     H       14.8799899   13.6132517   13.8868857
| 28>     H       16.3152282   13.7391509   14.9289173
| 29>     H       16.1137312   14.8473533   13.5495813
| 30>     H       14.1021030   15.8611860   14.6522670
| 31>     H       14.2957373   14.7705328   16.0442292
| 32>     H       14.9449810   20.4911296   16.0663160
| 33>     H       16.1247036   20.3819202   14.7527829
| 34>     H       16.3039781   21.6182934   16.0071393
| 35>     H       17.9613924   21.2088549   17.2897430
| 36>     H       19.5396094   17.7068186   18.4771740
| 37>     H       18.1536838   16.7835267   16.6950857
| 38>     H       17.7291055   14.6340226   17.6201768
| 39>     H       16.7663202   13.1631083   19.3794176
| 40>     H       15.5438195   14.1757446   21.3059097
| 41>     H       14.8875926   16.0380458   22.2534959
| 42>     H       16.2643622   18.1080742   19.7220118
| 43> *
| 44> 
| 45>                          ****END OF INPUT****
================================================================================

                       ****************************
                       * Single Point Calculation *
                       ****************************

---------------------------------
CARTESIAN COORDINATES (ANGSTROEM)
---------------------------------
  C     15.583531   14.315882   14.349778
  C     14.835858   15.309254   15.254894
  O     15.823042   16.176108   15.842812
  C     15.682430   17.535645   15.793956
  O     14.858911   18.082321   15.080011
  C     16.618744   18.245143   16.736184
  C     16.821340   19.584451   16.637106
  C     16.012750   20.576807   15.826970
  N     17.874614   20.205403   17.312448
  C     18.883668   19.538841   17.952969
  S     20.155019   20.334660   18.650180
  N     18.797448   18.169898   17.968083
  C     17.654928   17.378771   17.473092
  C     17.061829   16.473431   18.544974
  C     17.202134   15.075791   18.461674
  C     16.655794   14.243522   19.453180
  C     15.967226   14.814163   20.537544
  C     15.830008   16.206618   20.624399
  O     15.166823   16.760044   21.670815
  C     16.374563   17.032233   19.635796
  H     14.879990   13.613252   13.886886
  H     16.315228   13.739151   14.928917
  H     16.113731   14.847353   13.549581
  H     14.102103   15.861186   14.652267
  H     14.295737   14.770533   16.044229
  H     14.944981   20.491130   16.066316
  H     16.124704   20.381920   14.752783
  H     16.303978   21.618293   16.007139
  H     17.961392   21.208855   17.289743
  H     19.539609   17.706819   18.477174
  H     18.153684   16.783527   16.695086
  H     17.729105   14.634023   17.620177
  H     16.766320   13.163108   19.379418
  H     15.543819   14.175745   21.305910
  H     14.887593   16.038046   22.253496
  H     16.264362   18.108074   19.722012

----------------------------
CARTESIAN COORDINATES (A.U.)
----------------------------
  NO LB      ZA    FRAG     MASS         X           Y           Z
   0 C     6.0000    0    12.011   29.448606   27.053096   27.117151
   1 C     6.0000    0    12.011   28.035709   28.930298   28.827572
   2 O     8.0000    0    15.999   29.901215   30.568414   29.938576
   3 C     6.0000    0    12.011   29.635499   33.137566   29.846251
   4 O     8.0000    0    15.999   28.079273   34.170634   28.497092
   5 C     6.0000    0    12.011   31.404875   34.478323   31.626805
   6 C     6.0000    0    12.011   31.787725   37.009250   31.439575
   7 C     6.0000    0    12.011   30.259712   38.884531   29.908640
   8 N     7.0000    0    14.007   33.778126   38.182677   32.715785
   9 C     6.0000    0    12.011   35.684961   36.923058   33.926194
  10 S    16.0000    0    32.060   38.087466   38.426938   35.243733
  11 N     7.0000    0    14.007   35.522028   34.336131   33.954756
  12 C     6.0000    0    12.011   33.362980   32.841118   33.019359
  13 C     6.0000    0    12.011   32.242185   31.130273   35.044922
  14 C     6.0000    0    12.011   32.507323   28.489117   34.887509
  15 C     6.0000    0    12.011   31.474890   26.916356   36.761182
  16 C     6.0000    0    12.011   30.173684   27.994711   38.810334
  17 C     6.0000    0    12.011   29.914379   30.626070   38.974466
  18 O     8.0000    0    15.999   28.661142   31.671894   40.951905
  19 C     6.0000    0    12.011   30.943440   32.186256   37.106276
  20 H     1.0000    0     1.008   28.119106   25.725318   26.242411
  21 H     1.0000    0     1.008   30.831313   25.963233   28.211565
  22 H     1.0000    0     1.008   30.450539   28.057432   25.604998
  23 H     1.0000    0     1.008   26.649113   29.973298   27.688772
  24 H     1.0000    0     1.008   27.015028   27.912262   30.319199
  25 H     1.0000    0     1.008   28.241921   38.722623   30.360937
  26 H     1.0000    0     1.008   30.471274   38.516247   27.878719
  27 H     1.0000    0     1.008   30.810054   40.852654   30.249109
  28 H     1.0000    0     1.008   33.942113   40.078927   32.672879
  29 H     1.0000    0     1.008   36.924511   33.461038   34.916799
  30 H     1.0000    0     1.008   34.305491   31.716269   31.549140
  31 H     1.0000    0     1.008   33.503154   27.654295   33.297309
  32 H     1.0000    0     1.008   31.683753   24.874670   36.621792
  33 H     1.0000    0     1.008   29.373562   26.788275   40.262334
  34 H     1.0000    0     1.008   28.133473   30.307514   42.053013
  35 H     1.0000    0     1.008   30.735190   34.219301   37.269201

--------------------------------
INTERNAL COORDINATES (ANGSTROEM)
--------------------------------
 C      0   0   0     0.000000000000     0.00000000     0.00000000
 C      1   0   0     1.537868117195     0.00000000     0.00000000
 O      2   1   0     1.439310078627   107.21658942     0.00000000
 C      3   2   1     1.367661771590   120.90293710   129.29422301
 O      4   3   2     1.219325627241   122.41402503   347.68143216
 C      4   3   2     1.505943312355   112.46134169   166.04334525
 C      6   4   3     1.358163762936   120.77670598   166.49365123
 C      7   6   4     1.514895465255   127.25499338    12.51768955
 N      7   6   4     1.396801192613   121.03707252   193.11600208
 C      9   7   6     1.368488545051   124.45597494     9.81085161
 S     10   9   7     1.654014968314   121.98522558   175.92746413
 N     10   9   7     1.371738786788   116.41677246   356.96525930
 C     12  10   9     1.475210851453   125.46248355   353.68082344
 C     13  12  10     1.523265633508   112.59255001   237.64213647
 C     14  13  12     1.407132111521   120.65405697   249.40146799
 C     15  14  13     1.405077472206   120.51671781   179.89428320
 C     16  15  14     1.405561527595   119.63074962   359.83175154
 C     17  16  15     1.401892855082   119.93406337   359.96977863
 O     18  17  16     1.356864182997   120.04939896   180.06068546
 C     18  17  16     1.398398215278   120.29881238     0.04845625
 H      1   2   3     1.096781062678   110.50833271   178.90234692
 H      1   2   3     1.096996636874   110.68059410    58.94343583
 H      1   2   3     1.097218644459   110.56548214   298.68241430
 H      2   1   3     1.098264544702   109.05580102   121.84259676
 H      2   1   3     1.097725629344   110.20741319   240.48835144
 H      8   7   6     1.097614627136   110.57899609    52.77518088
 H      8   7   6     1.097448600628   110.65052807   293.91974905
 H      8   7   6     1.096342765931   113.11757596   173.10063933
 H      9   7   6     1.007453455480   119.79130901   185.20826344
 H     12  10   9     1.012136372187   114.58527222   182.09520664
 H     13  12  10     1.099257761925   100.16463243   120.06884309
 H     15  14  13     1.086727339259   119.86518596   359.34536800
 H     16  15  14     1.088554379315   120.03992861   179.81287992
 H     17  16  15     1.085005495359   119.90909342   180.01990172
 H     19  18  17     0.968900834016   107.50030732     1.44275065
 H     20  18  17     1.084901829239   119.32304788   180.37921976

---------------------------
INTERNAL COORDINATES (A.U.)
---------------------------
 C      0   0   0     0.000000000000     0.00000000     0.00000000
 C      1   0   0     2.906149571588     0.00000000     0.00000000
 O      2   1   0     2.719901870397   107.21658942     0.00000000
 C      3   2   1     2.584506192138   120.90293710   129.29422301
 O      4   3   2     2.304191503558   122.41402503   347.68143216
 C      4   3   2     2.845820433561   112.46134169   166.04334525
 C      6   4   3     2.566557556965   120.77670598   166.49365123
 C      7   6   4     2.862737550851   127.25499338    12.51768955
 N      7   6   4     2.639571717574   121.03707252   193.11600208
 C      9   7   6     2.586068567555   124.45597494     9.81085161
 S     10   9   7     3.125635311520   121.98522558   175.92746413
 N     10   9   7     2.592210634307   116.41677246   356.96525930
 C     12  10   9     2.787744499035   125.46248355   353.68082344
 C     13  12  10     2.878554876545   112.59255001   237.64213647
 C     14  13  12     2.659094325022   120.65405697   249.40146799
 C     15  14  13     2.655211619412   120.51671781   179.89428320
 C     16  15  14     2.656126351531   119.63074962   359.83175154
 C     17  16  15     2.649193565206   119.93406337   359.96977863
 O     18  17  16     2.564101706791   120.04939896   180.06068546
 C     18  17  16     2.642589653039   120.29881238     0.04845625
 H      1   2   3     2.072615837332   110.50833271   178.90234692
 H      1   2   3     2.073023213525   110.68059410    58.94343583
 H      1   2   3     2.073442747060   110.56548214   298.68241430
 H      2   1   3     2.075419212082   109.05580102   121.84259676
 H      2   1   3     2.074400809647   110.20741319   240.48835144
 H      8   7   6     2.074191045873   110.57899609    52.77518088
 H      8   7   6     2.073877301242   110.65052807   293.91974905
 H      8   7   6     2.071787576516   113.11757596   173.10063933
 H      9   7   6     1.903811123529   119.79130901   185.20826344
 H     12  10   9     1.912660553615   114.58527222   182.09520664
 H     13  12  10     2.077296120625   100.16463243   120.06884309
 H     15  14  13     2.053617053444   119.86518596   359.34536800
 H     16  15  14     2.057069658785   120.03992861   179.81287992
 H     17  16  15     2.050363240027   119.90909342   180.01990172
 H     19  18  17     1.830957227218   107.50030732     1.44275065
 H     20  18  17     2.050167339452   119.32304788   180.37921976

---------------------
BASIS SET INFORMATION
---------------------
There are 5 groups of distinct atoms

 Group   1 Type C   : 18s5p2d1f contracted to 4s3p2d1f pattern {8811/311/11/1}
 Group   2 Type O   : 18s5p2d1f contracted to 4s3p2d1f pattern {8811/311/11/1}
 Group   3 Type N   : 18s5p2d1f contracted to 4s3p2d1f pattern {8811/311/11/1}
 Group   4 Type S   : 41s16p2d1f contracted to 5s4p2d1f pattern {13131311/7711/11/1}
 Group   5 Type H   : 5s2p1d contracted to 3s2p1d pattern {311/11/1}

Atom   0C    basis set group =>   1
Atom   1C    basis set group =>   1
Atom   2O    basis set group =>   2
Atom   3C    basis set group =>   1
Atom   4O    basis set group =>   2
Atom   5C    basis set group =>   1
Atom   6C    basis set group =>   1
Atom   7C    basis set group =>   1
Atom   8N    basis set group =>   3
Atom   9C    basis set group =>   1
Atom  10S    basis set group =>   4
Atom  11N    basis set group =>   3
Atom  12C    basis set group =>   1
Atom  13C    basis set group =>   1
Atom  14C    basis set group =>   1
Atom  15C    basis set group =>   1
Atom  16C    basis set group =>   1
Atom  17C    basis set group =>   1
Atom  18O    basis set group =>   2
Atom  19C    basis set group =>   1
Atom  20H    basis set group =>   5
Atom  21H    basis set group =>   5
Atom  22H    basis set group =>   5
Atom  23H    basis set group =>   5
Atom  24H    basis set group =>   5
Atom  25H    basis set group =>   5
Atom  26H    basis set group =>   5
Atom  27H    basis set group =>   5
Atom  28H    basis set group =>   5
Atom  29H    basis set group =>   5
Atom  30H    basis set group =>   5
Atom  31H    basis set group =>   5
Atom  32H    basis set group =>   5
Atom  33H    basis set group =>   5
Atom  34H    basis set group =>   5
Atom  35H    basis set group =>   5
---------------------------------
AUXILIARY/C BASIS SET INFORMATION
---------------------------------
There are 5 groups of distinct atoms

 Group   1 Type C   : 8s6p5d3f1g contracted to 8s6p5d3f1g pattern {11111111/111111/11111/111/1}
 Group   2 Type O   : 8s6p5d3f1g contracted to 8s6p5d3f1g pattern {11111111/111111/11111/111/1}
 Group   3 Type N   : 8s6p5d3f1g contracted to 8s6p5d3f1g pattern {11111111/111111/11111/111/1}
 Group   4 Type S   : 10s8p7d5f2g contracted to 10s8p7d5f2g pattern {1111111111/11111111/1111111/11111/11}
 Group   5 Type H   : 4s3p2d1f contracted to 4s3p2d1f pattern {1111/111/11/1}

Atom   0C    basis set group =>   1
Atom   1C    basis set group =>   1
Atom   2O    basis set group =>   2
Atom   3C    basis set group =>   1
Atom   4O    basis set group =>   2
Atom   5C    basis set group =>   1
Atom   6C    basis set group =>   1
Atom   7C    basis set group =>   1
Atom   8N    basis set group =>   3
Atom   9C    basis set group =>   1
Atom  10S    basis set group =>   4
Atom  11N    basis set group =>   3
Atom  12C    basis set group =>   1
Atom  13C    basis set group =>   1
Atom  14C    basis set group =>   1
Atom  15C    basis set group =>   1
Atom  16C    basis set group =>   1
Atom  17C    basis set group =>   1
Atom  18O    basis set group =>   2
Atom  19C    basis set group =>   1
Atom  20H    basis set group =>   5
Atom  21H    basis set group =>   5
Atom  22H    basis set group =>   5
Atom  23H    basis set group =>   5
Atom  24H    basis set group =>   5
Atom  25H    basis set group =>   5
Atom  26H    basis set group =>   5
Atom  27H    basis set group =>   5
Atom  28H    basis set group =>   5
Atom  29H    basis set group =>   5
Atom  30H    basis set group =>   5
Atom  31H    basis set group =>   5
Atom  32H    basis set group =>   5
Atom  33H    basis set group =>   5
Atom  34H    basis set group =>   5
Atom  35H    basis set group =>   5
------------------------------------------------------------------------------
                           ORCA GTO INTEGRAL CALCULATION
------------------------------------------------------------------------------

                         BASIS SET STATISTICS AND STARTUP INFO

 # of primitive gaussian shells          ...  682
 # of primitive gaussian functions       ... 1312
 # of contracted shells                  ...  298
 # of contracted basis functions         ...  828
 Highest angular momentum                ...    3
 Maximum contraction depth               ...   13
 Integral package used                   ... LIBINT
 Integral threshhold            Thresh   ...  2.500e-11
 Primitive cut-off              TCut     ...  2.500e-12


------------------------------ INTEGRAL EVALUATION ----------------------------


 * One electron integrals 
 Pre-screening matrix                    ... done
 Shell pair data                         ... done (   0.013 sec)

-------------------------------------------------------------------------------
                                 ORCA SCF
-------------------------------------------------------------------------------

------------
SCF SETTINGS
------------
Hamiltonian:
 Ab initio Hamiltonian  Method          .... Hartree-Fock(GTOs)


General Settings:
 Integral files         IntName         .... CONFS/Conf836.orca
 Hartree-Fock type      HFTyp           .... RHF
 Total Charge           Charge          ....    0
 Multiplicity           Mult            ....    1
 Number of Electrons    NEL             ....  154
 Basis Dimension        Dim             ....  828
 Nuclear Repulsion      ENuc            ....   1683.7456340293 Eh

Convergence Acceleration:
 DIIS                   CNVDIIS         .... on
   Start iteration      DIISMaxIt       ....    12
   Startup error        DIISStart       ....  0.200000
   # of expansion vecs  DIISMaxEq       ....     5
   Bias factor          DIISBfac        ....   1.050
   Max. coefficient     DIISMaxC        ....  10.000
 Newton-Raphson         CNVNR           .... off
 SOSCF                  CNVSOSCF        .... on
   Start iteration      SOSCFMaxIt      ....   150
   Startup grad/error   SOSCFStart      ....  0.003300
 Level Shifting         CNVShift        .... on
   Level shift para.    LevelShift      ....    0.2500
   Turn off err/grad.   ShiftErr        ....    0.0010
 Zerner damping         CNVZerner       .... off
 Static damping         CNVDamp         .... on
   Fraction old density DampFac         ....    0.7000
   Max. Damping (<1)    DampMax         ....    0.9800
   Min. Damping (>=0)   DampMin         ....    0.0000
   Turn off err/grad.   DampErr         ....    0.1000
 Fernandez-Rico         CNVRico         .... off

SCF Procedure:
 Maximum # iterations   MaxIter         ....   125
 SCF integral mode      SCFMode         .... Direct
   Integral package                     .... LIBINT
 Reset frequency        DirectResetFreq ....    20
 Integral Threshold     Thresh          ....  2.500e-11 Eh
 Primitive CutOff       TCut            ....  2.500e-12 Eh

Convergence Tolerance:
 Convergence Check Mode ConvCheckMode   .... Total+1el-Energy
 Convergence forced     ConvForced      .... 1
 Energy Change          TolE            ....  1.000e-08 Eh
 1-El. energy change                    ....  1.000e-05 Eh
 Orbital Gradient       TolG            ....  1.000e-05
 Orbital Rotation angle TolX            ....  1.000e-05
 DIIS Error             TolErr          ....  5.000e-07


Diagonalization of the overlap matrix:
Smallest eigenvalue                        ... 3.470e-05
Time for diagonalization                   ...    0.292 sec
Threshold for overlap eigenvalues          ... 1.000e-08
Number of eigenvalues below threshold      ... 0
Time for construction of square roots      ...    0.336 sec
Total time needed                          ...    0.629 sec

-------------------
DFT GRID GENERATION
-------------------

General Integration Accuracy     IntAcc      ...  4.340
Radial Grid Type                 RadialGrid  ... Gauss-Chebyshev
Angular Grid (max. acc.)         AngularGrid ... Lebedev-110
Angular grid pruning method      GridPruning ... 3 (G Style)
Weight generation scheme         WeightScheme... Becke
Basis function cutoff            BFCut       ...    1.0000e-11
Integration weight cutoff        WCut        ...    1.0000e-14
Grids for H and He will be reduced by one unit

# of grid points (after initial pruning)     ...  46246 (   0.0 sec)
# of grid points (after weights+screening)   ...  41426 (   0.3 sec)
nearest neighbour list constructed           ...    0.0 sec
Grid point re-assignment to atoms done       ...    0.0 sec
Grid point division into batches done        ...    0.1 sec
Reduced shell lists constructed in    0.8 sec

Total number of grid points                  ...    41426
Total number of batches                      ...      664
Average number of points per batch           ...       62
Average number of grid points per atom       ...     1151
Average number of shells per batch           ...   144.60 (48.52%)
Average number of basis functions per batch  ...   366.81 (44.30%)
Average number of large shells per batch     ...    92.07 (63.67%)
Average number of large basis fcns per batch ...   237.49 (64.74%)
Maximum spatial batch extension              ...  25.34, 20.95, 22.85 au
Average spatial batch extension              ...   3.65,  3.37,  3.55 au

Time for grid setup =    1.157 sec

------------------------------
INITIAL GUESS: MODEL POTENTIAL
------------------------------
Loading Hartree-Fock densities                     ... done
Calculating cut-offs                               ... done
Setting up the integral package                    ... done
Initializing the effective Hamiltonian             ... done
Starting the Coulomb interaction                   ... done (   2.8 sec)
Reading the grid                                   ... done
Mapping shells                                     ... done
Starting the XC term evaluation                    ... done (   1.0 sec)
Transforming the Hamiltonian                       ... done (   0.2 sec)
Diagonalizing the Hamiltonian                      ... done (   0.3 sec)
Back transforming the eigenvectors                 ... done (   0.1 sec)
Now organizing SCF variables                       ... done
                      ------------------
                      INITIAL GUESS DONE (   5.8 sec)
                      ------------------
--------------
SCF ITERATIONS
--------------
ITER       Energy         Delta-E        Max-DP      RMS-DP      [F,P]     Damp
               ***  Starting incremental Fock matrix formation  ***
  0  -1270.0168096967   0.000000000000 0.04931074  0.00042299  0.3046941 0.7000
  1  -1270.2843009642  -0.267491267518 0.03607623  0.00033959  0.1789985 0.7000
                               ***Turning on DIIS***
  2  -1270.4511844715  -0.166883507268 0.02583362  0.00023005  0.1096561 0.7000
  3  -1272.5819303057  -2.130745834194 0.06312342  0.00050644  0.0829369 0.0000
  4  -1270.7599282741   1.822002031633 0.00684292  0.00009077  0.0072687 0.0000
  5  -1270.8193185818  -0.059390307722 0.00292024  0.00004792  0.0046514 0.0000
                      *** Initiating the SOSCF procedure ***
                           *** Shutting down DIIS ***
                      *** Re-Reading the Fockian *** 
                      *** Removing any level shift *** 
ITER      Energy       Delta-E        Grad      Rot      Max-DP    RMS-DP
  6  -1270.79895615   0.0203624357  0.001687  0.001687  0.001598  0.000024
               *** Restarting incremental Fock matrix formation ***
  7  -1270.81370380  -0.0147476520  0.000872  0.002210  0.001266  0.000014
  8  -1270.81374601  -0.0000422088  0.000398  0.002415  0.001376  0.000015
  9  -1270.81376156  -0.0000155502  0.000168  0.000328  0.000344  0.000004
 10  -1270.81376343  -0.0000018732  0.000046  0.000124  0.000112  0.000001
 11  -1270.81376361  -0.0000001826  0.000025  0.000116  0.000054  0.000001
 12  -1270.81376367  -0.0000000573  0.000010  0.000041  0.000032  0.000000
 13  -1270.81376367  -0.0000000018  0.000003  0.000013  0.000007  0.000000
                  ***Gradient check signals convergence***
              ***Rediagonalizing the Fockian in SOSCF/NRSCF***

               *****************************************************
               *                     SUCCESS                       *
               *           SCF CONVERGED AFTER  14 CYCLES          *
               *****************************************************


----------------
TOTAL SCF ENERGY
----------------

Total Energy       :        -1270.81376366 Eh          -34580.60055 eV

Components:
Nuclear Repulsion  :         1683.74563403 Eh           45817.04800 eV
Electronic Energy  :        -2954.55939769 Eh          -80397.64855 eV
One Electron Energy:        -5088.76891743 Eh         -138472.44205 eV
Two Electron Energy:         2134.20951974 Eh           58074.79350 eV

Virial components:
Potential Energy   :        -2539.76149441 Eh          -69110.42377 eV
Kinetic Energy     :         1268.94773076 Eh           34529.82322 eV
Virial Ratio       :            2.00147054


---------------
SCF CONVERGENCE
---------------

  Last Energy change         ...    1.3053e-08  Tolerance :   1.0000e-08
  Last MAX-Density change    ...    2.0123e-06  Tolerance :   1.0000e-07
  Last RMS-Density change    ...    2.6856e-08  Tolerance :   5.0000e-09
  Last Orbital Gradient      ...    1.3154e-06  Tolerance :   1.0000e-05
  Last Orbital Rotation      ...    3.0016e-06  Tolerance :   1.0000e-05

             **** THE GBW FILE WAS UPDATED (CONFS/Conf836.orca.gbw) ****
             **** DENSITY FILE WAS UPDATED (CONFS/Conf836.orca.scfp) ****
             **** ENERGY FILE WAS UPDATED (CONFS/Conf836.orca.en.tmp) ****
             **** THE GBW FILE WAS UPDATED (CONFS/Conf836.orca.gbw) ****
             **** DENSITY FILE WAS UPDATED (CONFS/Conf836.orca.scfp) ****
----------------
ORBITAL ENERGIES
----------------

  NO   OCC          E(Eh)            E(eV) 
   0   2.0000     -91.888779     -2500.4208 
   1   2.0000     -20.600979      -560.5811 
   2   2.0000     -20.595941      -560.4440 
   3   2.0000     -20.540894      -558.9461 
   4   2.0000     -15.629108      -425.2896 
   5   2.0000     -15.606901      -424.6854 
   6   2.0000     -11.395506      -310.0875 
   7   2.0000     -11.383392      -309.7579 
   8   2.0000     -11.337330      -308.5044 
   9   2.0000     -11.313082      -307.8446 
  10   2.0000     -11.307401      -307.6900 
  11   2.0000     -11.295299      -307.3607 
  12   2.0000     -11.260285      -306.4079 
  13   2.0000     -11.259204      -306.3785 
  14   2.0000     -11.254591      -306.2530 
  15   2.0000     -11.251461      -306.1678 
  16   2.0000     -11.243023      -305.9382 
  17   2.0000     -11.238422      -305.8130 
  18   2.0000     -11.238294      -305.8095 
  19   2.0000     -11.230003      -305.5839 
  20   2.0000      -8.893850      -242.0140 
  21   2.0000      -6.575423      -178.9263 
  22   2.0000      -6.573424      -178.8720 
  23   2.0000      -6.572834      -178.8559 
  24   2.0000      -1.450676       -39.4749 
  25   2.0000      -1.415605       -38.5206 
  26   2.0000      -1.354546       -36.8591 
  27   2.0000      -1.340298       -36.4714 
  28   2.0000      -1.238154       -33.6919 
  29   2.0000      -1.157067       -31.4854 
  30   2.0000      -1.120909       -30.5015 
  31   2.0000      -1.043074       -28.3835 
  32   2.0000      -1.039924       -28.2978 
  33   2.0000      -1.014471       -27.6052 
  34   2.0000      -0.996268       -27.1098 
  35   2.0000      -0.984504       -26.7897 
  36   2.0000      -0.921557       -25.0769 
  37   2.0000      -0.889755       -24.2115 
  38   2.0000      -0.846231       -23.0271 
  39   2.0000      -0.837481       -22.7890 
  40   2.0000      -0.833662       -22.6851 
  41   2.0000      -0.817462       -22.2443 
  42   2.0000      -0.764498       -20.8031 
  43   2.0000      -0.733194       -19.9512 
  44   2.0000      -0.721475       -19.6323 
  45   2.0000      -0.694697       -18.9037 
  46   2.0000      -0.686935       -18.6925 
  47   2.0000      -0.679712       -18.4959 
  48   2.0000      -0.674610       -18.3571 
  49   2.0000      -0.658371       -17.9152 
  50   2.0000      -0.646886       -17.6027 
  51   2.0000      -0.640105       -17.4181 
  52   2.0000      -0.630993       -17.1702 
  53   2.0000      -0.608040       -16.5456 
  54   2.0000      -0.606072       -16.4921 
  55   2.0000      -0.599749       -16.3200 
  56   2.0000      -0.598498       -16.2860 
  57   2.0000      -0.577413       -15.7122 
  58   2.0000      -0.569665       -15.5014 
  59   2.0000      -0.567208       -15.4345 
  60   2.0000      -0.562721       -15.3124 
  61   2.0000      -0.542166       -14.7531 
  62   2.0000      -0.540816       -14.7164 
  63   2.0000      -0.529589       -14.4109 
  64   2.0000      -0.523710       -14.2509 
  65   2.0000      -0.512966       -13.9585 
  66   2.0000      -0.500500       -13.6193 
  67   2.0000      -0.496138       -13.5006 
  68   2.0000      -0.484945       -13.1960 
  69   2.0000      -0.463436       -12.6107 
  70   2.0000      -0.456150       -12.4125 
  71   2.0000      -0.447965       -12.1898 
  72   2.0000      -0.352967        -9.6047 
  73   2.0000      -0.349287        -9.5046 
  74   2.0000      -0.327904        -8.9227 
  75   2.0000      -0.320545        -8.7225 
  76   2.0000      -0.317941        -8.6516 
  77   0.0000       0.077407         2.1063 
  78   0.0000       0.105505         2.8709 
  79   0.0000       0.123740         3.3671 
  80   0.0000       0.132600         3.6082 
  81   0.0000       0.135431         3.6853 
  82   0.0000       0.141022         3.8374 
  83   0.0000       0.154804         4.2124 
  84   0.0000       0.158762         4.3201 
  85   0.0000       0.163767         4.4563 
  86   0.0000       0.172654         4.6982 
  87   0.0000       0.175222         4.7680 
  88   0.0000       0.188425         5.1273 
  89   0.0000       0.190577         5.1859 
  90   0.0000       0.200048         5.4436 
  91   0.0000       0.212397         5.7796 
  92   0.0000       0.213358         5.8058 
  93   0.0000       0.218184         5.9371 
  94   0.0000       0.224205         6.1009 
  95   0.0000       0.228096         6.2068 
  96   0.0000       0.246748         6.7143 
  97   0.0000       0.258520         7.0347 
  98   0.0000       0.270052         7.3485 
  99   0.0000       0.272424         7.4130 
 100   0.0000       0.294255         8.0071 
 101   0.0000       0.306891         8.3509 
 102   0.0000       0.309064         8.4101 
 103   0.0000       0.317638         8.6434 
 104   0.0000       0.324555         8.8316 
 105   0.0000       0.330163         8.9842 
 106   0.0000       0.344939         9.3863 
 107   0.0000       0.350632         9.5412 
 108   0.0000       0.352335         9.5875 
 109   0.0000       0.368475        10.0267 
 110   0.0000       0.370329        10.0772 
 111   0.0000       0.377834        10.2814 
 112   0.0000       0.384679        10.4676 
 113   0.0000       0.389143        10.5891 
 114   0.0000       0.393328        10.7030 
 115   0.0000       0.395409        10.7596 
 116   0.0000       0.405678        11.0391 
 117   0.0000       0.421393        11.4667 
 118   0.0000       0.430746        11.7212 
 119   0.0000       0.437661        11.9094 
 120   0.0000       0.444419        12.0933 
 121   0.0000       0.445867        12.1327 
 122   0.0000       0.451858        12.2957 
 123   0.0000       0.455499        12.3947 
 124   0.0000       0.462687        12.5904 
 125   0.0000       0.468123        12.7383 
 126   0.0000       0.475315        12.9340 
 127   0.0000       0.481586        13.1046 
 128   0.0000       0.486230        13.2310 
 129   0.0000       0.491769        13.3817 
 130   0.0000       0.494980        13.4691 
 131   0.0000       0.505511        13.7556 
 132   0.0000       0.514971        14.0131 
 133   0.0000       0.519134        14.1264 
 134   0.0000       0.523518        14.2457 
 135   0.0000       0.529958        14.4209 
 136   0.0000       0.535392        14.5688 
 137   0.0000       0.538976        14.6663 
 138   0.0000       0.539909        14.6917 
 139   0.0000       0.546266        14.8646 
 140   0.0000       0.552791        15.0422 
 141   0.0000       0.561681        15.2841 
 142   0.0000       0.567418        15.4402 
 143   0.0000       0.568344        15.4654 
 144   0.0000       0.572039        15.5660 
 145   0.0000       0.572516        15.5789 
 146   0.0000       0.581100        15.8125 
 147   0.0000       0.588875        16.0241 
 148   0.0000       0.595143        16.1947 
 149   0.0000       0.598572        16.2880 
 150   0.0000       0.605311        16.4714 
 151   0.0000       0.608674        16.5629 
 152   0.0000       0.610011        16.5992 
 153   0.0000       0.615024        16.7356 
 154   0.0000       0.616658        16.7801 
 155   0.0000       0.620352        16.8806 
 156   0.0000       0.627982        17.0883 
 157   0.0000       0.631236        17.1768 
 158   0.0000       0.632327        17.2065 
 159   0.0000       0.637685        17.3523 
 160   0.0000       0.645920        17.5764 
 161   0.0000       0.648732        17.6529 
 162   0.0000       0.654336        17.8054 
 163   0.0000       0.656333        17.8597 
 164   0.0000       0.664867        18.0920 
 165   0.0000       0.667994        18.1770 
 166   0.0000       0.671145        18.2628 
 167   0.0000       0.679320        18.4852 
 168   0.0000       0.690364        18.7858 
 169   0.0000       0.694942        18.9103 
 170   0.0000       0.695557        18.9271 
 171   0.0000       0.705366        19.1940 
 172   0.0000       0.708200        19.2711 
 173   0.0000       0.716064        19.4851 
 174   0.0000       0.727066        19.7845 
 175   0.0000       0.730077        19.8664 
 176   0.0000       0.732756        19.9393 
 177   0.0000       0.740416        20.1477 
 178   0.0000       0.747481        20.3400 
 179   0.0000       0.749197        20.3867 
 180   0.0000       0.763891        20.7865 
 181   0.0000       0.766114        20.8470 
 182   0.0000       0.770447        20.9649 
 183   0.0000       0.779505        21.2114 
 184   0.0000       0.790963        21.5232 
 185   0.0000       0.802593        21.8397 
 186   0.0000       0.806682        21.9509 
 187   0.0000       0.823941        22.4206 
 188   0.0000       0.825679        22.4679 
 189   0.0000       0.828734        22.5510 
 190   0.0000       0.834182        22.6992 
 191   0.0000       0.845847        23.0167 
 192   0.0000       0.855224        23.2718 
 193   0.0000       0.856590        23.3090 
 194   0.0000       0.867371        23.6024 
 195   0.0000       0.874833        23.8054 
 196   0.0000       0.881524        23.9875 
 197   0.0000       0.887831        24.1591 
 198   0.0000       0.895839        24.3770 
 199   0.0000       0.904638        24.6164 
 200   0.0000       0.914266        24.8785 
 201   0.0000       0.914730        24.8911 
 202   0.0000       0.922491        25.1023 
 203   0.0000       0.931548        25.3487 
 204   0.0000       0.936370        25.4799 
 205   0.0000       0.939961        25.5776 
 206   0.0000       0.949603        25.8400 
 207   0.0000       0.954930        25.9850 
 208   0.0000       0.970069        26.3969 
 209   0.0000       0.973082        26.4789 
 210   0.0000       0.979223        26.6460 
 211   0.0000       0.987129        26.8611 
 212   0.0000       0.995264        27.0825 
 213   0.0000       0.998257        27.1640 
 214   0.0000       1.012200        27.5434 
 215   0.0000       1.021163        27.7873 
 216   0.0000       1.022792        27.8316 
 217   0.0000       1.032101        28.0849 
 218   0.0000       1.036488        28.2043 
 219   0.0000       1.042753        28.3748 
 220   0.0000       1.046141        28.4670 
 221   0.0000       1.051817        28.6214 
 222   0.0000       1.063651        28.9434 
 223   0.0000       1.068954        29.0877 
 224   0.0000       1.073567        29.2132 
 225   0.0000       1.083159        29.4743 
 226   0.0000       1.094569        29.7847 
 227   0.0000       1.103808        30.0361 
 228   0.0000       1.103963        30.0404 
 229   0.0000       1.125684        30.6314 
 230   0.0000       1.129369        30.7317 
 231   0.0000       1.140368        31.0310 
 232   0.0000       1.143488        31.1159 
 233   0.0000       1.147030        31.2123 
 234   0.0000       1.151361        31.3301 
 235   0.0000       1.158943        31.5364 
 236   0.0000       1.168999        31.8101 
 237   0.0000       1.171956        31.8905 
 238   0.0000       1.174559        31.9614 
 239   0.0000       1.178459        32.0675 
 240   0.0000       1.189015        32.3548 
 241   0.0000       1.194646        32.5080 
 242   0.0000       1.202132        32.7117 
 243   0.0000       1.216872        33.1128 
 244   0.0000       1.221288        33.2329 
 245   0.0000       1.228809        33.4376 
 246   0.0000       1.230034        33.4709 
 247   0.0000       1.239406        33.7260 
 248   0.0000       1.247669        33.9508 
 249   0.0000       1.252797        34.0903 
 250   0.0000       1.256956        34.2035 
 251   0.0000       1.268131        34.5076 
 252   0.0000       1.275109        34.6975 
 253   0.0000       1.277198        34.7543 
 254   0.0000       1.289204        35.0810 
 255   0.0000       1.292958        35.1832 
 256   0.0000       1.301173        35.4067 
 257   0.0000       1.306601        35.5544 
 258   0.0000       1.322869        35.9971 
 259   0.0000       1.328048        36.1380 
 260   0.0000       1.333743        36.2930 
 261   0.0000       1.339957        36.4621 
 262   0.0000       1.345907        36.6240 
 263   0.0000       1.357917        36.9508 
 264   0.0000       1.360629        37.0246 
 265   0.0000       1.373427        37.3728 
 266   0.0000       1.375317        37.4243 
 267   0.0000       1.388124        37.7728 
 268   0.0000       1.401137        38.1269 
 269   0.0000       1.406504        38.2729 
 270   0.0000       1.416439        38.5433 
 271   0.0000       1.426368        38.8135 
 272   0.0000       1.429939        38.9106 
 273   0.0000       1.440832        39.2070 
 274   0.0000       1.446499        39.3612 
 275   0.0000       1.456797        39.6415 
 276   0.0000       1.474689        40.1283 
 277   0.0000       1.476149        40.1681 
 278   0.0000       1.484195        40.3870 
 279   0.0000       1.490886        40.5691 
 280   0.0000       1.495584        40.6969 
 281   0.0000       1.497665        40.7535 
 282   0.0000       1.506095        40.9829 
 283   0.0000       1.512405        41.1546 
 284   0.0000       1.520412        41.3725 
 285   0.0000       1.526388        41.5351 
 286   0.0000       1.531159        41.6650 
 287   0.0000       1.535289        41.7773 
 288   0.0000       1.538139        41.8549 
 289   0.0000       1.541306        41.9411 
 290   0.0000       1.552707        42.2513 
 291   0.0000       1.560700        42.4688 
 292   0.0000       1.567644        42.6578 
 293   0.0000       1.573625        42.8205 
 294   0.0000       1.579084        42.9690 
 295   0.0000       1.587118        43.1877 
 296   0.0000       1.596413        43.4406 
 297   0.0000       1.606570        43.7170 
 298   0.0000       1.614660        43.9371 
 299   0.0000       1.617599        44.0171 
 300   0.0000       1.628522        44.3143 
 301   0.0000       1.639218        44.6054 
 302   0.0000       1.646719        44.8095 
 303   0.0000       1.652555        44.9683 
 304   0.0000       1.668325        45.3974 
 305   0.0000       1.670198        45.4484 
 306   0.0000       1.670487        45.4563 
 307   0.0000       1.687913        45.9304 
 308   0.0000       1.688485        45.9460 
 309   0.0000       1.695678        46.1417 
 310   0.0000       1.706770        46.4436 
 311   0.0000       1.720300        46.8117 
 312   0.0000       1.726361        46.9767 
 313   0.0000       1.737728        47.2860 
 314   0.0000       1.744934        47.4821 
 315   0.0000       1.756225        47.7893 
 316   0.0000       1.768475        48.1227 
 317   0.0000       1.781634        48.4807 
 318   0.0000       1.789006        48.6813 
 319   0.0000       1.796693        48.8905 
 320   0.0000       1.815476        49.4016 
 321   0.0000       1.822306        49.5875 
 322   0.0000       1.834098        49.9083 
 323   0.0000       1.837430        49.9990 
 324   0.0000       1.847297        50.2675 
 325   0.0000       1.858051        50.5601 
 326   0.0000       1.867156        50.8079 
 327   0.0000       1.877278        51.0833 
 328   0.0000       1.904225        51.8166 
 329   0.0000       1.905978        51.8643 
 330   0.0000       1.917433        52.1760 
 331   0.0000       1.925240        52.3884 
 332   0.0000       1.935033        52.6549 
 333   0.0000       1.938677        52.7541 
 334   0.0000       1.955980        53.2249 
 335   0.0000       1.961655        53.3793 
 336   0.0000       1.982459        53.9454 
 337   0.0000       1.997076        54.3432 
 338   0.0000       2.002099        54.4799 
 339   0.0000       2.015246        54.8376 
 340   0.0000       2.020968        54.9933 
 341   0.0000       2.030166        55.2436 
 342   0.0000       2.036703        55.4215 
 343   0.0000       2.077320        56.5268 
 344   0.0000       2.111626        57.4603 
 345   0.0000       2.120126        57.6916 
 346   0.0000       2.129897        57.9574 
 347   0.0000       2.132378        58.0249 
 348   0.0000       2.155278        58.6481 
 349   0.0000       2.161265        58.8110 
 350   0.0000       2.171378        59.0862 
 351   0.0000       2.202808        59.9415 
 352   0.0000       2.209601        60.1263 
 353   0.0000       2.213403        60.2297 
 354   0.0000       2.224596        60.5343 
 355   0.0000       2.257963        61.4423 
 356   0.0000       2.274634        61.8959 
 357   0.0000       2.282044        62.0976 
 358   0.0000       2.297461        62.5171 
 359   0.0000       2.305003        62.7223 
 360   0.0000       2.311756        62.9061 
 361   0.0000       2.324613        63.2559 
 362   0.0000       2.339161        63.6518 
 363   0.0000       2.341103        63.7046 
 364   0.0000       2.363879        64.3244 
 365   0.0000       2.372994        64.5724 
 366   0.0000       2.375994        64.6541 
 367   0.0000       2.389103        65.0108 
 368   0.0000       2.404046        65.4174 
 369   0.0000       2.418512        65.8110 
 370   0.0000       2.431891        66.1751 
 371   0.0000       2.446253        66.5659 
 372   0.0000       2.465096        67.0787 
 373   0.0000       2.474808        67.3429 
 374   0.0000       2.478246        67.4365 
 375   0.0000       2.497479        67.9599 
 376   0.0000       2.506768        68.2126 
 377   0.0000       2.519335        68.5546 
 378   0.0000       2.537925        69.0604 
 379   0.0000       2.545743        69.2732 
 380   0.0000       2.563044        69.7440 
 381   0.0000       2.573158        70.0192 
 382   0.0000       2.577864        70.1473 
 383   0.0000       2.599245        70.7291 
 384   0.0000       2.604362        70.8683 
 385   0.0000       2.616848        71.2080 
 386   0.0000       2.622901        71.3728 
 387   0.0000       2.639007        71.8110 
 388   0.0000       2.654542        72.2338 
 389   0.0000       2.654611        72.2356 
 390   0.0000       2.676361        72.8275 
 391   0.0000       2.687082        73.1192 
 392   0.0000       2.701849        73.5211 
 393   0.0000       2.710645        73.7604 
 394   0.0000       2.721915        74.0671 
 395   0.0000       2.729909        74.2846 
 396   0.0000       2.745653        74.7130 
 397   0.0000       2.748992        74.8039 
 398   0.0000       2.753116        74.9161 
 399   0.0000       2.762932        75.1832 
 400   0.0000       2.772324        75.4388 
 401   0.0000       2.775563        75.5269 
 402   0.0000       2.779887        75.6446 
 403   0.0000       2.787049        75.8395 
 404   0.0000       2.798671        76.1557 
 405   0.0000       2.814125        76.5762 
 406   0.0000       2.835304        77.1526 
 407   0.0000       2.842719        77.3543 
 408   0.0000       2.850362        77.5623 
 409   0.0000       2.858406        77.7812 
 410   0.0000       2.866108        77.9908 
 411   0.0000       2.870688        78.1154 
 412   0.0000       2.886987        78.5589 
 413   0.0000       2.896625        78.8212 
 414   0.0000       2.898405        78.8696 
 415   0.0000       2.908885        79.1548 
 416   0.0000       2.925279        79.6009 
 417   0.0000       2.938787        79.9685 
 418   0.0000       2.943394        80.0938 
 419   0.0000       2.953502        80.3689 
 420   0.0000       2.962470        80.6129 
 421   0.0000       2.975799        80.9756 
 422   0.0000       2.980683        81.1085 
 423   0.0000       2.988869        81.3313 
 424   0.0000       2.995779        81.5193 
 425   0.0000       3.011365        81.9434 
 426   0.0000       3.023484        82.2732 
 427   0.0000       3.032135        82.5086 
 428   0.0000       3.036099        82.6164 
 429   0.0000       3.040579        82.7384 
 430   0.0000       3.044556        82.8466 
 431   0.0000       3.055962        83.1569 
 432   0.0000       3.060985        83.2936 
 433   0.0000       3.076124        83.7056 
 434   0.0000       3.078272        83.7640 
 435   0.0000       3.086964        84.0005 
 436   0.0000       3.087636        84.0188 
 437   0.0000       3.095441        84.2312 
 438   0.0000       3.096607        84.2630 
 439   0.0000       3.104844        84.4871 
 440   0.0000       3.116560        84.8059 
 441   0.0000       3.118313        84.8536 
 442   0.0000       3.128343        85.1265 
 443   0.0000       3.132751        85.2465 
 444   0.0000       3.137140        85.3659 
 445   0.0000       3.143158        85.5297 
 446   0.0000       3.150061        85.7175 
 447   0.0000       3.159559        85.9760 
 448   0.0000       3.167807        86.2004 
 449   0.0000       3.183165        86.6183 
 450   0.0000       3.197680        87.0133 
 451   0.0000       3.205994        87.2395 
 452   0.0000       3.207391        87.2775 
 453   0.0000       3.210898        87.3730 
 454   0.0000       3.230858        87.9161 
 455   0.0000       3.233108        87.9773 
 456   0.0000       3.240402        88.1758 
 457   0.0000       3.248904        88.4072 
 458   0.0000       3.251661        88.4822 
 459   0.0000       3.262415        88.7748 
 460   0.0000       3.269465        88.9667 
 461   0.0000       3.274201        89.0955 
 462   0.0000       3.284031        89.3630 
 463   0.0000       3.291514        89.5667 
 464   0.0000       3.296856        89.7120 
 465   0.0000       3.301378        89.8351 
 466   0.0000       3.306826        89.9833 
 467   0.0000       3.310487        90.0829 
 468   0.0000       3.318018        90.2879 
 469   0.0000       3.324780        90.4719 
 470   0.0000       3.331537        90.6557 
 471   0.0000       3.338478        90.8446 
 472   0.0000       3.350545        91.1730 
 473   0.0000       3.354400        91.2779 
 474   0.0000       3.360444        91.4423 
 475   0.0000       3.364511        91.5530 
 476   0.0000       3.370866        91.7259 
 477   0.0000       3.379495        91.9607 
 478   0.0000       3.385428        92.1222 
 479   0.0000       3.388729        92.2120 
 480   0.0000       3.396942        92.4355 
 481   0.0000       3.401611        92.5625 
 482   0.0000       3.403245        92.6070 
 483   0.0000       3.405354        92.6644 
 484   0.0000       3.408960        92.7625 
 485   0.0000       3.412913        92.8701 
 486   0.0000       3.417815        93.0035 
 487   0.0000       3.424199        93.1772 
 488   0.0000       3.431448        93.3744 
 489   0.0000       3.439832        93.6026 
 490   0.0000       3.445238        93.7497 
 491   0.0000       3.455469        94.0281 
 492   0.0000       3.458474        94.1099 
 493   0.0000       3.460482        94.1645 
 494   0.0000       3.467339        94.3511 
 495   0.0000       3.472150        94.4820 
 496   0.0000       3.479886        94.6925 
 497   0.0000       3.488681        94.9318 
 498   0.0000       3.493377        95.0596 
 499   0.0000       3.496454        95.1433 
 500   0.0000       3.504809        95.3707 
 501   0.0000       3.520754        95.8046 
 502   0.0000       3.527563        95.9899 
 503   0.0000       3.529168        96.0335 
 504   0.0000       3.538403        96.2848 
 505   0.0000       3.543448        96.4221 
 506   0.0000       3.548151        96.5501 
 507   0.0000       3.552830        96.6774 
 508   0.0000       3.558763        96.8389 
 509   0.0000       3.569157        97.1217 
 510   0.0000       3.585397        97.5636 
 511   0.0000       3.591819        97.7384 
 512   0.0000       3.601647        98.0058 
 513   0.0000       3.612542        98.3023 
 514   0.0000       3.617750        98.4440 
 515   0.0000       3.625430        98.6530 
 516   0.0000       3.628360        98.7327 
 517   0.0000       3.633426        98.8705 
 518   0.0000       3.634578        98.9019 
 519   0.0000       3.641337        99.0858 
 520   0.0000       3.646523        99.2269 
 521   0.0000       3.650203        99.3271 
 522   0.0000       3.657203        99.5175 
 523   0.0000       3.664112        99.7056 
 524   0.0000       3.672678        99.9386 
 525   0.0000       3.677093       100.0588 
 526   0.0000       3.687177       100.3332 
 527   0.0000       3.689792       100.4044 
 528   0.0000       3.698400       100.6386 
 529   0.0000       3.707754       100.8931 
 530   0.0000       3.710796       100.9759 
 531   0.0000       3.713548       101.0508 
 532   0.0000       3.726716       101.4091 
 533   0.0000       3.733739       101.6002 
 534   0.0000       3.739758       101.7640 
 535   0.0000       3.744209       101.8851 
 536   0.0000       3.748846       102.0113 
 537   0.0000       3.757498       102.2467 
 538   0.0000       3.765028       102.4516 
 539   0.0000       3.770521       102.6011 
 540   0.0000       3.772010       102.6416 
 541   0.0000       3.784324       102.9767 
 542   0.0000       3.785481       103.0082 
 543   0.0000       3.791505       103.1721 
 544   0.0000       3.801211       103.4362 
 545   0.0000       3.806489       103.5798 
 546   0.0000       3.814948       103.8100 
 547   0.0000       3.827524       104.1522 
 548   0.0000       3.830139       104.2234 
 549   0.0000       3.838473       104.4502 
 550   0.0000       3.842125       104.5495 
 551   0.0000       3.849346       104.7460 
 552   0.0000       3.860631       105.0531 
 553   0.0000       3.869219       105.2868 
 554   0.0000       3.883439       105.6738 
 555   0.0000       3.901247       106.1583 
 556   0.0000       3.905178       106.2653 
 557   0.0000       3.917014       106.5874 
 558   0.0000       3.921647       106.7135 
 559   0.0000       3.926814       106.8540 
 560   0.0000       3.938436       107.1703 
 561   0.0000       3.948435       107.4424 
 562   0.0000       3.961034       107.7852 
 563   0.0000       3.967808       107.9695 
 564   0.0000       3.973556       108.1260 
 565   0.0000       3.977454       108.2320 
 566   0.0000       3.994564       108.6976 
 567   0.0000       4.004583       108.9702 
 568   0.0000       4.009177       109.0952 
 569   0.0000       4.016060       109.2825 
 570   0.0000       4.029133       109.6383 
 571   0.0000       4.037704       109.8715 
 572   0.0000       4.044002       110.0429 
 573   0.0000       4.051668       110.2515 
 574   0.0000       4.058320       110.4325 
 575   0.0000       4.064477       110.6000 
 576   0.0000       4.069075       110.7252 
 577   0.0000       4.082839       111.0997 
 578   0.0000       4.103131       111.6519 
 579   0.0000       4.103649       111.6660 
 580   0.0000       4.117727       112.0490 
 581   0.0000       4.122966       112.1916 
 582   0.0000       4.126024       112.2748 
 583   0.0000       4.128409       112.3397 
 584   0.0000       4.133853       112.4879 
 585   0.0000       4.143302       112.7450 
 586   0.0000       4.150866       112.9508 
 587   0.0000       4.154813       113.0582 
 588   0.0000       4.163128       113.2845 
 589   0.0000       4.175064       113.6093 
 590   0.0000       4.181005       113.7709 
 591   0.0000       4.182350       113.8075 
 592   0.0000       4.186640       113.9243 
 593   0.0000       4.190956       114.0417 
 594   0.0000       4.193901       114.1219 
 595   0.0000       4.206384       114.4615 
 596   0.0000       4.213297       114.6497 
 597   0.0000       4.215384       114.7064 
 598   0.0000       4.223701       114.9328 
 599   0.0000       4.231201       115.1368 
 600   0.0000       4.241053       115.4049 
 601   0.0000       4.247792       115.5883 
 602   0.0000       4.258906       115.8907 
 603   0.0000       4.272677       116.2654 
 604   0.0000       4.284927       116.5988 
 605   0.0000       4.300138       117.0127 
 606   0.0000       4.310413       117.2923 
 607   0.0000       4.317808       117.4935 
 608   0.0000       4.327321       117.7524 
 609   0.0000       4.335068       117.9632 
 610   0.0000       4.341361       118.1344 
 611   0.0000       4.343592       118.1951 
 612   0.0000       4.350600       118.3858 
 613   0.0000       4.360174       118.6464 
 614   0.0000       4.362990       118.7230 
 615   0.0000       4.376294       119.0850 
 616   0.0000       4.381746       119.2334 
 617   0.0000       4.384954       119.3207 
 618   0.0000       4.391831       119.5078 
 619   0.0000       4.397257       119.6554 
 620   0.0000       4.403362       119.8216 
 621   0.0000       4.412258       120.0637 
 622   0.0000       4.422174       120.3335 
 623   0.0000       4.429206       120.5248 
 624   0.0000       4.432223       120.6069 
 625   0.0000       4.446548       120.9967 
 626   0.0000       4.452481       121.1582 
 627   0.0000       4.457528       121.2955 
 628   0.0000       4.476671       121.8164 
 629   0.0000       4.482426       121.9730 
 630   0.0000       4.496226       122.3485 
 631   0.0000       4.500010       122.4515 
 632   0.0000       4.514512       122.8461 
 633   0.0000       4.517357       122.9235 
 634   0.0000       4.524732       123.1242 
 635   0.0000       4.539510       123.5263 
 636   0.0000       4.546755       123.7235 
 637   0.0000       4.554442       123.9327 
 638   0.0000       4.571183       124.3882 
 639   0.0000       4.573537       124.4523 
 640   0.0000       4.582532       124.6970 
 641   0.0000       4.591704       124.9466 
 642   0.0000       4.593961       125.0080 
 643   0.0000       4.611219       125.4777 
 644   0.0000       4.612941       125.5245 
 645   0.0000       4.621779       125.7650 
 646   0.0000       4.629992       125.9885 
 647   0.0000       4.636349       126.1615 
 648   0.0000       4.641979       126.3147 
 649   0.0000       4.646291       126.4320 
 650   0.0000       4.657612       126.7401 
 651   0.0000       4.670292       127.0851 
 652   0.0000       4.672554       127.1466 
 653   0.0000       4.679218       127.3280 
 654   0.0000       4.688581       127.5828 
 655   0.0000       4.690480       127.6345 
 656   0.0000       4.702067       127.9497 
 657   0.0000       4.719411       128.4217 
 658   0.0000       4.729521       128.6968 
 659   0.0000       4.743548       129.0785 
 660   0.0000       4.748415       129.2109 
 661   0.0000       4.760504       129.5399 
 662   0.0000       4.770384       129.8088 
 663   0.0000       4.783062       130.1537 
 664   0.0000       4.787322       130.2697 
 665   0.0000       4.813737       130.9884 
 666   0.0000       4.841815       131.7525 
 667   0.0000       4.850814       131.9974 
 668   0.0000       4.856296       132.1465 
 669   0.0000       4.886500       132.9684 
 670   0.0000       4.907552       133.5413 
 671   0.0000       4.916098       133.7738 
 672   0.0000       4.932560       134.2218 
 673   0.0000       4.959901       134.9658 
 674   0.0000       4.968065       135.1879 
 675   0.0000       4.982060       135.5687 
 676   0.0000       5.010822       136.3514 
 677   0.0000       5.022140       136.6594 
 678   0.0000       5.032662       136.9457 
 679   0.0000       5.050169       137.4221 
 680   0.0000       5.051908       137.4694 
 681   0.0000       5.064635       137.8157 
 682   0.0000       5.086326       138.4060 
 683   0.0000       5.099670       138.7691 
 684   0.0000       5.104786       138.9083 
 685   0.0000       5.122397       139.3875 
 686   0.0000       5.129742       139.5874 
 687   0.0000       5.133389       139.6866 
 688   0.0000       5.137274       139.7923 
 689   0.0000       5.147840       140.0799 
 690   0.0000       5.157336       140.3382 
 691   0.0000       5.171689       140.7288 
 692   0.0000       5.183244       141.0432 
 693   0.0000       5.187111       141.1485 
 694   0.0000       5.210627       141.7884 
 695   0.0000       5.213463       141.8655 
 696   0.0000       5.217661       141.9798 
 697   0.0000       5.224834       142.1750 
 698   0.0000       5.229642       142.3058 
 699   0.0000       5.242749       142.6625 
 700   0.0000       5.271649       143.4489 
 701   0.0000       5.279528       143.6633 
 702   0.0000       5.293134       144.0335 
 703   0.0000       5.307496       144.4243 
 704   0.0000       5.324935       144.8988 
 705   0.0000       5.331162       145.0683 
 706   0.0000       5.350077       145.5830 
 707   0.0000       5.357163       145.7758 
 708   0.0000       5.365782       146.0103 
 709   0.0000       5.385590       146.5493 
 710   0.0000       5.397902       146.8844 
 711   0.0000       5.419655       147.4763 
 712   0.0000       5.425830       147.6443 
 713   0.0000       5.450132       148.3056 
 714   0.0000       5.473803       148.9497 
 715   0.0000       5.489963       149.3895 
 716   0.0000       5.501307       149.6982 
 717   0.0000       5.507969       149.8795 
 718   0.0000       5.519426       150.1912 
 719   0.0000       5.531782       150.5275 
 720   0.0000       5.544311       150.8684 
 721   0.0000       5.552502       151.0913 
 722   0.0000       5.561103       151.3253 
 723   0.0000       5.567053       151.4872 
 724   0.0000       5.588589       152.0732 
 725   0.0000       5.609391       152.6393 
 726   0.0000       5.616392       152.8298 
 727   0.0000       5.624899       153.0613 
 728   0.0000       5.634166       153.3135 
 729   0.0000       5.643973       153.5803 
 730   0.0000       5.657487       153.9480 
 731   0.0000       5.659577       154.0049 
 732   0.0000       5.673077       154.3723 
 733   0.0000       5.680589       154.5767 
 734   0.0000       5.708460       155.3351 
 735   0.0000       5.712198       155.4368 
 736   0.0000       5.722451       155.7158 
 737   0.0000       5.738915       156.1638 
 738   0.0000       5.743374       156.2851 
 739   0.0000       5.761352       156.7744 
 740   0.0000       5.772464       157.0767 
 741   0.0000       5.789836       157.5494 
 742   0.0000       5.802829       157.9030 
 743   0.0000       5.811335       158.1345 
 744   0.0000       5.816029       158.2622 
 745   0.0000       5.837486       158.8461 
 746   0.0000       5.844219       159.0293 
 747   0.0000       5.869787       159.7250 
 748   0.0000       5.918209       161.0427 
 749   0.0000       5.921957       161.1446 
 750   0.0000       5.932019       161.4184 
 751   0.0000       5.970760       162.4726 
 752   0.0000       5.974687       162.5795 
 753   0.0000       5.983240       162.8122 
 754   0.0000       6.000790       163.2898 
 755   0.0000       6.018774       163.7792 
 756   0.0000       6.052610       164.6999 
 757   0.0000       6.060549       164.9159 
 758   0.0000       6.075459       165.3217 
 759   0.0000       6.097491       165.9212 
 760   0.0000       6.106653       166.1705 
 761   0.0000       6.158194       167.5730 
 762   0.0000       6.208338       168.9375 
 763   0.0000       6.223050       169.3378 
 764   0.0000       6.227727       169.4651 
 765   0.0000       6.257153       170.2658 
 766   0.0000       6.295049       171.2970 
 767   0.0000       6.302760       171.5068 
 768   0.0000       6.344018       172.6295 
 769   0.0000       6.351012       172.8198 
 770   0.0000       6.367425       173.2665 
 771   0.0000       6.388619       173.8432 
 772   0.0000       6.408273       174.3780 
 773   0.0000       6.457649       175.7216 
 774   0.0000       6.458990       175.7581 
 775   0.0000       6.500781       176.8953 
 776   0.0000       6.510687       177.1648 
 777   0.0000       6.554203       178.3489 
 778   0.0000       6.558738       178.4723 
 779   0.0000       6.600715       179.6146 
 780   0.0000       6.655680       181.1103 
 781   0.0000       6.675593       181.6521 
 782   0.0000       6.723171       182.9468 
 783   0.0000       6.756293       183.8481 
 784   0.0000       6.821651       185.6266 
 785   0.0000       6.886930       187.4029 
 786   0.0000       6.909635       188.0207 
 787   0.0000       6.914588       188.1555 
 788   0.0000       6.921175       188.3347 
 789   0.0000       7.041225       191.6015 
 790   0.0000       7.059440       192.0971 
 791   0.0000       7.077200       192.5804 
 792   0.0000       7.081766       192.7047 
 793   0.0000       7.123969       193.8530 
 794   0.0000       7.170827       195.1281 
 795   0.0000       7.259755       197.5480 
 796   0.0000       7.281849       198.1492 
 797   0.0000       7.289268       198.3511 
 798   0.0000       7.339842       199.7273 
 799   0.0000       7.358984       200.2481 
 800   0.0000       7.446514       202.6299 
 801   0.0000       7.531878       204.9528 
 802   0.0000       7.578441       206.2199 
 803   0.0000       7.582647       206.3343 
 804   0.0000       7.701602       209.5712 
 805   0.0000       7.816125       212.6876 
 806   0.0000       7.830669       213.0833 
 807   0.0000       7.934573       215.9107 
 808   0.0000       7.983365       217.2384 
 809   0.0000       9.334460       254.0036 
 810   0.0000       9.437967       256.8201 
 811   0.0000      10.702962       291.2424 
 812   0.0000      11.328634       308.2678 
 813   0.0000      11.910358       324.0973 
 814   0.0000      12.547417       341.4326 
 815   0.0000      12.901605       351.0705 
 816   0.0000      13.051469       355.1485 
 817   0.0000      13.096403       356.3712 
 818   0.0000      13.198636       359.1532 
 819   0.0000      13.371897       363.8678 
 820   0.0000      13.547018       368.6331 
 821   0.0000      13.695935       372.6853 
 822   0.0000      13.885757       377.8507 
 823   0.0000      13.920471       378.7953 
 824   0.0000      14.074694       382.9919 
 825   0.0000      14.555947       396.0875 
 826   0.0000      14.656282       398.8177 
 827   0.0000      15.970008       434.5660 

                    ********************************
                    * MULLIKEN POPULATION ANALYSIS *
                    ********************************

-----------------------
MULLIKEN ATOMIC CHARGES
-----------------------
   0 C :   -0.264900
   1 C :    0.009849
   2 O :   -0.345680
   3 C :    0.447844
   4 O :   -0.437088
   5 C :   -0.226980
   6 C :    0.170864
   7 C :   -0.268826
   8 N :   -0.126014
   9 C :    0.209712
  10 S :   -0.441918
  11 N :   -0.214505
  12 C :    0.054250
  13 C :    0.046394
  14 C :   -0.180712
  15 C :   -0.135027
  16 C :   -0.276007
  17 C :    0.316650
  18 O :   -0.356880
  19 C :   -0.247706
  20 H :    0.091737
  21 H :    0.090306
  22 H :    0.097101
  23 H :    0.128603
  24 H :    0.103325
  25 H :    0.133814
  26 H :    0.128828
  27 H :    0.094353
  28 H :    0.199919
  29 H :    0.200391
  30 H :    0.152948
  31 H :    0.152728
  32 H :    0.160071
  33 H :    0.129708
  34 H :    0.240425
  35 H :    0.162424
Sum of atomic charges:   -0.0000000

--------------------------------
MULLIKEN REDUCED ORBITAL CHARGES
--------------------------------
  0 C s       :     3.256471  s :     3.256471
      pz      :     0.975154  p :     2.932229
      px      :     0.988030
      py      :     0.969045
      dz2     :     0.009124  d :     0.071737
      dxz     :     0.020503
      dyz     :     0.016841
      dx2y2   :     0.002396
      dxy     :     0.022872
      f0      :     0.000285  f :     0.004464
      f+1     :     0.000434
      f-1     :     0.000488
      f+2     :     0.000287
      f-2     :     0.002316
      f+3     :     0.000364
      f-3     :     0.000289
  1 C s       :     3.178474  s :     3.178474
      pz      :     0.932679  p :     2.647654
      px      :     0.854428
      py      :     0.860547
      dz2     :     0.020059  d :     0.152365
      dxz     :     0.034804
      dyz     :     0.035247
      dx2y2   :     0.021945
      dxy     :     0.040310
      f0      :     0.000863  f :     0.011658
      f+1     :     0.001622
      f-1     :     0.001368
      f+2     :     0.001187
      f-2     :     0.003257
      f+3     :     0.001686
      f-3     :     0.001674
  2 O s       :     3.716923  s :     3.716923
      pz      :     1.754723  p :     4.592580
      px      :     1.601738
      py      :     1.236119
      dz2     :     0.003670  d :     0.033905
      dxz     :     0.004371
      dyz     :     0.006592
      dx2y2   :     0.010761
      dxy     :     0.008510
      f0      :     0.000265  f :     0.002272
      f+1     :     0.000120
      f-1     :     0.000424
      f+2     :     0.000247
      f-2     :     0.000279
      f+3     :     0.000379
      f-3     :     0.000557
  3 C s       :     3.063932  s :     3.063932
      pz      :     0.733814  p :     2.163257
      px      :     0.737122
      py      :     0.692320
      dz2     :     0.059711  d :     0.298436
      dxz     :     0.031444
      dyz     :     0.062711
      dx2y2   :     0.080623
      dxy     :     0.063948
      f0      :     0.002699  f :     0.026531
      f+1     :     0.003557
      f-1     :     0.002855
      f+2     :     0.005615
      f-2     :     0.002599
      f+3     :     0.005482
      f-3     :     0.003724
  4 O s       :     3.767520  s :     3.767520
      pz      :     1.468027  p :     4.632203
      px      :     1.440528
      py      :     1.723648
      dz2     :     0.007539  d :     0.034965
      dxz     :     0.008102
      dyz     :     0.006099
      dx2y2   :     0.006223
      dxy     :     0.007001
      f0      :     0.000233  f :     0.002400
      f+1     :     0.000386
      f-1     :     0.000256
      f+2     :     0.000339
      f-2     :     0.000589
      f+3     :     0.000255
      f-3     :     0.000342
  5 C s       :     3.193718  s :     3.193718
      pz      :     1.067757  p :     2.939612
      px      :     1.001866
      py      :     0.869990
      dz2     :     0.011044  d :     0.083468
      dxz     :     0.008225
      dyz     :     0.026418
      dx2y2   :     0.011429
      dxy     :     0.026352
      f0      :     0.001027  f :     0.010181
      f+1     :     0.001008
      f-1     :     0.000989
      f+2     :     0.001783
      f-2     :     0.001965
      f+3     :     0.001756
      f-3     :     0.001653
  6 C s       :     3.179790  s :     3.179790
      pz      :     0.779719  p :     2.458019
      px      :     0.813137
      py      :     0.865163
      dz2     :     0.025428  d :     0.176908
      dxz     :     0.023038
      dyz     :     0.042943
      dx2y2   :     0.034929
      dxy     :     0.050570
      f0      :     0.001566  f :     0.014419
      f+1     :     0.002008
      f-1     :     0.001389
      f+2     :     0.002256
      f-2     :     0.002079
      f+3     :     0.002738
      f-3     :     0.002384
  7 C s       :     3.270270  s :     3.270270
      pz      :     0.993587  p :     2.924912
      px      :     1.001619
      py      :     0.929705
      dz2     :     0.020092  d :     0.068987
      dxz     :     0.007477
      dyz     :     0.010944
      dx2y2   :     0.017937
      dxy     :     0.012537
      f0      :     0.001058  f :     0.004658
      f+1     :     0.000310
      f-1     :     0.000589
      f+2     :     0.000303
      f-2     :     0.000819
      f+3     :     0.001055
      f-3     :     0.000524
  8 N s       :     3.343788  s :     3.343788
      pz      :     1.458199  p :     3.717991
      px      :     1.185779
      py      :     1.074013
      dz2     :     0.007914  d :     0.059287
      dxz     :     0.010801
      dyz     :     0.007489
      dx2y2   :     0.018927
      dxy     :     0.014155
      f0      :     0.000639  f :     0.004948
      f+1     :     0.000891
      f-1     :     0.000376
      f+2     :     0.000781
      f-2     :     0.000932
      f+3     :     0.000629
      f-3     :     0.000701
  9 C s       :     3.156788  s :     3.156788
      pz      :     0.718009  p :     2.353692
      px      :     0.834975
      py      :     0.800709
      dz2     :     0.037566  d :     0.262222
      dxz     :     0.032973
      dyz     :     0.061115
      dx2y2   :     0.070194
      dxy     :     0.060374
      f0      :     0.001772  f :     0.017586
      f+1     :     0.002674
      f-1     :     0.001836
      f+2     :     0.003050
      f-2     :     0.001862
      f+3     :     0.003373
      f-3     :     0.003019
 10 S s       :     5.856006  s :     5.856006
      pz      :     3.525850  p :    10.490992
      px      :     3.274846
      py      :     3.690297
      dz2     :     0.011156  d :     0.084795
      dxz     :     0.021375
      dyz     :     0.012177
      dx2y2   :     0.013536
      dxy     :     0.026550
      f0      :     0.001075  f :     0.010125
      f+1     :     0.001355
      f-1     :     0.000549
      f+2     :     0.000890
      f-2     :     0.002675
      f+3     :     0.000922
      f-3     :     0.002660
 11 N s       :     3.384708  s :     3.384708
      pz      :     1.526904  p :     3.767239
      px      :     1.225397
      py      :     1.014938
      dz2     :     0.004034  d :     0.058123
      dxz     :     0.007143
      dyz     :     0.012461
      dx2y2   :     0.016287
      dxy     :     0.018198
      f0      :     0.000686  f :     0.004436
      f+1     :     0.000370
      f-1     :     0.000656
      f+2     :     0.000591
      f-2     :     0.000502
      f+3     :     0.000740
      f-3     :     0.000890
 12 C s       :     3.126298  s :     3.126298
      pz      :     0.919278  p :     2.623713
      px      :     0.806448
      py      :     0.897986
      dz2     :     0.029836  d :     0.184385
      dxz     :     0.037267
      dyz     :     0.045550
      dx2y2   :     0.026035
      dxy     :     0.045698
      f0      :     0.001064  f :     0.011355
      f+1     :     0.001754
      f-1     :     0.001449
      f+2     :     0.001203
      f-2     :     0.002833
      f+3     :     0.001293
      f-3     :     0.001759
 13 C s       :     3.105225  s :     3.105225
      pz      :     0.885584  p :     2.726365
      px      :     0.910632
      py      :     0.930149
      dz2     :     0.020587  d :     0.110689
      dxz     :     0.011279
      dyz     :     0.035941
      dx2y2   :     0.014678
      dxy     :     0.028204
      f0      :     0.001578  f :     0.011327
      f+1     :     0.001362
      f-1     :     0.001679
[...]
      f-1     :     0.006789
      f+2     :     0.007347
      f-2     :     0.004522
      f+3     :     0.006223
      f-3     :     0.005732
 15 C s       :     2.705775  s :     2.705775
      pz      :     0.955812  p :     2.798242
      px      :     0.868752
      py      :     0.973677
      dz2     :     0.122935  d :     0.416269
      dxz     :     0.072130
      dyz     :     0.088686
      dx2y2   :     0.087588
      dxy     :     0.044930
      f0      :     0.006022  f :     0.041000
      f+1     :     0.005242
      f-1     :     0.008280
      f+2     :     0.007174
      f-2     :     0.006934
      f+3     :     0.002852
      f-3     :     0.004497
 16 C s       :     2.701975  s :     2.701975
      pz      :     0.960566  p :     2.868196
      px      :     0.928845
      py      :     0.978785
      dz2     :     0.071838  d :     0.390259
      dxz     :     0.046262
      dyz     :     0.121118
      dx2y2   :     0.072489
      dxy     :     0.078553
      f0      :     0.006812  f :     0.040246
      f+1     :     0.004476
      f-1     :     0.005950
      f+2     :     0.006958
      f-2     :     0.004531
      f+3     :     0.006633
      f-3     :     0.004885
 17 C s       :     2.701793  s :     2.701793
      pz      :     0.846528  p :     2.681336
      px      :     0.816022
      py      :     1.018785
      dz2     :     0.161463  d :     0.707356
      dxz     :     0.106801
      dyz     :     0.192207
      dx2y2   :     0.114926
      dxy     :     0.131960
      f0      :     0.018816  f :     0.099125
      f+1     :     0.012015
      f-1     :     0.016350
      f+2     :     0.018370
      f-2     :     0.014504
      f+3     :     0.010424
      f-3     :     0.008646
 18 O s       :     3.177262  s :     3.177262
      pz      :     1.318393  p :     4.347183
      px      :     1.532754
      py      :     1.496035
      dz2     :     0.014497  d :     0.075508
      dxz     :     0.015414
      dyz     :     0.027114
      dx2y2   :     0.008053
      dxy     :     0.010430
      f0      :     0.000824  f :     0.005067
      f+1     :     0.000557
      f-1     :     0.000937
      f+2     :     0.001051
      f-2     :     0.000949
      f+3     :     0.000406
      f-3     :     0.000343
 19 C s       :     2.695397  s :     2.695397
      pz      :     0.960986  p :     2.842592
      px      :     0.912723
      py      :     0.968882
      dz2     :     0.103466  d :     0.387798
      dxz     :     0.066652
      dyz     :     0.093705
      dx2y2   :     0.077328
      dxy     :     0.046646
      f0      :     0.005890  f :     0.040806
      f+1     :     0.005939
      f-1     :     0.008049
      f+2     :     0.006942
      f-2     :     0.007128
      f+3     :     0.002769
      f-3     :     0.004090
 20 H s       :     0.847496  s :     0.847496
      pz      :     0.045506  p :     0.150732
      px      :     0.051803
      py      :     0.053423
      dz2     :     0.003875  d :     0.027388
      dxz     :     0.005192
      dyz     :     0.005200
      dx2y2   :     0.006917
      dxy     :     0.006204
 21 H s       :     0.852238  s :     0.852238
      pz      :     0.047443  p :     0.150888
      px      :     0.054995
      py      :     0.048450
      dz2     :     0.005028  d :     0.027497
      dxz     :     0.005594
      dyz     :     0.004772
      dx2y2   :     0.006008
      dxy     :     0.006094
 22 H s       :     0.848412  s :     0.848412
      pz      :     0.057227  p :     0.150138
      px      :     0.047535
      py      :     0.045376
      dz2     :     0.007294  d :     0.027498
      dxz     :     0.006332
      dyz     :     0.005934
      dx2y2   :     0.003650
      dxy     :     0.004288
 23 H s       :     0.848206  s :     0.848206
      pz      :     0.051216  p :     0.152502
      px      :     0.053400
      py      :     0.047885
      dz2     :     0.005580  d :     0.027329
      dxz     :     0.006167
      dyz     :     0.004672
      dx2y2   :     0.004833
      dxy     :     0.006076
 24 H s       :     0.857003  s :     0.857003
      pz      :     0.055872  p :     0.145440
      px      :     0.044621
      py      :     0.044948
      dz2     :     0.005078  d :     0.026854
      dxz     :     0.006955
      dyz     :     0.006683
      dx2y2   :     0.004113
      dxy     :     0.004024
 25 H s       :     0.825520  s :     0.825520
      pz      :     0.039987  p :     0.150878
      px      :     0.073688
      py      :     0.037202
      dz2     :     0.003288  d :     0.027768
      dxz     :     0.008662
      dyz     :     0.000275
      dx2y2   :     0.007115
      dxy     :     0.008429
 26 H s       :     0.825959  s :     0.825959
      pz      :     0.073498  p :     0.151438
      px      :     0.039774
      py      :     0.038166
      dz2     :     0.009517  d :     0.027771
      dxz     :     0.008985
      dyz     :     0.008299
      dx2y2   :     0.000681
      dxy     :     0.000289
 27 H s       :     0.845516  s :     0.845516
      pz      :     0.040289  p :     0.150476
      px      :     0.041536
      py      :     0.068651
      dz2     :     0.002967  d :     0.027724
      dxz     :     0.000622
      dyz     :     0.008270
      dx2y2   :     0.007731
      dxy     :     0.008135
 28 H s       :     0.741632  s :     0.741632
      pz      :     0.076684  p :     0.253689
      px      :     0.056189
      py      :     0.120816
      dz2     :     0.005094  d :     0.061826
      dxz     :     0.000433
      dyz     :     0.021858
      dx2y2   :     0.016256
      dxy     :     0.018184
 29 H s       :     0.748575  s :     0.748575
      pz      :     0.100559  p :     0.254282
      px      :     0.097936
      py      :     0.055787
      dz2     :     0.014011  d :     0.061421
      dxz     :     0.013436
      dyz     :     0.008344
      dx2y2   :     0.012670
      dxy     :     0.012959
 30 H s       :     0.830986  s :     0.830986
      pz      :     0.059185  p :     0.153769
      px      :     0.043571
      py      :     0.051013
      dz2     :     0.007349  d :     0.029292
      dxz     :     0.006170
      dyz     :     0.006839
      dx2y2   :     0.003576
      dxy     :     0.005358
 31 H s       :     0.845802  s :     0.845802
      pz      :     0.064252  p :     0.156755
      px      :     0.053719
      py      :     0.038784
      dz2     :     0.007704  d :     0.027524
      dxz     :     0.006538
      dyz     :     0.006527
      dx2y2   :     0.003387
      dxy     :     0.003368
 32 H s       :     0.843596  s :     0.843596
      pz      :     0.034913  p :     0.151467
      px      :     0.038683
      py      :     0.077870
      dz2     :     0.002755  d :     0.026476
      dxz     :     0.000174
      dyz     :     0.008257
      dx2y2   :     0.007638
      dxy     :     0.007652
 33 H s       :     0.848681  s :     0.848681
      pz      :     0.059047  p :     0.159077
      px      :     0.051114
      py      :     0.048917
      dz2     :     0.007223  d :     0.027762
      dxz     :     0.005274
      dyz     :     0.006728
      dx2y2   :     0.004378
      dxy     :     0.004158
 34 H s       :     0.706608  s :     0.706608
      pz      :     0.102179  p :     0.347877
      px      :     0.100058
      py      :     0.145640
      dz2     :     0.022600  d :     0.099590
      dxz     :     0.013232
      dyz     :     0.023911
      dx2y2   :     0.019036
      dxy     :     0.020810
 35 H s       :     0.838552  s :     0.838552
      pz      :     0.035083  p :     0.156252
      px      :     0.042053
      py      :     0.079117
      dz2     :     0.002792  d :     0.027911
      dxz     :     0.000178
      dyz     :     0.008698
      dx2y2   :     0.007708
      dxy     :     0.008535


                      *****************************
                      * MAYER POPULATION ANALYSIS *
                      *****************************

  NA   - Mulliken gross atomic population
  ZA   - Total nuclear charge
  QA   - Mulliken gross atomic charge
  VA   - Mayer's total valence
  BVA  - Mayer's bonded valence
  FA   - Mayer's free valence

  ATOM       NA         ZA         QA         VA         BVA        FA
  0 C      6.2649     6.0000    -0.2649     3.8969     3.8969    -0.0000
  1 C      5.9902     6.0000     0.0098     3.8413     3.8413    -0.0000
  2 O      8.3457     8.0000    -0.3457     2.0684     2.0684     0.0000
  3 C      5.5522     6.0000     0.4478     4.2418     4.2418    -0.0000
  4 O      8.4371     8.0000    -0.4371     2.0779     2.0779     0.0000
  5 C      6.2270     6.0000    -0.2270     3.6566     3.6566     0.0000
  6 C      5.8291     6.0000     0.1709     3.8574     3.8574    -0.0000
  7 C      6.2688     6.0000    -0.2688     3.9030     3.9030    -0.0000
  8 N      7.1260     7.0000    -0.1260     3.3078     3.3078     0.0000
  9 C      5.7903     6.0000     0.2097     4.1552     4.1552    -0.0000
 10 S     16.4419    16.0000    -0.4419     1.7539     1.7539     0.0000
 11 N      7.2145     7.0000    -0.2145     3.2407     3.2407    -0.0000
 12 C      5.9458     6.0000     0.0542     3.9169     3.9169     0.0000
 13 C      5.9536     6.0000     0.0464     3.7452     3.7452     0.0000
 14 C      6.1807     6.0000    -0.1807     3.8518     3.8518    -0.0000
 15 C      6.1350     6.0000    -0.1350     3.8024     3.8024     0.0000
 16 C      6.2760     6.0000    -0.2760     3.7990     3.7990     0.0000
 17 C      5.6834     6.0000     0.3166     3.8603     3.8603    -0.0000
 18 O      8.3569     8.0000    -0.3569     2.1180     2.1180    -0.0000
 19 C      6.2477     6.0000    -0.2477     3.8555     3.8555    -0.0000
 20 H      0.9083     1.0000     0.0917     0.9845     0.9845     0.0000
 21 H      0.9097     1.0000     0.0903     0.9833     0.9833     0.0000
 22 H      0.9029     1.0000     0.0971     0.9854     0.9854    -0.0000
 23 H      0.8714     1.0000     0.1286     0.9870     0.9870     0.0000
 24 H      0.8967     1.0000     0.1033     0.9755     0.9755    -0.0000
 25 H      0.8662     1.0000     0.1338     0.9802     0.9802    -0.0000
 26 H      0.8712     1.0000     0.1288     0.9816     0.9816     0.0000
 27 H      0.9056     1.0000     0.0944     0.9855     0.9855    -0.0000
 28 H      0.8001     1.0000     0.1999     1.0209     1.0209     0.0000
 29 H      0.7996     1.0000     0.2004     1.0153     1.0153     0.0000
 30 H      0.8471     1.0000     0.1529     0.9889     0.9889     0.0000
 31 H      0.8473     1.0000     0.1527     0.9847     0.9847    -0.0000
 32 H      0.8399     1.0000     0.1601     0.9771     0.9771     0.0000
 33 H      0.8703     1.0000     0.1297     0.9921     0.9921     0.0000
 34 H      0.7596     1.0000     0.2404     1.0107     1.0107     0.0000
 35 H      0.8376     1.0000     0.1624     0.9903     0.9903    -0.0000

  Mayer bond orders larger than 0.100000
B(  0-C ,  1-C ) :   0.9726 B(  0-C , 20-H ) :   0.9760 B(  0-C , 21-H ) :   0.9797 
B(  0-C , 22-H ) :   0.9786 B(  1-C ,  2-O ) :   0.8854 B(  1-C , 23-H ) :   0.9741 
B(  1-C , 24-H ) :   0.9781 B(  2-O ,  3-C ) :   1.1714 B(  3-C ,  4-O ) :   1.9663 
B(  3-C ,  5-C ) :   1.0660 B(  5-C ,  6-C ) :   1.6416 B(  5-C , 12-C ) :   0.9551 
B(  6-C ,  7-C ) :   0.9655 B(  6-C ,  8-N ) :   1.1533 B(  7-C , 25-H ) :   0.9613 
B(  7-C , 26-H ) :   0.9588 B(  7-C , 27-H ) :   0.9905 B(  8-N ,  9-C ) :   1.1877 
B(  8-N , 28-H ) :   0.9464 B(  9-C , 10-S ) :   1.6063 B(  9-C , 11-N ) :   1.3089 
B( 11-N , 12-C ) :   0.9700 B( 11-N , 29-H ) :   0.9484 B( 12-C , 13-C ) :   0.9631 
B( 12-C , 30-H ) :   1.0016 B( 13-C , 14-C ) :   1.3539 B( 13-C , 19-C ) :   1.3809 
B( 14-C , 15-C ) :   1.3944 B( 14-C , 31-H ) :   0.9708 B( 15-C , 16-C ) :   1.3597 
B( 15-C , 32-H ) :   0.9709 B( 16-C , 17-C ) :   1.3343 B( 16-C , 33-H ) :   0.9852 
B( 17-C , 18-O ) :   1.1043 B( 17-C , 19-C ) :   1.3646 B( 18-O , 34-H ) :   0.9800 
B( 19-C , 35-H ) :   0.9596 

-------
TIMINGS
-------

Total SCF time: 0 days 1 hours 28 min 36 sec 

Total time                  ....    5316.226 sec
Sum of individual times     ....    5307.136 sec  ( 99.8%)

Fock matrix formation       ....    5284.312 sec  ( 99.4%)
Diagonalization             ....       4.369 sec  (  0.1%)
Density matrix formation    ....       0.192 sec  (  0.0%)
Population analysis         ....       0.676 sec  (  0.0%)
Initial guess               ....       4.660 sec  (  0.1%)
Orbital Transformation      ....       0.000 sec  (  0.0%)
Orbital Orthonormalization  ....       0.000 sec  (  0.0%)
DIIS solution               ....       5.334 sec  (  0.1%)
SOSCF solution              ....       6.437 sec  (  0.1%)

------------------------------------------------------------------------------
                                ORCA  MP2 
------------------------------------------------------------------------------

Freezing NCore=48 chemical core electrons

-------------
RI-MP2 ENERGY
-------------
Dimension of the basis                    ...  828
Memory devoted to MP2                     ...  256 MB   
Data format for buffers                   ... DOUBLE
Compression type for matrix containers    ... UNCOMPRESSED
Overall scaling of the MP2 energy         ...   1.000e+00
Calculating two index integrals           ... done (    0.032 sec)
Cholesky decomposition of V**-1           ... done (    2.097 sec)

-----------------
RI-TRANSFORMATION (AUX index driven)
-----------------

Dimension of the orbital-basis         ... 828
Dimension of the aux-basis             ... 2141
Transformation of internal/external MOs...   24-  76 to   77- 827
Number Format for Storage              ... Double (8 Byte)
Integral mode                          ... Direct

First Phase: integral generation and transformation of MO indices
  Aux angular momentum 0               ... done (   10.530 sec)
  Aux angular momentum 1               ... done (   18.628 sec)
  Aux angular momentum 2               ... done (   22.399 sec)
  Aux angular momentum 3               ... done (   18.564 sec)
  Aux angular momentum 4               ... done (    6.294 sec)
Closing buffer VIA ( 0.63 GB; CompressionRatio= 1.00)
  Phase 1 completed in    76.886 sec
Second Phase: sorting and transformation of aux index

IA-Transformation
Memory available                       ... 167 MB 
Max. # MO pairs treated in a batch     ... 12    
# of internal orbitals                 ... 53
# batches for internal orbitals        ... 5
Closing buffer IAV ( 0.63 GB; CompressionRatio= 1.00)
(ia|v) transformation done in    96.440 sec

  Phase 2 completed in    96.467 sec
RI-Integral transformation completed in   173.391 sec
Opening buffers                              ... done

Starting loop over batches of integrals:

Operator 0  - window                       ... ( 24- 76)x( 77-827)
Operator 0  - Memory available             ...   256 MB
Operator 0  - Memory needed per MO         ...  12.3 MB
Operator 0  - Number of orbitals per batch ... 13
Operator 0  - Number of batches            ... 5

OPERATOR  0   PASS   0:  MOs    24 ...   36
  Reading integrals       ... ok
  Internal MO  26
  Internal MO  29
  Internal MO  32
  Internal MO  35
OPERATOR  0   PASS   1:  MOs    37 ...   49
  Reading integrals       ... ok
  Internal MO  38
  Internal MO  41
  Internal MO  44
  Internal MO  47
OPERATOR  0   PASS   2:  MOs    50 ...   62
  Reading integrals       ... ok
  Internal MO  50
  Internal MO  53
  Internal MO  56
  Internal MO  59
  Internal MO  62
OPERATOR  0   PASS   3:  MOs    63 ...   75
  Reading integrals       ... ok
  Internal MO  65
  Internal MO  68
  Internal MO  71
  Internal MO  74
OPERATOR  0   PASS   4:  MOs    76 ...   76
  Reading integrals       ... ok
Time spent in pair loops =   606.907 sec
Deleting buffer (Ka|jb)[aa] ...done

-----------------------------------------------
 RI-MP2 CORRELATION ENERGY:     -3.528845109 Eh
-----------------------------------------------


-------
TIMINGS
-------

Total time                :  782.653 sec
Integral trafo            :  173.411 sec ( 22.2%)
I/O of integrals          :    6.086 sec (  0.8%)
K(i,j) Operators          :  500.304 sec ( 63.9%)
T(i,j) pair energies      :    3.905 sec (  0.5%)
V-calculation             :    0.032 sec (  0.0%)
V**(-1/2)                 :    2.097 sec (  0.3%)
Gamma(ia|P)               :    0.000 sec (  0.0%)
Gamma-Trafo               :    0.000 sec (  0.0%)
D(virtual)                :    0.000 sec (  0.0%)
D(internal)               :    0.000 sec (  0.0%)
W(virtual)                :    0.000 sec (  0.0%)
W(internal)               :    0.000 sec (  0.0%)
L(virtual)                :    0.000 sec (  0.0%)
L(internal)               :    0.000 sec (  0.0%)
G(D)                      :    0.000 sec (  0.0%)
G(Z)                      :    0.000 sec (  0.0%)
Z-Vector Solution         :    0.000 sec (  0.0%)
3-Index Derivative        :    0.000 sec (  0.0%)
2-Index Derivative        :    0.000 sec (  0.0%)
Separable Gradient        :    0.000 sec (  0.0%)


---------------------------------------
MP2 TOTAL ENERGY:    -1274.342608768 Eh
---------------------------------------

-------------------------   --------------------
FINAL SINGLE POINT ENERGY     -1274.342608768329
-------------------------   --------------------


                            ***************************************
                            *     ORCA property calculations      *
                            ***************************************


  WARNING: The energy has been calculated at the MP2 level but the densities
           used in the property calculations are still SCF densities
           MP2 response densities have not been calculated 
           use %mp2 Density relaxed end
           or  %mp2 Density unrelaxed end

                                    ---------------------
                                    Active property flags
                                    ---------------------
   (+) Dipole Moment


------------------------------------------------------------------------------
                       ORCA ELECTRIC PROPERTIES CALCULATION
------------------------------------------------------------------------------

Dipole Moment Calculation                       ... on
Quadrupole Moment Calculation                   ... off
Polarizability Calculation                      ... off
GBWName                                         ... CONFS/Conf836.orca.gbw
Electron density file                           ... CONFS/Conf836.orca.scfp
The origin for moment calculation is the CENTER OF MASS  = (31.880594, 33.053165 33.472839)

-------------
DIPOLE MOMENT
-------------
                                X             Y             Z
Electronic contribution:      8.32754      10.40454       9.79942
Nuclear contribution   :     -9.53246     -12.01377     -10.14756
                        -----------------------------------------
Total Dipole Moment    :     -1.20492      -1.60924      -0.34813
                        -----------------------------------------
Magnitude (a.u.)       :      2.04026
Magnitude (Debye)      :      5.18593



--------------------
Rotational spectrum 
--------------------
 
Rotational constants in cm-1:     0.010717     0.008593     0.005872 
Rotational constants in MHz :   321.289972   257.604251   176.033919 

 Dipole components along the rotational axes: 
x,y,z [a.u.] :    -2.021716     0.270378     0.047150 
x,y,z [Debye]:    -5.138794     0.687246     0.119847 

 

Timings for individual modules:

Sum of individual times         ...     6104.086 sec (= 101.735 min)
GTO integral calculation        ...        3.194 sec (=   0.053 min)   0.1 %
SCF iterations                  ...     5317.550 sec (=  88.626 min)  87.1 %
MP2 module                      ...      783.341 sec (=  13.056 min)  12.8 %
                             ****ORCA TERMINATED NORMALLY****
TOTAL RUN TIME: 0 days 1 hours 41 minutes 45 seconds 360 msec
