
                                 *****************
                                 * O   R   C   A *
                                 *****************

           --- An Ab Initio, DFT and Semiempirical electronic structure package ---

                  #######################################################
                  #                        -***-                        #
                  #          Department of theory and spectroscopy      #
                  #               Directorship: Frank Neese             #
                  #        Max Planck Institute fuer Kohlenforschung    #
                  #                Kaiser Wilhelm Platz 1               #
                  #                 D-45470 Muelheim/Ruhr               #
                  #                      Germany                        #
                  #                                                     #
                  #                  All rights reserved                #
                  #                        -***-                        #
                  #######################################################


                         Program Version 4.2.0 -  RELEASE  -


 With contributions from (in alphabetic order):
   Daniel Aravena         : Magnetic Suceptibility
   Michael Atanasov       : Ab Initio Ligand Field Theory (pilot matlab implementation)
   Alexander A. Auer      : GIAO ZORA, VPT2
   Ute Becker             : Parallelization
   Giovanni Bistoni       : ED, misc. LED, open-shell LED, HFLED
   Martin Brehm           : Molecular dynamics
   Dmytro Bykov           : SCF Hessian
   Vijay G. Chilkuri      : MRCI spin determinant printing, contributions to CSF-ICE
   Dipayan Datta          : RHF DLPNO-CCSD density
   Achintya Kumar Dutta   : EOM-CC, STEOM-CC
   Dmitry Ganyushin       : Spin-Orbit,Spin-Spin,Magnetic field MRCI
   Miquel Garcia          : C-PCM Hessian, Gaussian charge scheme
   Yang Guo               : DLPNO-NEVPT2, CIM, IAO-localization
   Andreas Hansen         : Spin unrestricted coupled pair/coupled cluster methods
   Benjamin Helmich-Paris : CASSCF linear response (MC-RPA)
   Lee Huntington         : MR-EOM, pCC
   Robert Izsak           : Overlap fitted RIJCOSX, COSX-SCS-MP3, EOM
   Christian Kollmar      : KDIIS, OOCD, Brueckner-CCSD(T), CCSD density
   Simone Kossmann        : Meta GGA functionals, TD-DFT gradient, OOMP2, MP2 Hessian
   Martin Krupicka        : AUTO-CI
   Lucas Lang             : DCDCAS
   Dagmar Lenk            : GEPOL surface, SMD
   Dimitrios Liakos       : Extrapolation schemes; Compound Job, initial MDCI parallelization
   Dimitrios Manganas     : Further ROCIS development; embedding schemes
   Dimitrios Pantazis     : SARC Basis sets
   Taras Petrenko         : DFT Hessian,TD-DFT gradient, ASA, ECA, R-Raman, ABS, FL, XAS/XES, NRVS
   Peter Pinski           : DLPNO-MP2, DLPNO-MP2 Gradient
   Christoph Reimann      : Effective Core Potentials
   Marius Retegan         : Local ZFS, SOC
   Christoph Riplinger    : Optimizer, TS searches, QM/MM, DLPNO-CCSD(T), (RO)-DLPNO pert. Triples
   Tobias Risthaus        : Range-separated hybrids, TD-DFT gradient, RPA, STAB
   Michael Roemelt        : Original ROCIS implementation
   Masaaki Saitow         : Open-shell DLPNO-CCSD energy and density
   Barbara Sandhoefer     : DKH picture change effects
   Avijit Sen             : IP-ROCIS
   Kantharuban Sivalingam : CASSCF convergence, NEVPT2, FIC-MRCI
   Bernardo de Souza      : ESD, SOC TD-DFT
   Georgi Stoychev        : AutoAux, RI-MP2 NMR
   Willem Van den Heuvel  : Paramagnetic NMR
   Boris Wezisla          : Elementary symmetry handling
   Frank Wennmohs         : Technical directorship


 We gratefully acknowledge several colleagues who have allowed us to
 interface, adapt or use parts of their codes:
   Stefan Grimme, W. Hujo, H. Kruse,             : VdW corrections, initial TS optimization,
                  C. Bannwarth                     DFT functionals, gCP, sTDA/sTD-DF
   Ed Valeev, F. Pavosevic, A. Kumar             : LibInt (2-el integral package), F12 methods
   Garnet Chan, S. Sharma, J. Yang, R. Olivares  : DMRG
   Ulf Ekstrom                                   : XCFun DFT Library
   Mihaly Kallay                                 : mrcc  (arbitrary order and MRCC methods)
   Andreas Klamt, Michael Diedenhofen            : otool_cosmo (COSMO solvation model)
   Jiri Pittner, Ondrej Demel                    : Mk-CCSD
   Frank Weinhold                                : gennbo (NPA and NBO analysis)
   Christopher J. Cramer and Donald G. Truhlar   : smd solvation model
   Lars Goerigk                                  : TD-DFT with DH, B97 family of functionals
   V. Asgeirsson, H. Jonsson                     : NEB implementation
   FAccTs GmbH                                   : IRC, NEB, NEB-TS, Multilevel, MM, QM/MM, CI optimization
   S Lehtola, MJT Oliveira, MAL Marques          : LibXC Library


 Your calculation uses the libint2 library for the computation of 2-el integrals
 For citations please refer to: http://libint.valeyev.net

 Your ORCA version has been built with support for libXC version: 4.2.3
 For citations please refer to: https://tddft.org/programs/libxc/

 This ORCA versions uses:
   CBLAS   interface :  Fast vector & matrix operations
   LAPACKE interface :  Fast linear algebra routines
   SCALAPACK package :  Parallel linear algebra routines


----- Orbital basis set information -----
Your calculation utilizes the basis: cc-pVTZ 
       H, B-Ne : Obtained from the ccRepo (grant-hill.group.shef.ac.uk/ccrepo) Feb. 2017
                 T. H. Dunning, Jr., J. Chem. Phys. 90, 1007 (1989)
            He : Obtained from the ccRepo (grant-hill.group.shef.ac.uk/ccrepo) Feb. 2017
                 D. E. Woon, T. H. Dunning, Jr., J. Chem. Phys. 100, 2975 (1994)
  Li-Be, Na-Mg : Obtained from the ccRepo (grant-hill.group.shef.ac.uk/ccrepo) Feb. 2017
                 B. P. Prascher, D. E. Woon, K. A. Peterson, T. H. Dunning, Jr., A. K. Wilson, Theor. Chem. Acc. 128, 69 (2011)
         Al-Ar : Obtained from the ccRepo (grant-hill.group.shef.ac.uk/ccrepo) Feb. 2017
                 D. E. Woon, T. H. Dunning, Jr., J. Chem. Phys. 98, 1358 (1993)
            Ca : Obtained from the Peterson Research Group Website (tyr0.chem.wsu.edu/~kipeters) Feb. 2017
                 J. Koput, K. A. Peterson, J. Phys. Chem. 106, 9595 (2002)
         Sc-Zn : Obtained from the ccRepo (grant-hill.group.shef.ac.uk/ccrepo) Feb. 2017
                 N. B. Balabanov, K. A. Peterson, J. Chem. Phys. 123, 064107 (2005)
                 N. B. Balabanov, K. A. Peterson, J. Chem. Phys. 125, 074110 (2006)
         Ga-Kr : Obtained from the ccRepo (grant-hill.group.shef.ac.uk/ccrepo) Feb. 2017
                 A. K. Wilson, D. E. Woon, K. A. Peterson, T. H. Dunning, Jr., J. Chem. Phys. 110, 7667 (1999)
             Y : Obtained from the ccRepo (grant-hill.group.shef.ac.uk/ccrepo) Feb. 2017
                 K. A. Peterson, D. Figgen, M. Dolg, H. Stoll, J. Chem. Phys. 126, 124101 (2007)
        Ag, Au : Obtained from the Peterson Research Group Website (tyr0.chem.wsu.edu/~kipeters) Feb. 2017
                 K. A. Peterson, C. Puzzarini, Theor. Chem. Acc. 114, 283 (2005)

----- AuxC basis set information -----
Your calculation utilizes the auxiliary basis: cc-pVTZ/C 
  Obtained from the EMSL Basis Set Exchange (bse.pnl.gov) Feb. 2017
  H-He, B-F, Al-Ar, Ga-Kr : F. Weigend, A. Kohn, C. Hattig, J. Chem. Phys. 116, 3175 (2002)
             Li-Be, Na-Mg : C. Haettig, Phys. Chem. Chem. Phys. 7, 59 (2005)
                       Ne : C. Haettig, Phys. Chem. Chem. Phys. 7, 59 (2005)
                            F. Weigend, A. Kohn, C. Hattig, J. Chem. Phys. 116, 3175 (2002)
                    Sc-Zn : J. G. Hill, J. A. Platts, J. Chem. Phys. 128, 044104 (2008)

================================================================================
                                        WARNINGS
                       Please study these warnings very carefully!
================================================================================


WARNING: No MP2 level density has been requested!
         To caclulate MP2 level properties use
         %mp2 Density relaxed end
         or
         %mp2 Density unrelaxed end

WARNING: Post HF methods need fully converged wavefunctions
  ===> : Setting SCFConvForced true
         You can overwrite this default with %scf ConvForced false 


INFO   : the flag for use of LIBINT has been found!

================================================================================
                                       INPUT FILE
================================================================================
NAME = CONFS/Conf98.orca
|  1> ! ri-mp2 cc-pvtz cc-pvtz/c TightSCF NoKeepInts
|  2> 
|  3> %scf
|  4>   MaxCore 4096
|  5> end
|  6> *xyz  0  1
|  7>     C       14.4230182   15.2869924   13.4618582
|  8>     C       14.7817719   15.4284748   14.9505352
|  9>     O       15.7571445   16.4802999   15.0564831
| 10>     C       16.7704160   16.3580279   15.9612953
| 11>     O       17.2862680   15.2828662   16.2172179
| 12>     C       17.0726069   17.6075002   16.7392110
| 13>     C       16.9288840   18.8523632   16.2118595
| 14>     C       16.2546302   19.2415291   14.9106916
| 15>     N       17.4750903   19.9663324   16.8546123
| 16>     C       18.3604301   19.9030577   17.8965220
| 17>     S       19.0534617   21.2614696   18.5367564
| 18>     N       18.6600243   18.6497380   18.3666326
| 19>     C       17.9968500   17.4002523   17.9460096
| 20>     C       17.3356379   16.6543840   19.0975988
| 21>     C       17.6653837   15.3140063   19.3676341
| 22>     C       17.0557880   14.6284382   20.4317712
| 23>     C       16.1093516   15.2895043   21.2334202
| 24>     C       15.7774835   16.6246955   20.9651556
| 25>     O       14.8608934   17.2640366   21.7348436
| 26>     C       16.3854755   17.3041230   19.9046444
| 27>     H       14.0099974   16.2252566   13.0713665
| 28>     H       13.6762653   14.4963755   13.3195425
| 29>     H       15.3127839   15.0278686   12.8742815
| 30>     H       13.8912315   15.6730192   15.5439409
| 31>     H       15.1818329   14.4689530   15.3062365
| 32>     H       16.6903978   18.6931427   14.0659772
| 33>     H       16.3524504   20.3099239   14.6827190
| 34>     H       15.1822276   19.0125211   14.9457431
| 35>     H       17.2826146   20.8916442   16.5058472
| 36>     H       19.2993863   18.6318079   19.1511675
| 37>     H       18.8624963   16.8377147   17.5667938
| 38>     H       18.3862661   14.7978386   18.7378531
| 39>     H       17.3143572   13.5892924   20.6271745
| 40>     H       15.6352699   14.7633407   22.0552112
| 41>     H       14.5801268   16.6449302   22.4252664
| 42>     H       16.1186859   18.3382789   19.7141265
| 43> *
| 44> 
| 45>                          ****END OF INPUT****
================================================================================

                       ****************************
                       * Single Point Calculation *
                       ****************************

---------------------------------
CARTESIAN COORDINATES (ANGSTROEM)
---------------------------------
  C     14.423018   15.286992   13.461858
  C     14.781772   15.428475   14.950535
  O     15.757145   16.480300   15.056483
  C     16.770416   16.358028   15.961295
  O     17.286268   15.282866   16.217218
  C     17.072607   17.607500   16.739211
  C     16.928884   18.852363   16.211859
  C     16.254630   19.241529   14.910692
  N     17.475090   19.966332   16.854612
  C     18.360430   19.903058   17.896522
  S     19.053462   21.261470   18.536756
  N     18.660024   18.649738   18.366633
  C     17.996850   17.400252   17.946010
  C     17.335638   16.654384   19.097599
  C     17.665384   15.314006   19.367634
  C     17.055788   14.628438   20.431771
  C     16.109352   15.289504   21.233420
  C     15.777484   16.624696   20.965156
  O     14.860893   17.264037   21.734844
  C     16.385475   17.304123   19.904644
  H     14.009997   16.225257   13.071366
  H     13.676265   14.496375   13.319543
  H     15.312784   15.027869   12.874282
  H     13.891231   15.673019   15.543941
  H     15.181833   14.468953   15.306237
  H     16.690398   18.693143   14.065977
  H     16.352450   20.309924   14.682719
  H     15.182228   19.012521   14.945743
  H     17.282615   20.891644   16.505847
  H     19.299386   18.631808   19.151167
  H     18.862496   16.837715   17.566794
  H     18.386266   14.797839   18.737853
  H     17.314357   13.589292   20.627174
  H     15.635270   14.763341   22.055211
  H     14.580127   16.644930   22.425266
  H     16.118686   18.338279   19.714126

----------------------------
CARTESIAN COORDINATES (A.U.)
----------------------------
  NO LB      ZA    FRAG     MASS         X           Y           Z
   0 C     6.0000    0    12.011   27.255554   28.888229   25.439225
   1 C     6.0000    0    12.011   27.933501   29.155592   28.252417
   2 O     8.0000    0    15.999   29.776688   31.143253   28.452630
   3 C     6.0000    0    12.011   31.691493   30.912193   30.162477
   4 O     8.0000    0    15.999   32.666312   28.880432   30.646100
   5 C     6.0000    0    12.011   32.262551   33.273353   31.632524
   6 C     6.0000    0    12.011   31.990955   35.625803   30.635975
   7 C     6.0000    0    12.011   30.716799   36.361220   28.177124
   8 N     7.0000    0    14.007   33.023135   37.730900   31.850601
   9 C     6.0000    0    12.011   34.696185   37.611328   33.819525
  10 S    16.0000    0    32.060   36.005825   40.178355   35.029393
  11 N     7.0000    0    14.007   35.262336   35.242897   34.707906
  12 C     6.0000    0    12.011   34.009118   32.881712   33.913043
  13 C     6.0000    0    12.011   32.759608   31.472225   36.089232
  14 C     6.0000    0    12.011   33.382737   28.939278   36.599524
  15 C     6.0000    0    12.011   32.230768   27.643742   38.610452
  16 C     6.0000    0    12.011   30.442263   28.892976   40.125349
  17 C     6.0000    0    12.011   29.815123   31.416122   39.618402
  18 O     8.0000    0    15.999   28.083019   32.624301   41.072902
  19 C     6.0000    0    12.011   30.964061   32.700053   37.614327
  20 H     1.0000    0     1.008   26.475058   30.661291   24.701303
  21 H     1.0000    0     1.008   25.844396   27.394180   25.170288
  22 H     1.0000    0     1.008   28.936968   28.398556   24.328866
  23 H     1.0000    0     1.008   26.250623   29.617714   29.373791
  24 H     1.0000    0     1.008   28.689506   27.342359   28.924595
  25 H     1.0000    0     1.008   31.540281   35.324920   26.580845
  26 H     1.0000    0     1.008   30.901653   38.380194   27.746318
  27 H     1.0000    0     1.008   28.690252   35.928458   28.243361
  28 H     1.0000    0     1.008   32.659408   39.479486   31.191531
  29 H     1.0000    0     1.008   36.470555   35.209014   36.190462
  30 H     1.0000    0     1.008   35.644952   31.818670   33.196429
  31 H     1.0000    0     1.008   34.745008   27.963862   35.409411
  32 H     1.0000    0     1.008   32.719393   25.680041   38.979711
  33 H     1.0000    0     1.008   29.546378   27.898671   41.678309
  34 H     1.0000    0     1.008   27.552447   31.454360   42.377612
  35 H     1.0000    0     1.008   30.459902   34.654325   37.254300

--------------------------------
INTERNAL COORDINATES (ANGSTROEM)
--------------------------------
 C      0   0   0     0.000000000000     0.00000000     0.00000000
 C      1   0   0     1.537816860716     0.00000000     0.00000000
 O      2   1   0     1.438371547040   107.26409722     0.00000000
 C      3   2   1     1.363948199883   119.14839026   217.38462950
 O      4   3   2     1.219660749652   122.16962859    35.52162812
 C      4   3   2     1.502548902637   114.72822976   223.13811378
 C      6   4   3     1.359573376212   122.63797419   327.28375685
 C      7   6   4     1.516280379260   127.94197097    11.00223487
 N      7   6   4     1.397283028816   120.67885692   193.38767572
 C      9   7   6     1.368724249832   124.48303612    11.44000761
 S     10   9   7     1.653927379181   121.85286866   175.36550720
 N     10   9   7     1.371703660166   116.38512676   356.45066636
 C     12  10   9     1.475783986501   125.29317598   352.69773412
 C     13  12  10     1.523049128455   113.21680361   239.20705114
 C     14  13  12     1.406507637562   120.66915138   235.67828648
 C     15  14  13     1.404990499894   120.57747442   179.89905804
 C     16  15  14     1.405486167493   119.64732233   359.93681334
 C     17  16  15     1.401726746541   119.88702384     0.15871788
 O     18  17  16     1.356950283139   120.01088168   179.78780913
 C     18  17  16     1.398556400416   120.32766679   359.87855690
 H      1   2   3     1.097000299910   110.71575546   300.17019705
 H      1   2   3     1.096799313772   110.53388733   180.16091306
 H      1   2   3     1.097303295815   110.54381994    60.38643930
 H      2   1   3     1.097722411357   110.76546939   120.45772269
 H      2   1   3     1.098751247197   108.54110779   239.30113672
 H      8   7   6     1.097343821453   110.83788374   304.71011218
 H      8   7   6     1.096817098037   112.87429720   184.77909854
 H      8   7   6     1.097142018247   110.71140132    64.49455608
 H      9   7   6     1.007415464090   119.88939487   186.24160119
 H     12  10   9     1.012225402195   114.82006905   181.40557281
 H     13  12  10     1.099816662488   100.23193788   121.39658243
 H     15  14  13     1.087531441897   119.77076274   358.89037170
 H     16  15  14     1.088514802149   119.91533181   179.61053715
 H     17  16  15     1.084869595814   119.88129502   179.91280491
 H     19  18  17     0.968920152002   107.38931693     1.93404140
 H     20  18  17     1.084874272159   119.29805193   180.21056939

---------------------------
INTERNAL COORDINATES (A.U.)
---------------------------
 C      0   0   0     0.000000000000     0.00000000     0.00000000
 C      1   0   0     2.906052710880     0.00000000     0.00000000
 O      2   1   0     2.718128302731   107.26409722     0.00000000
 C      3   2   1     2.577488558634   119.14839026   217.38462950
 O      4   3   2     2.304824793135   122.16962859    35.52162812
 C      4   3   2     2.839405928808   114.72822976   223.13811378
 C      6   4   3     2.569221340012   122.63797419   327.28375685
 C      7   6   4     2.865354659039   127.94197097    11.00223487
 N      7   6   4     2.640482256038   120.67885692   193.38767572
 C      9   7   6     2.586513985039   124.48303612    11.44000761
 S     10   9   7     3.125469792046   121.85286866   175.36550720
 N     10   9   7     2.592144254612   116.38512676   356.45066636
 C     12  10   9     2.788827567314   125.29317598   352.69773412
 C     13  12  10     2.878145741288   113.21680361   239.20705114
 C     14  13  12     2.657914240261   120.66915138   235.67828648
 C     15  14  13     2.655047265561   120.57747442   179.89905804
 C     16  15  14     2.655983941577   119.64732233   359.93681334
 C     17  16  15     2.648879665555   119.88702384     0.15871788
 O     18  17  16     2.564264412480   120.01088168   179.78780913
 C     18  17  16     2.642888579630   120.32766679   359.87855690
 H      1   2   3     2.073030135660   110.71575546   300.17019705
 H      1   2   3     2.072650326902   110.53388733   180.16091306
 H      1   2   3     2.073602714939   110.54381994    60.38643930
 H      2   1   3     2.074394728533   110.76546939   120.45772269
 H      2   1   3     2.076338946508   108.54110779   239.30113672
 H      8   7   6     2.073679297298   110.83788374   304.71011218
 H      8   7   6     2.072683934292   112.87429720   184.77909854
 H      8   7   6     2.073297944504   110.71140132    64.49455608
 H      9   7   6     1.903739330207   119.88939487   186.24160119
 H     12  10   9     1.912828795946   114.82006905   181.40557281
 H     13  12  10     2.078352289626   100.23193788   121.39658243
 H     15  14  13     2.055136587213   119.77076274   358.89037170
 H     16  15  14     2.056994868781   119.91533181   179.61053715
 H     17  16  15     2.050106427106   119.88129502   179.91280491
 H     19  18  17     1.830993732922   107.38931693     1.93404140
 H     20  18  17     2.050115264118   119.29805193   180.21056939

---------------------
BASIS SET INFORMATION
---------------------
There are 5 groups of distinct atoms

 Group   1 Type C   : 18s5p2d1f contracted to 4s3p2d1f pattern {8811/311/11/1}
 Group   2 Type O   : 18s5p2d1f contracted to 4s3p2d1f pattern {8811/311/11/1}
 Group   3 Type N   : 18s5p2d1f contracted to 4s3p2d1f pattern {8811/311/11/1}
 Group   4 Type S   : 41s16p2d1f contracted to 5s4p2d1f pattern {13131311/7711/11/1}
 Group   5 Type H   : 5s2p1d contracted to 3s2p1d pattern {311/11/1}

Atom   0C    basis set group =>   1
Atom   1C    basis set group =>   1
Atom   2O    basis set group =>   2
Atom   3C    basis set group =>   1
Atom   4O    basis set group =>   2
Atom   5C    basis set group =>   1
Atom   6C    basis set group =>   1
Atom   7C    basis set group =>   1
Atom   8N    basis set group =>   3
Atom   9C    basis set group =>   1
Atom  10S    basis set group =>   4
Atom  11N    basis set group =>   3
Atom  12C    basis set group =>   1
Atom  13C    basis set group =>   1
Atom  14C    basis set group =>   1
Atom  15C    basis set group =>   1
Atom  16C    basis set group =>   1
Atom  17C    basis set group =>   1
Atom  18O    basis set group =>   2
Atom  19C    basis set group =>   1
Atom  20H    basis set group =>   5
Atom  21H    basis set group =>   5
Atom  22H    basis set group =>   5
Atom  23H    basis set group =>   5
Atom  24H    basis set group =>   5
Atom  25H    basis set group =>   5
Atom  26H    basis set group =>   5
Atom  27H    basis set group =>   5
Atom  28H    basis set group =>   5
Atom  29H    basis set group =>   5
Atom  30H    basis set group =>   5
Atom  31H    basis set group =>   5
Atom  32H    basis set group =>   5
Atom  33H    basis set group =>   5
Atom  34H    basis set group =>   5
Atom  35H    basis set group =>   5
---------------------------------
AUXILIARY/C BASIS SET INFORMATION
---------------------------------
There are 5 groups of distinct atoms

 Group   1 Type C   : 8s6p5d3f1g contracted to 8s6p5d3f1g pattern {11111111/111111/11111/111/1}
 Group   2 Type O   : 8s6p5d3f1g contracted to 8s6p5d3f1g pattern {11111111/111111/11111/111/1}
 Group   3 Type N   : 8s6p5d3f1g contracted to 8s6p5d3f1g pattern {11111111/111111/11111/111/1}
 Group   4 Type S   : 10s8p7d5f2g contracted to 10s8p7d5f2g pattern {1111111111/11111111/1111111/11111/11}
 Group   5 Type H   : 4s3p2d1f contracted to 4s3p2d1f pattern {1111/111/11/1}

Atom   0C    basis set group =>   1
Atom   1C    basis set group =>   1
Atom   2O    basis set group =>   2
Atom   3C    basis set group =>   1
Atom   4O    basis set group =>   2
Atom   5C    basis set group =>   1
Atom   6C    basis set group =>   1
Atom   7C    basis set group =>   1
Atom   8N    basis set group =>   3
Atom   9C    basis set group =>   1
Atom  10S    basis set group =>   4
Atom  11N    basis set group =>   3
Atom  12C    basis set group =>   1
Atom  13C    basis set group =>   1
Atom  14C    basis set group =>   1
Atom  15C    basis set group =>   1
Atom  16C    basis set group =>   1
Atom  17C    basis set group =>   1
Atom  18O    basis set group =>   2
Atom  19C    basis set group =>   1
Atom  20H    basis set group =>   5
Atom  21H    basis set group =>   5
Atom  22H    basis set group =>   5
Atom  23H    basis set group =>   5
Atom  24H    basis set group =>   5
Atom  25H    basis set group =>   5
Atom  26H    basis set group =>   5
Atom  27H    basis set group =>   5
Atom  28H    basis set group =>   5
Atom  29H    basis set group =>   5
Atom  30H    basis set group =>   5
Atom  31H    basis set group =>   5
Atom  32H    basis set group =>   5
Atom  33H    basis set group =>   5
Atom  34H    basis set group =>   5
Atom  35H    basis set group =>   5
------------------------------------------------------------------------------
                           ORCA GTO INTEGRAL CALCULATION
------------------------------------------------------------------------------

                         BASIS SET STATISTICS AND STARTUP INFO

 # of primitive gaussian shells          ...  682
 # of primitive gaussian functions       ... 1312
 # of contracted shells                  ...  298
 # of contracted basis functions         ...  828
 Highest angular momentum                ...    3
 Maximum contraction depth               ...   13
 Integral package used                   ... LIBINT
 Integral threshhold            Thresh   ...  2.500e-11
 Primitive cut-off              TCut     ...  2.500e-12


------------------------------ INTEGRAL EVALUATION ----------------------------


 * One electron integrals 
 Pre-screening matrix                    ... done
 Shell pair data                         ... done (   0.013 sec)

-------------------------------------------------------------------------------
                                 ORCA SCF
-------------------------------------------------------------------------------

------------
SCF SETTINGS
------------
Hamiltonian:
 Ab initio Hamiltonian  Method          .... Hartree-Fock(GTOs)


General Settings:
 Integral files         IntName         .... CONFS/Conf98.orca
 Hartree-Fock type      HFTyp           .... RHF
 Total Charge           Charge          ....    0
 Multiplicity           Mult            ....    1
 Number of Electrons    NEL             ....  154
 Basis Dimension        Dim             ....  828
 Nuclear Repulsion      ENuc            ....   1670.7736328609 Eh

Convergence Acceleration:
 DIIS                   CNVDIIS         .... on
   Start iteration      DIISMaxIt       ....    12
   Startup error        DIISStart       ....  0.200000
   # of expansion vecs  DIISMaxEq       ....     5
   Bias factor          DIISBfac        ....   1.050
   Max. coefficient     DIISMaxC        ....  10.000
 Newton-Raphson         CNVNR           .... off
 SOSCF                  CNVSOSCF        .... on
   Start iteration      SOSCFMaxIt      ....   150
   Startup grad/error   SOSCFStart      ....  0.003300
 Level Shifting         CNVShift        .... on
   Level shift para.    LevelShift      ....    0.2500
   Turn off err/grad.   ShiftErr        ....    0.0010
 Zerner damping         CNVZerner       .... off
 Static damping         CNVDamp         .... on
   Fraction old density DampFac         ....    0.7000
   Max. Damping (<1)    DampMax         ....    0.9800
   Min. Damping (>=0)   DampMin         ....    0.0000
   Turn off err/grad.   DampErr         ....    0.1000
 Fernandez-Rico         CNVRico         .... off

SCF Procedure:
 Maximum # iterations   MaxIter         ....   125
 SCF integral mode      SCFMode         .... Direct
   Integral package                     .... LIBINT
 Reset frequency        DirectResetFreq ....    20
 Integral Threshold     Thresh          ....  2.500e-11 Eh
 Primitive CutOff       TCut            ....  2.500e-12 Eh

Convergence Tolerance:
 Convergence Check Mode ConvCheckMode   .... Total+1el-Energy
 Convergence forced     ConvForced      .... 1
 Energy Change          TolE            ....  1.000e-08 Eh
 1-El. energy change                    ....  1.000e-05 Eh
 Orbital Gradient       TolG            ....  1.000e-05
 Orbital Rotation angle TolX            ....  1.000e-05
 DIIS Error             TolErr          ....  5.000e-07


Diagonalization of the overlap matrix:
Smallest eigenvalue                        ... 3.558e-05
Time for diagonalization                   ...    0.319 sec
Threshold for overlap eigenvalues          ... 1.000e-08
Number of eigenvalues below threshold      ... 0
Time for construction of square roots      ...    0.274 sec
Total time needed                          ...    0.594 sec

-------------------
DFT GRID GENERATION
-------------------

General Integration Accuracy     IntAcc      ...  4.340
Radial Grid Type                 RadialGrid  ... Gauss-Chebyshev
Angular Grid (max. acc.)         AngularGrid ... Lebedev-110
Angular grid pruning method      GridPruning ... 3 (G Style)
Weight generation scheme         WeightScheme... Becke
Basis function cutoff            BFCut       ...    1.0000e-11
Integration weight cutoff        WCut        ...    1.0000e-14
Grids for H and He will be reduced by one unit

# of grid points (after initial pruning)     ...  46246 (   0.0 sec)
# of grid points (after weights+screening)   ...  41449 (   0.3 sec)
nearest neighbour list constructed           ...    0.0 sec
Grid point re-assignment to atoms done       ...    0.0 sec
Grid point division into batches done        ...    0.0 sec
Reduced shell lists constructed in    0.8 sec

Total number of grid points                  ...    41449
Total number of batches                      ...      663
Average number of points per batch           ...       62
Average number of grid points per atom       ...     1151
Average number of shells per batch           ...   142.30 (47.75%)
Average number of basis functions per batch  ...   362.02 (43.72%)
Average number of large shells per batch     ...    91.02 (63.96%)
Average number of large basis fcns per batch ...   235.49 (65.05%)
Maximum spatial batch extension              ...  23.46, 20.66, 19.79 au
Average spatial batch extension              ...   3.60,  3.45,  3.45 au

Time for grid setup =    1.073 sec

------------------------------
INITIAL GUESS: MODEL POTENTIAL
------------------------------
Loading Hartree-Fock densities                     ... done
Calculating cut-offs                               ... done
Setting up the integral package                    ... done
Initializing the effective Hamiltonian             ... done
Starting the Coulomb interaction                   ... done (   2.7 sec)
Reading the grid                                   ... done
Mapping shells                                     ... done
Starting the XC term evaluation                    ... done (   1.0 sec)
Transforming the Hamiltonian                       ... done (   0.2 sec)
Diagonalizing the Hamiltonian                      ... done (   0.3 sec)
Back transforming the eigenvectors                 ... done (   0.1 sec)
Now organizing SCF variables                       ... done
                      ------------------
                      INITIAL GUESS DONE (   5.6 sec)
                      ------------------
--------------
SCF ITERATIONS
--------------
ITER       Energy         Delta-E        Max-DP      RMS-DP      [F,P]     Damp
               ***  Starting incremental Fock matrix formation  ***
  0  -1270.0081742428   0.000000000000 0.04930992  0.00043014  0.3050579 0.7000
  1  -1270.2764405016  -0.268266258786 0.03607706  0.00034654  0.1776907 0.7000
                               ***Turning on DIIS***
  2  -1270.4437342089  -0.167293707254 0.02583520  0.00023368  0.1097454 0.7000
  3  -1272.5832530083  -2.139518799475 0.06313125  0.00050947  0.0829178 0.0000
  4  -1270.7512725653   1.831980443015 0.00923642  0.00009401  0.0072229 0.0000
  5  -1270.8146086739  -0.063336108569 0.00344019  0.00004957  0.0037963 0.0000
                      *** Initiating the SOSCF procedure ***
                           *** Shutting down DIIS ***
                      *** Re-Reading the Fockian *** 
                      *** Removing any level shift *** 
ITER      Energy       Delta-E        Grad      Rot      Max-DP    RMS-DP
  6  -1270.79251181   0.0220968650  0.001669  0.001669  0.001716  0.000025
               *** Restarting incremental Fock matrix formation ***
  7  -1270.80702715  -0.0145153377  0.000934  0.002384  0.001242  0.000015
  8  -1270.80707311  -0.0000459604  0.000431  0.002790  0.001378  0.000017
  9  -1270.80709049  -0.0000173799  0.000159  0.000310  0.000353  0.000004
 10  -1270.80709261  -0.0000021235  0.000051  0.000136  0.000114  0.000001
 11  -1270.80709282  -0.0000002075  0.000021  0.000115  0.000058  0.000001
 12  -1270.80709287  -0.0000000560  0.000010  0.000036  0.000026  0.000000
 13  -1270.80709288  -0.0000000023  0.000003  0.000009  0.000005  0.000000
                  ***Gradient check signals convergence***
              ***Rediagonalizing the Fockian in SOSCF/NRSCF***

               *****************************************************
               *                     SUCCESS                       *
               *           SCF CONVERGED AFTER  14 CYCLES          *
               *****************************************************


----------------
TOTAL SCF ENERGY
----------------

Total Energy       :        -1270.80709287 Eh          -34580.41903 eV

Components:
Nuclear Repulsion  :         1670.77363286 Eh           45464.06190 eV
Electronic Energy  :        -2941.58072573 Eh          -80044.48093 eV
One Electron Energy:        -5062.93263302 Eh         -137769.40101 eV
Two Electron Energy:         2121.35190729 Eh           57724.92008 eV

Virial components:
Potential Energy   :        -2539.78868941 Eh          -69111.16378 eV
Kinetic Energy     :         1268.98159654 Eh           34530.74475 eV
Virial Ratio       :            2.00143855


---------------
SCF CONVERGENCE
---------------

  Last Energy change         ...    6.6566e-09  Tolerance :   1.0000e-08
  Last MAX-Density change    ...    2.2911e-06  Tolerance :   1.0000e-07
  Last RMS-Density change    ...    3.0067e-08  Tolerance :   5.0000e-09
  Last Orbital Gradient      ...    1.0286e-06  Tolerance :   1.0000e-05
  Last Orbital Rotation      ...    3.1772e-06  Tolerance :   1.0000e-05

             **** THE GBW FILE WAS UPDATED (CONFS/Conf98.orca.gbw) ****
             **** DENSITY FILE WAS UPDATED (CONFS/Conf98.orca.scfp) ****
             **** ENERGY FILE WAS UPDATED (CONFS/Conf98.orca.en.tmp) ****
             **** THE GBW FILE WAS UPDATED (CONFS/Conf98.orca.gbw) ****
             **** DENSITY FILE WAS UPDATED (CONFS/Conf98.orca.scfp) ****
----------------
ORBITAL ENERGIES
----------------

  NO   OCC          E(Eh)            E(eV) 
   0   2.0000     -91.888218     -2500.4055 
   1   2.0000     -20.597990      -560.4998 
   2   2.0000     -20.592063      -560.3385 
   3   2.0000     -20.547354      -559.1219 
   4   2.0000     -15.628885      -425.2836 
   5   2.0000     -15.605790      -424.6551 
   6   2.0000     -11.395363      -310.0836 
   7   2.0000     -11.382777      -309.7411 
   8   2.0000     -11.338384      -308.5331 
   9   2.0000     -11.308051      -307.7077 
  10   2.0000     -11.304219      -307.6034 
  11   2.0000     -11.299706      -307.4806 
  12   2.0000     -11.260368      -306.4102 
  13   2.0000     -11.259388      -306.3835 
  14   2.0000     -11.255278      -306.2717 
  15   2.0000     -11.248097      -306.0763 
  16   2.0000     -11.238295      -305.8096 
  17   2.0000     -11.234424      -305.7042 
  18   2.0000     -11.232177      -305.6431 
  19   2.0000     -11.231141      -305.6149 
  20   2.0000      -8.893300      -241.9990 
  21   2.0000      -6.574877      -178.9115 
  22   2.0000      -6.572875      -178.8570 
  23   2.0000      -6.572286      -178.8410 
  24   2.0000      -1.453498       -39.5517 
  25   2.0000      -1.411806       -38.4172 
  26   2.0000      -1.357623       -36.9428 
  27   2.0000      -1.340072       -36.4652 
  28   2.0000      -1.237160       -33.6648 
  29   2.0000      -1.152628       -31.3646 
  30   2.0000      -1.120964       -30.5030 
  31   2.0000      -1.044339       -28.4179 
  32   2.0000      -1.036451       -28.2033 
  33   2.0000      -1.010176       -27.4883 
  34   2.0000      -0.998875       -27.1808 
  35   2.0000      -0.983922       -26.7739 
  36   2.0000      -0.920805       -25.0564 
  37   2.0000      -0.886339       -24.1185 
  38   2.0000      -0.847560       -23.0633 
  39   2.0000      -0.835445       -22.7336 
  40   2.0000      -0.828306       -22.5393 
  41   2.0000      -0.821588       -22.3566 
  42   2.0000      -0.761192       -20.7131 
  43   2.0000      -0.736150       -20.0317 
  44   2.0000      -0.726421       -19.7669 
  45   2.0000      -0.690235       -18.7823 
  46   2.0000      -0.686019       -18.6675 
  47   2.0000      -0.680092       -18.5062 
  48   2.0000      -0.673044       -18.3145 
  49   2.0000      -0.653584       -17.7849 
  50   2.0000      -0.650077       -17.6895 
  51   2.0000      -0.639448       -17.4003 
  52   2.0000      -0.629046       -17.1172 
  53   2.0000      -0.618000       -16.8166 
  54   2.0000      -0.603335       -16.4176 
  55   2.0000      -0.598749       -16.2928 
  56   2.0000      -0.595339       -16.2000 
  57   2.0000      -0.579337       -15.7646 
  58   2.0000      -0.573352       -15.6017 
  59   2.0000      -0.562391       -15.3034 
  60   2.0000      -0.561764       -15.2864 
  61   2.0000      -0.547479       -14.8977 
  62   2.0000      -0.535542       -14.5728 
  63   2.0000      -0.529702       -14.4139 
  64   2.0000      -0.516234       -14.0474 
  65   2.0000      -0.509169       -13.8552 
  66   2.0000      -0.501119       -13.6361 
  67   2.0000      -0.494207       -13.4481 
  68   2.0000      -0.480983       -13.0882 
  69   2.0000      -0.462904       -12.5962 
  70   2.0000      -0.461789       -12.5659 
  71   2.0000      -0.451404       -12.2833 
  72   2.0000      -0.353267        -9.6129 
  73   2.0000      -0.344763        -9.3815 
  74   2.0000      -0.327276        -8.9056 
  75   2.0000      -0.317398        -8.6368 
  76   2.0000      -0.314713        -8.5638 
  77   0.0000       0.075278         2.0484 
  78   0.0000       0.111084         3.0228 
  79   0.0000       0.120862         3.2888 
  80   0.0000       0.135321         3.6823 
  81   0.0000       0.138488         3.7685 
  82   0.0000       0.144850         3.9416 
  83   0.0000       0.154364         4.2005 
  84   0.0000       0.161198         4.3864 
  85   0.0000       0.164105         4.4655 
  86   0.0000       0.169177         4.6035 
  87   0.0000       0.173964         4.7338 
  88   0.0000       0.189287         5.1508 
  89   0.0000       0.192982         5.2513 
  90   0.0000       0.199263         5.4222 
  91   0.0000       0.208205         5.6656 
  92   0.0000       0.212283         5.7765 
  93   0.0000       0.217737         5.9249 
  94   0.0000       0.222260         6.0480 
  95   0.0000       0.231298         6.2939 
  96   0.0000       0.240652         6.5485 
  97   0.0000       0.247057         6.7228 
  98   0.0000       0.250520         6.8170 
  99   0.0000       0.276070         7.5122 
 100   0.0000       0.299534         8.1507 
 101   0.0000       0.308175         8.3859 
 102   0.0000       0.312627         8.5070 
 103   0.0000       0.318038         8.6542 
 104   0.0000       0.320725         8.7274 
 105   0.0000       0.329632         8.9697 
 106   0.0000       0.343967         9.3598 
 107   0.0000       0.348932         9.4949 
 108   0.0000       0.352239         9.5849 
 109   0.0000       0.362100         9.8532 
 110   0.0000       0.373291        10.1578 
 111   0.0000       0.377827        10.2812 
 112   0.0000       0.384577        10.4649 
 113   0.0000       0.389488        10.5985 
 114   0.0000       0.395610        10.7651 
 115   0.0000       0.398064        10.8319 
 116   0.0000       0.420775        11.4499 
 117   0.0000       0.431268        11.7354 
 118   0.0000       0.433087        11.7849 
 119   0.0000       0.436562        11.8795 
 120   0.0000       0.442451        12.0397 
 121   0.0000       0.447134        12.1671 
 122   0.0000       0.452902        12.3241 
 123   0.0000       0.457740        12.4557 
 124   0.0000       0.462723        12.5913 
 125   0.0000       0.464806        12.6480 
 126   0.0000       0.468680        12.7534 
 127   0.0000       0.485872        13.2213 
 128   0.0000       0.490068        13.3354 
 129   0.0000       0.493124        13.4186 
 130   0.0000       0.496407        13.5079 
 131   0.0000       0.504867        13.7381 
 132   0.0000       0.511109        13.9080 
 133   0.0000       0.520932        14.1753 
 134   0.0000       0.522460        14.2169 
 135   0.0000       0.525999        14.3132 
 136   0.0000       0.537577        14.6282 
 137   0.0000       0.538224        14.6458 
 138   0.0000       0.542101        14.7513 
 139   0.0000       0.546309        14.8658 
 140   0.0000       0.554282        15.0828 
 141   0.0000       0.563042        15.3212 
 142   0.0000       0.571724        15.5574 
 143   0.0000       0.573423        15.6036 
 144   0.0000       0.576168        15.6783 
 145   0.0000       0.580097        15.7852 
 146   0.0000       0.582448        15.8492 
 147   0.0000       0.588177        16.0051 
 148   0.0000       0.592779        16.1303 
 149   0.0000       0.597174        16.2499 
 150   0.0000       0.600097        16.3295 
 151   0.0000       0.603009        16.4087 
 152   0.0000       0.606779        16.5113 
 153   0.0000       0.611333        16.6352 
 154   0.0000       0.620480        16.8841 
 155   0.0000       0.622442        16.9375 
 156   0.0000       0.626913        17.0592 
 157   0.0000       0.631585        17.1863 
 158   0.0000       0.632510        17.2115 
 159   0.0000       0.635254        17.2861 
 160   0.0000       0.639695        17.4070 
 161   0.0000       0.646116        17.5817 
 162   0.0000       0.647417        17.6171 
 163   0.0000       0.657816        17.9001 
 164   0.0000       0.660287        17.9673 
 165   0.0000       0.666016        18.1232 
 166   0.0000       0.674912        18.3653 
 167   0.0000       0.682505        18.5719 
 168   0.0000       0.683468        18.5981 
 169   0.0000       0.688059        18.7230 
 170   0.0000       0.694712        18.9041 
 171   0.0000       0.702501        19.1160 
 172   0.0000       0.707141        19.2423 
 173   0.0000       0.718066        19.5396 
 174   0.0000       0.721958        19.6455 
 175   0.0000       0.725408        19.7393 
 176   0.0000       0.729337        19.8463 
 177   0.0000       0.736204        20.0331 
 178   0.0000       0.743042        20.2192 
 179   0.0000       0.753882        20.5142 
 180   0.0000       0.759592        20.6695 
 181   0.0000       0.764203        20.7950 
 182   0.0000       0.768234        20.9047 
 183   0.0000       0.780897        21.2493 
 184   0.0000       0.788473        21.4554 
 185   0.0000       0.799255        21.7488 
 186   0.0000       0.809581        22.0298 
 187   0.0000       0.821202        22.3460 
 188   0.0000       0.829963        22.5844 
 189   0.0000       0.831691        22.6315 
 190   0.0000       0.835410        22.7327 
 191   0.0000       0.842416        22.9233 
 192   0.0000       0.850372        23.1398 
 193   0.0000       0.855284        23.2735 
 194   0.0000       0.867971        23.6187 
 195   0.0000       0.875144        23.8139 
 196   0.0000       0.881123        23.9766 
 197   0.0000       0.892932        24.2979 
 198   0.0000       0.902583        24.5605 
 199   0.0000       0.904555        24.6142 
 200   0.0000       0.910652        24.7801 
 201   0.0000       0.919534        25.0218 
 202   0.0000       0.927820        25.2473 
 203   0.0000       0.929608        25.2959 
 204   0.0000       0.933343        25.3976 
 205   0.0000       0.945816        25.7370 
 206   0.0000       0.947488        25.7824 
 207   0.0000       0.952636        25.9225 
 208   0.0000       0.968600        26.3570 
 209   0.0000       0.973402        26.4876 
 210   0.0000       0.980185        26.6722 
 211   0.0000       0.988027        26.8856 
 212   0.0000       0.989556        26.9272 
 213   0.0000       1.001005        27.2387 
 214   0.0000       1.008577        27.4448 
 215   0.0000       1.012008        27.5381 
 216   0.0000       1.017604        27.6904 
 217   0.0000       1.032572        28.0977 
 218   0.0000       1.035816        28.1860 
 219   0.0000       1.045453        28.4482 
 220   0.0000       1.048086        28.5199 
 221   0.0000       1.055860        28.7314 
 222   0.0000       1.062040        28.8996 
 223   0.0000       1.081117        29.4187 
 224   0.0000       1.085295        29.5324 
 225   0.0000       1.092605        29.7313 
 226   0.0000       1.095943        29.8221 
 227   0.0000       1.098513        29.8921 
 228   0.0000       1.108201        30.1557 
 229   0.0000       1.117346        30.4045 
 230   0.0000       1.124010        30.5859 
 231   0.0000       1.134112        30.8607 
 232   0.0000       1.136119        30.9154 
 233   0.0000       1.144171        31.1345 
 234   0.0000       1.153203        31.3803 
 235   0.0000       1.161537        31.6070 
 236   0.0000       1.163536        31.6614 
 237   0.0000       1.173080        31.9211 
 238   0.0000       1.175913        31.9982 
 239   0.0000       1.179743        32.1024 
 240   0.0000       1.189721        32.3740 
 241   0.0000       1.196851        32.5680 
 242   0.0000       1.205532        32.8042 
 243   0.0000       1.208683        32.8899 
 244   0.0000       1.214888        33.0588 
 245   0.0000       1.223330        33.2885 
 246   0.0000       1.232008        33.5246 
 247   0.0000       1.238956        33.7137 
 248   0.0000       1.245455        33.8906 
 249   0.0000       1.247823        33.9550 
 250   0.0000       1.257436        34.2166 
 251   0.0000       1.260488        34.2996 
 252   0.0000       1.268457        34.5165 
 253   0.0000       1.273930        34.6654 
 254   0.0000       1.286040        34.9949 
 255   0.0000       1.295276        35.2463 
 256   0.0000       1.300930        35.4001 
 257   0.0000       1.304992        35.5106 
 258   0.0000       1.316058        35.8118 
 259   0.0000       1.323448        36.0129 
 260   0.0000       1.332768        36.2665 
 261   0.0000       1.341033        36.4914 
 262   0.0000       1.351544        36.7774 
 263   0.0000       1.355314        36.8800 
 264   0.0000       1.361679        37.0532 
 265   0.0000       1.373582        37.3771 
 266   0.0000       1.381207        37.5846 
 267   0.0000       1.387036        37.7432 
 268   0.0000       1.392829        37.9008 
 269   0.0000       1.408816        38.3358 
 270   0.0000       1.416840        38.5542 
 271   0.0000       1.419662        38.6310 
 272   0.0000       1.431730        38.9593 
 273   0.0000       1.442903        39.2634 
 274   0.0000       1.445381        39.3308 
 275   0.0000       1.458307        39.6826 
 276   0.0000       1.462571        39.7986 
 277   0.0000       1.472844        40.0781 
 278   0.0000       1.480030        40.2737 
 279   0.0000       1.487174        40.4681 
 280   0.0000       1.490270        40.5523 
 281   0.0000       1.499376        40.8001 
 282   0.0000       1.500744        40.8373 
 283   0.0000       1.504474        40.9388 
 284   0.0000       1.511753        41.1369 
 285   0.0000       1.525564        41.5127 
 286   0.0000       1.528303        41.5872 
 287   0.0000       1.538078        41.8532 
 288   0.0000       1.541094        41.9353 
 289   0.0000       1.544544        42.0292 
 290   0.0000       1.554704        42.3056 
 291   0.0000       1.558032        42.3962 
 292   0.0000       1.561809        42.4990 
 293   0.0000       1.570504        42.7356 
 294   0.0000       1.576758        42.9058 
 295   0.0000       1.584006        43.1030 
 296   0.0000       1.589641        43.2563 
 297   0.0000       1.601645        43.5830 
 298   0.0000       1.614939        43.9447 
 299   0.0000       1.622882        44.1609 
 300   0.0000       1.625929        44.2438 
 301   0.0000       1.635577        44.5063 
 302   0.0000       1.645857        44.7860 
 303   0.0000       1.652614        44.9699 
 304   0.0000       1.653802        45.0022 
 305   0.0000       1.663583        45.2684 
 306   0.0000       1.668763        45.4094 
 307   0.0000       1.677566        45.6489 
 308   0.0000       1.692203        46.0472 
 309   0.0000       1.697049        46.1791 
 310   0.0000       1.704572        46.3838 
 311   0.0000       1.707862        46.4733 
 312   0.0000       1.721168        46.8353 
 313   0.0000       1.728628        47.0384 
 314   0.0000       1.732309        47.1385 
 315   0.0000       1.756720        47.8028 
 316   0.0000       1.764923        48.0260 
 317   0.0000       1.771380        48.2017 
 318   0.0000       1.781879        48.4874 
 319   0.0000       1.789729        48.7010 
 320   0.0000       1.800832        49.0031 
 321   0.0000       1.813884        49.3583 
 322   0.0000       1.824936        49.6590 
 323   0.0000       1.836755        49.9807 
 324   0.0000       1.843031        50.1514 
 325   0.0000       1.859871        50.6097 
 326   0.0000       1.879078        51.1323 
 327   0.0000       1.901562        51.7441 
 328   0.0000       1.908269        51.9266 
 329   0.0000       1.911912        52.0258 
 330   0.0000       1.925474        52.3948 
 331   0.0000       1.936687        52.6999 
 332   0.0000       1.937646        52.7260 
 333   0.0000       1.955563        53.2136 
 334   0.0000       1.960968        53.3607 
 335   0.0000       1.977416        53.8082 
 336   0.0000       1.984788        54.0088 
 337   0.0000       2.003824        54.5268 
 338   0.0000       2.016915        54.8830 
 339   0.0000       2.019589        54.9558 
 340   0.0000       2.022565        55.0368 
 341   0.0000       2.040964        55.5375 
 342   0.0000       2.050604        55.7998 
 343   0.0000       2.054484        55.9054 
 344   0.0000       2.096484        57.0482 
 345   0.0000       2.114010        57.5251 
 346   0.0000       2.124752        57.8174 
 347   0.0000       2.132505        58.0284 
 348   0.0000       2.153799        58.6078 
 349   0.0000       2.171436        59.0878 
 350   0.0000       2.181893        59.3723 
 351   0.0000       2.204275        59.9814 
 352   0.0000       2.211766        60.1852 
 353   0.0000       2.222632        60.4809 
 354   0.0000       2.244135        61.0660 
 355   0.0000       2.250692        61.2444 
 356   0.0000       2.269858        61.7660 
 357   0.0000       2.283393        62.1343 
 358   0.0000       2.303186        62.6729 
 359   0.0000       2.308807        62.8258 
 360   0.0000       2.322669        63.2030 
 361   0.0000       2.324191        63.2444 
 362   0.0000       2.339854        63.6707 
 363   0.0000       2.347433        63.8769 
 364   0.0000       2.363183        64.3055 
 365   0.0000       2.369190        64.4689 
 366   0.0000       2.384646        64.8895 
 367   0.0000       2.396046        65.1997 
 368   0.0000       2.406745        65.4909 
 369   0.0000       2.414169        65.6929 
 370   0.0000       2.433636        66.2226 
 371   0.0000       2.437259        66.3212 
 372   0.0000       2.460223        66.9461 
 373   0.0000       2.472507        67.2803 
 374   0.0000       2.475948        67.3740 
 375   0.0000       2.485197        67.6256 
 376   0.0000       2.507159        68.2233 
 377   0.0000       2.511409        68.3389 
 378   0.0000       2.518877        68.5421 
 379   0.0000       2.532547        68.9141 
 380   0.0000       2.558713        69.6261 
 381   0.0000       2.580218        70.2113 
 382   0.0000       2.581483        70.2457 
 383   0.0000       2.597118        70.6712 
 384   0.0000       2.605346        70.8951 
 385   0.0000       2.609722        71.0141 
 386   0.0000       2.625476        71.4428 
 387   0.0000       2.643503        71.9334 
 388   0.0000       2.655210        72.2519 
 389   0.0000       2.662657        72.4546 
 390   0.0000       2.668602        72.6164 
 391   0.0000       2.676563        72.8330 
 392   0.0000       2.702958        73.5512 
 393   0.0000       2.710553        73.7579 
 394   0.0000       2.713739        73.8446 
 395   0.0000       2.726510        74.1921 
 396   0.0000       2.733351        74.3783 
 397   0.0000       2.739748        74.5523 
 398   0.0000       2.748775        74.7980 
 399   0.0000       2.752041        74.8868 
 400   0.0000       2.760144        75.1073 
 401   0.0000       2.775108        75.5145 
 402   0.0000       2.784200        75.7619 
 403   0.0000       2.806147        76.3591 
 404   0.0000       2.814596        76.5891 
 405   0.0000       2.817982        76.6812 
 406   0.0000       2.830088        77.0106 
 407   0.0000       2.835078        77.1464 
 408   0.0000       2.845788        77.4378 
 409   0.0000       2.855179        77.6934 
 410   0.0000       2.860779        77.8458 
 411   0.0000       2.865224        77.9667 
 412   0.0000       2.880018        78.3693 
 413   0.0000       2.896821        78.8265 
 414   0.0000       2.904292        79.0298 
 415   0.0000       2.915237        79.3276 
 416   0.0000       2.924097        79.5687 
 417   0.0000       2.939480        79.9873 
 418   0.0000       2.944800        80.1321 
 419   0.0000       2.953722        80.3749 
 420   0.0000       2.959132        80.5221 
 421   0.0000       2.963450        80.6396 
 422   0.0000       2.979834        81.0854 
 423   0.0000       2.984052        81.2002 
 424   0.0000       2.992966        81.4427 
 425   0.0000       3.002949        81.7144 
 426   0.0000       3.024007        82.2874 
 427   0.0000       3.027589        82.3849 
 428   0.0000       3.033146        82.5361 
 429   0.0000       3.038881        82.6922 
 430   0.0000       3.041822        82.7722 
 431   0.0000       3.047090        82.9155 
 432   0.0000       3.059398        83.2505 
 433   0.0000       3.065444        83.4150 
 434   0.0000       3.076284        83.7100 
 435   0.0000       3.082815        83.8877 
 436   0.0000       3.085285        83.9549 
 437   0.0000       3.091334        84.1195 
 438   0.0000       3.096830        84.2690 
 439   0.0000       3.102632        84.4269 
 440   0.0000       3.108733        84.5929 
 441   0.0000       3.114611        84.7529 
 442   0.0000       3.125072        85.0375 
 443   0.0000       3.126328        85.0717 
 444   0.0000       3.150004        85.7160 
 445   0.0000       3.154313        85.8332 
 446   0.0000       3.155734        85.8719 
 447   0.0000       3.167695        86.1973 
 448   0.0000       3.180006        86.5324 
 449   0.0000       3.187433        86.7345 
 450   0.0000       3.198869        87.0457 
 451   0.0000       3.199793        87.0708 
 452   0.0000       3.209316        87.3299 
 453   0.0000       3.212181        87.4079 
 454   0.0000       3.214466        87.4701 
 455   0.0000       3.220485        87.6338 
 456   0.0000       3.241518        88.2062 
 457   0.0000       3.247280        88.3630 
 458   0.0000       3.254170        88.5505 
 459   0.0000       3.259682        88.7005 
 460   0.0000       3.264174        88.8227 
 461   0.0000       3.267839        88.9224 
 462   0.0000       3.271038        89.0095 
 463   0.0000       3.284808        89.3842 
 464   0.0000       3.300102        89.8003 
 465   0.0000       3.302379        89.8623 
 466   0.0000       3.310096        90.0723 
 467   0.0000       3.312920        90.1491 
 468   0.0000       3.318936        90.3128 
 469   0.0000       3.321191        90.3742 
 470   0.0000       3.329453        90.5990 
 471   0.0000       3.337331        90.8134 
 472   0.0000       3.344338        91.0041 
 473   0.0000       3.352549        91.2275 
 474   0.0000       3.356318        91.3300 
 475   0.0000       3.360846        91.4533 
 476   0.0000       3.372051        91.7582 
 477   0.0000       3.374632        91.8284 
 478   0.0000       3.377837        91.9156 
 479   0.0000       3.390624        92.2636 
 480   0.0000       3.391785        92.2952 
 481   0.0000       3.397962        92.4632 
 482   0.0000       3.399777        92.5126 
 483   0.0000       3.402076        92.5752 
 484   0.0000       3.408148        92.7404 
 485   0.0000       3.412175        92.8500 
 486   0.0000       3.415479        92.9399 
 487   0.0000       3.421773        93.1112 
 488   0.0000       3.433161        93.4211 
 489   0.0000       3.445558        93.7584 
 490   0.0000       3.447735        93.8176 
 491   0.0000       3.451735        93.9265 
 492   0.0000       3.455592        94.0314 
 493   0.0000       3.461317        94.1872 
 494   0.0000       3.466255        94.3216 
 495   0.0000       3.467694        94.3607 
 496   0.0000       3.477375        94.6242 
 497   0.0000       3.481425        94.7344 
 498   0.0000       3.488566        94.9287 
 499   0.0000       3.495877        95.1277 
 500   0.0000       3.507684        95.4489 
 501   0.0000       3.518107        95.7326 
 502   0.0000       3.521248        95.8180 
 503   0.0000       3.527819        95.9968 
 504   0.0000       3.533529        96.1522 
 505   0.0000       3.535979        96.2189 
 506   0.0000       3.549071        96.5751 
 507   0.0000       3.558293        96.8261 
 508   0.0000       3.563479        96.9672 
 509   0.0000       3.580504        97.4305 
 510   0.0000       3.583465        97.5111 
 511   0.0000       3.598766        97.9274 
 512   0.0000       3.606400        98.1351 
 513   0.0000       3.611318        98.2690 
 514   0.0000       3.619845        98.5010 
 515   0.0000       3.627495        98.7091 
 516   0.0000       3.630844        98.8003 
 517   0.0000       3.633448        98.8712 
 518   0.0000       3.640849        99.0725 
 519   0.0000       3.643295        99.1391 
 520   0.0000       3.650920        99.3466 
 521   0.0000       3.654879        99.4543 
 522   0.0000       3.665945        99.7554 
 523   0.0000       3.671462        99.9056 
 524   0.0000       3.675661       100.0198 
 525   0.0000       3.677625       100.0733 
 526   0.0000       3.686850       100.3243 
 527   0.0000       3.689397       100.3936 
 528   0.0000       3.694113       100.5219 
 529   0.0000       3.700876       100.7059 
 530   0.0000       3.710044       100.9554 
 531   0.0000       3.715232       101.0966 
 532   0.0000       3.725843       101.3854 
 533   0.0000       3.730776       101.5196 
 534   0.0000       3.739059       101.7450 
 535   0.0000       3.744195       101.8847 
 536   0.0000       3.747099       101.9637 
 537   0.0000       3.756952       102.2319 
 538   0.0000       3.762450       102.3815 
 539   0.0000       3.770971       102.6133 
 540   0.0000       3.777136       102.7811 
 541   0.0000       3.779799       102.8536 
 542   0.0000       3.788251       103.0836 
 543   0.0000       3.795105       103.2700 
 544   0.0000       3.804355       103.5217 
 545   0.0000       3.809736       103.6682 
 546   0.0000       3.822716       104.0214 
 547   0.0000       3.824019       104.0568 
 548   0.0000       3.831579       104.2626 
 549   0.0000       3.847979       104.7088 
 550   0.0000       3.849635       104.7539 
 551   0.0000       3.864365       105.1547 
 552   0.0000       3.871143       105.3392 
 553   0.0000       3.878214       105.5316 
 554   0.0000       3.888851       105.8210 
 555   0.0000       3.891654       105.8973 
 556   0.0000       3.897255       106.0497 
 557   0.0000       3.911528       106.4381 
 558   0.0000       3.918245       106.6209 
 559   0.0000       3.930862       106.9642 
 560   0.0000       3.941325       107.2489 
 561   0.0000       3.942698       107.2863 
 562   0.0000       3.951218       107.5181 
 563   0.0000       3.961394       107.7950 
 564   0.0000       3.964175       107.8707 
 565   0.0000       3.976941       108.2181 
 566   0.0000       3.988955       108.5450 
 567   0.0000       3.995272       108.7169 
 568   0.0000       3.996815       108.7589 
 569   0.0000       4.017334       109.3172 
 570   0.0000       4.023492       109.4848 
 571   0.0000       4.027519       109.5944 
 572   0.0000       4.040562       109.9493 
 573   0.0000       4.051448       110.2455 
 574   0.0000       4.061067       110.5073 
 575   0.0000       4.066608       110.6580 
 576   0.0000       4.073841       110.8549 
 577   0.0000       4.080186       111.0275 
 578   0.0000       4.090475       111.3075 
 579   0.0000       4.096942       111.4835 
 580   0.0000       4.112680       111.9117 
 581   0.0000       4.116360       112.0119 
 582   0.0000       4.123420       112.2040 
 583   0.0000       4.128274       112.3361 
 584   0.0000       4.137760       112.5942 
 585   0.0000       4.144850       112.7871 
 586   0.0000       4.151343       112.9638 
 587   0.0000       4.155052       113.0647 
 588   0.0000       4.158076       113.1470 
 589   0.0000       4.165689       113.3542 
 590   0.0000       4.179799       113.7381 
 591   0.0000       4.184009       113.8527 
 592   0.0000       4.190972       114.0421 
 593   0.0000       4.192376       114.0803 
 594   0.0000       4.202432       114.3540 
 595   0.0000       4.210568       114.5754 
 596   0.0000       4.220487       114.8453 
 597   0.0000       4.227871       115.0462 
 598   0.0000       4.232077       115.1607 
 599   0.0000       4.232979       115.1852 
 600   0.0000       4.244083       115.4874 
 601   0.0000       4.254009       115.7575 
 602   0.0000       4.259280       115.9009 
 603   0.0000       4.273082       116.2765 
 604   0.0000       4.273882       116.2982 
 605   0.0000       4.284492       116.5870 
 606   0.0000       4.296965       116.9264 
 607   0.0000       4.312710       117.3548 
 608   0.0000       4.319911       117.5508 
 609   0.0000       4.331291       117.8604 
 610   0.0000       4.339012       118.0705 
 611   0.0000       4.349690       118.3611 
 612   0.0000       4.354289       118.4862 
 613   0.0000       4.361987       118.6957 
 614   0.0000       4.363628       118.7404 
 615   0.0000       4.373391       119.0060 
 616   0.0000       4.377331       119.1132 
 617   0.0000       4.380082       119.1881 
 618   0.0000       4.387322       119.3851 
 619   0.0000       4.394739       119.5869 
 620   0.0000       4.400710       119.7494 
 621   0.0000       4.408318       119.9564 
 622   0.0000       4.417718       120.2122 
 623   0.0000       4.430435       120.5583 
 624   0.0000       4.437109       120.7399 
 625   0.0000       4.442106       120.8759 
 626   0.0000       4.451631       121.1350 
 627   0.0000       4.459874       121.3593 
 628   0.0000       4.464686       121.4903 
 629   0.0000       4.482744       121.9817 
 630   0.0000       4.497755       122.3901 
 631   0.0000       4.502091       122.5081 
 632   0.0000       4.508985       122.6957 
 633   0.0000       4.515642       122.8769 
 634   0.0000       4.528753       123.2336 
 635   0.0000       4.533347       123.3586 
 636   0.0000       4.545948       123.7015 
 637   0.0000       4.558982       124.0562 
 638   0.0000       4.565959       124.2461 
 639   0.0000       4.567442       124.2864 
 640   0.0000       4.576753       124.5398 
 641   0.0000       4.590590       124.9163 
 642   0.0000       4.597593       125.1069 
 643   0.0000       4.605895       125.3328 
 644   0.0000       4.619216       125.6953 
 645   0.0000       4.631834       126.0386 
 646   0.0000       4.636972       126.1784 
 647   0.0000       4.641996       126.3151 
 648   0.0000       4.647041       126.4524 
 649   0.0000       4.650426       126.5445 
 650   0.0000       4.666666       126.9864 
 651   0.0000       4.669212       127.0557 
 652   0.0000       4.679463       127.3347 
 653   0.0000       4.683775       127.4520 
 654   0.0000       4.688376       127.5772 
 655   0.0000       4.694975       127.7568 
 656   0.0000       4.706629       128.0739 
 657   0.0000       4.713702       128.2663 
 658   0.0000       4.723785       128.5407 
 659   0.0000       4.733380       128.8018 
 660   0.0000       4.747622       129.1894 
 661   0.0000       4.758601       129.4881 
 662   0.0000       4.770865       129.8218 
 663   0.0000       4.779830       130.0658 
 664   0.0000       4.793115       130.4273 
 665   0.0000       4.822156       131.2175 
 666   0.0000       4.831990       131.4851 
 667   0.0000       4.853611       132.0735 
 668   0.0000       4.864183       132.3612 
 669   0.0000       4.899344       133.3179 
 670   0.0000       4.903545       133.4322 
 671   0.0000       4.905498       133.4854 
 672   0.0000       4.911121       133.6384 
 673   0.0000       4.944264       134.5403 
 674   0.0000       4.956042       134.8608 
 675   0.0000       4.995664       135.9389 
 676   0.0000       5.009117       136.3050 
 677   0.0000       5.022270       136.6629 
 678   0.0000       5.027820       136.8139 
 679   0.0000       5.038292       137.0989 
 680   0.0000       5.054303       137.5346 
 681   0.0000       5.073027       138.0441 
 682   0.0000       5.075700       138.1168 
 683   0.0000       5.084671       138.3609 
 684   0.0000       5.094336       138.6239 
 685   0.0000       5.107457       138.9810 
 686   0.0000       5.123070       139.4058 
 687   0.0000       5.137336       139.7940 
 688   0.0000       5.147376       140.0672 
 689   0.0000       5.152829       140.2156 
 690   0.0000       5.157991       140.3561 
 691   0.0000       5.167110       140.6042 
 692   0.0000       5.180925       140.9801 
 693   0.0000       5.185369       141.1011 
 694   0.0000       5.205783       141.6566 
 695   0.0000       5.212781       141.8470 
 696   0.0000       5.221890       142.0948 
 697   0.0000       5.231908       142.3675 
 698   0.0000       5.236534       142.4933 
 699   0.0000       5.245056       142.7252 
 700   0.0000       5.258827       143.1000 
 701   0.0000       5.274095       143.5154 
 702   0.0000       5.298218       144.1718 
 703   0.0000       5.301498       144.2611 
 704   0.0000       5.317315       144.6915 
 705   0.0000       5.329437       145.0214 
 706   0.0000       5.341060       145.3376 
 707   0.0000       5.355297       145.7250 
 708   0.0000       5.364243       145.9685 
 709   0.0000       5.380399       146.4081 
 710   0.0000       5.409540       147.2011 
 711   0.0000       5.418256       147.4382 
 712   0.0000       5.422708       147.5594 
 713   0.0000       5.459340       148.5562 
 714   0.0000       5.472612       148.9173 
 715   0.0000       5.491670       149.4359 
 716   0.0000       5.498119       149.6114 
 717   0.0000       5.503405       149.7553 
 718   0.0000       5.517966       150.1515 
 719   0.0000       5.521284       150.2418 
 720   0.0000       5.529416       150.4631 
 721   0.0000       5.546526       150.9287 
 722   0.0000       5.560924       151.3204 
 723   0.0000       5.568843       151.5359 
 724   0.0000       5.589389       152.0950 
 725   0.0000       5.610787       152.6773 
 726   0.0000       5.618723       152.8932 
 727   0.0000       5.632757       153.2751 
 728   0.0000       5.638111       153.4208 
 729   0.0000       5.641329       153.5084 
 730   0.0000       5.654911       153.8779 
 731   0.0000       5.660745       154.0367 
 732   0.0000       5.666393       154.1904 
 733   0.0000       5.676125       154.4552 
 734   0.0000       5.696071       154.9980 
 735   0.0000       5.705404       155.2519 
 736   0.0000       5.718798       155.6164 
 737   0.0000       5.734860       156.0535 
 738   0.0000       5.744946       156.3279 
 739   0.0000       5.759143       156.7143 
 740   0.0000       5.768343       156.9646 
 741   0.0000       5.775766       157.1666 
 742   0.0000       5.785294       157.4259 
 743   0.0000       5.810630       158.1153 
 744   0.0000       5.821499       158.4111 
 745   0.0000       5.839187       158.8923 
 746   0.0000       5.849602       159.1758 
 747   0.0000       5.856274       159.3573 
 748   0.0000       5.910103       160.8221 
 749   0.0000       5.929838       161.3591 
 750   0.0000       5.941453       161.6752 
 751   0.0000       5.976261       162.6223 
 752   0.0000       5.980647       162.7417 
 753   0.0000       5.993033       163.0787 
 754   0.0000       6.001151       163.2996 
 755   0.0000       6.008379       163.4963 
 756   0.0000       6.047896       164.5716 
 757   0.0000       6.058092       164.8491 
 758   0.0000       6.079491       165.4314 
 759   0.0000       6.090656       165.7352 
 760   0.0000       6.094707       165.8454 
 761   0.0000       6.169660       167.8850 
 762   0.0000       6.218623       169.2173 
 763   0.0000       6.224960       169.3898 
 764   0.0000       6.229857       169.5230 
 765   0.0000       6.254719       170.1996 
 766   0.0000       6.275001       170.7515 
 767   0.0000       6.331403       172.2862 
 768   0.0000       6.341229       172.5536 
 769   0.0000       6.353798       172.8956 
 770   0.0000       6.371698       173.3827 
 771   0.0000       6.383632       173.7075 
 772   0.0000       6.408746       174.3908 
 773   0.0000       6.454564       175.6376 
 774   0.0000       6.459801       175.7801 
 775   0.0000       6.469248       176.0372 
 776   0.0000       6.512492       177.2139 
 777   0.0000       6.561008       178.5341 
 778   0.0000       6.592206       179.3830 
 779   0.0000       6.596935       179.5117 
 780   0.0000       6.608522       179.8270 
 781   0.0000       6.672583       181.5702 
 782   0.0000       6.722273       182.9224 
 783   0.0000       6.751145       183.7080 
 784   0.0000       6.779144       184.4699 
 785   0.0000       6.905930       187.9199 
 786   0.0000       6.919929       188.3008 
 787   0.0000       6.926377       188.4763 
 788   0.0000       6.956277       189.2899 
 789   0.0000       7.023845       191.1286 
 790   0.0000       7.050099       191.8430 
 791   0.0000       7.063550       192.2090 
 792   0.0000       7.085984       192.8194 
 793   0.0000       7.109229       193.4520 
 794   0.0000       7.197308       195.8487 
 795   0.0000       7.263004       197.6364 
 796   0.0000       7.276407       198.0011 
 797   0.0000       7.285535       198.2495 
 798   0.0000       7.343894       199.8375 
 799   0.0000       7.378102       200.7684 
 800   0.0000       7.412880       201.7147 
 801   0.0000       7.566183       205.8863 
 802   0.0000       7.581187       206.2946 
 803   0.0000       7.588627       206.4970 
 804   0.0000       7.671474       208.7514 
 805   0.0000       7.819757       212.7864 
 806   0.0000       7.834441       213.1860 
 807   0.0000       7.913194       215.3290 
 808   0.0000       7.937740       215.9969 
 809   0.0000       9.336535       254.0600 
 810   0.0000       9.491015       258.2636 
 811   0.0000      10.743329       292.3408 
 812   0.0000      11.133584       302.9602 
 813   0.0000      11.932083       324.6885 
 814   0.0000      12.560626       341.7920 
 815   0.0000      12.921612       351.6149 
 816   0.0000      13.051658       355.1537 
 817   0.0000      13.109979       356.7407 
 818   0.0000      13.161050       358.1304 
 819   0.0000      13.386723       364.2712 
 820   0.0000      13.502122       367.4114 
 821   0.0000      13.758314       374.3828 
 822   0.0000      13.871447       377.4613 
 823   0.0000      13.924319       378.9000 
 824   0.0000      14.022781       381.5793 
 825   0.0000      14.479338       394.0028 
 826   0.0000      14.632452       398.1693 
 827   0.0000      15.947896       433.9643 

                    ********************************
                    * MULLIKEN POPULATION ANALYSIS *
                    ********************************

-----------------------
MULLIKEN ATOMIC CHARGES
-----------------------
   0 C :   -0.264761
   1 C :    0.025714
   2 O :   -0.357265
   3 C :    0.443610
   4 O :   -0.414194
   5 C :   -0.183583
   6 C :    0.153609
   7 C :   -0.281731
   8 N :   -0.128555
   9 C :    0.207437
  10 S :   -0.442056
  11 N :   -0.210665
  12 C :    0.040014
  13 C :    0.032400
  14 C :   -0.169024
  15 C :   -0.134279
  16 C :   -0.277229
  17 C :    0.313854
  18 O :   -0.359084
  19 C :   -0.251581
  20 H :    0.090337
  21 H :    0.091707
  22 H :    0.100911
  23 H :    0.095556
  24 H :    0.116427
  25 H :    0.126532
  26 H :    0.102730
  27 H :    0.127235
  28 H :    0.198866
  29 H :    0.199959
  30 H :    0.155734
  31 H :    0.159425
  32 H :    0.160126
  33 H :    0.128291
  34 H :    0.239983
  35 H :    0.163549
Sum of atomic charges:   -0.0000000

--------------------------------
MULLIKEN REDUCED ORBITAL CHARGES
--------------------------------
  0 C s       :     3.258055  s :     3.258055
      pz      :     0.913025  p :     2.930330
      px      :     1.010281
      py      :     1.007025
      dz2     :     0.018895  d :     0.071920
      dxz     :     0.017920
      dyz     :     0.012720
      dx2y2   :     0.006940
      dxy     :     0.015445
      f0      :     0.001454  f :     0.004456
      f+1     :     0.000917
      f-1     :     0.000482
      f+2     :     0.000144
      f-2     :     0.000313
      f+3     :     0.000760
      f-3     :     0.000385
  1 C s       :     3.176457  s :     3.176457
      pz      :     0.965358  p :     2.632587
      px      :     0.837282
      py      :     0.829947
      dz2     :     0.024338  d :     0.153491
      dxz     :     0.036042
      dyz     :     0.029452
      dx2y2   :     0.029140
      dxy     :     0.034519
      f0      :     0.002377  f :     0.011752
      f+1     :     0.001390
      f-1     :     0.001138
      f+2     :     0.000159
      f-2     :     0.001920
      f+3     :     0.002362
      f-3     :     0.002406
  2 O s       :     3.720922  s :     3.720922
      pz      :     1.608994  p :     4.600864
      px      :     1.373188
      py      :     1.618682
      dz2     :     0.006066  d :     0.033201
      dxz     :     0.008894
      dyz     :     0.003994
      dx2y2   :     0.006549
      dxy     :     0.007697
      f0      :     0.000208  f :     0.002279
      f+1     :     0.000487
      f-1     :     0.000148
      f+2     :     0.000439
      f-2     :     0.000310
      f+3     :     0.000361
      f-3     :     0.000326
  3 C s       :     3.068037  s :     3.068037
      pz      :     0.676480  p :     2.165248
      px      :     0.676424
      py      :     0.812344
      dz2     :     0.049259  d :     0.296587
      dxz     :     0.043991
      dyz     :     0.062148
      dx2y2   :     0.075499
      dxy     :     0.065688
      f0      :     0.002934  f :     0.026517
      f+1     :     0.003466
      f-1     :     0.002855
      f+2     :     0.003887
      f-2     :     0.004280
      f+3     :     0.003364
      f-3     :     0.005731
  4 O s       :     3.768266  s :     3.768266
      pz      :     1.617666  p :     4.608090
      px      :     1.552306
      py      :     1.438118
      dz2     :     0.004161  d :     0.035418
      dxz     :     0.001631
      dyz     :     0.009040
      dx2y2   :     0.009179
      dxy     :     0.011408
      f0      :     0.000256  f :     0.002420
      f+1     :     0.000101
      f-1     :     0.000347
      f+2     :     0.000251
      f-2     :     0.000281
      f+3     :     0.000641
      f-3     :     0.000541
  5 C s       :     3.185095  s :     3.185095
      pz      :     0.939716  p :     2.903774
      px      :     1.115753
      py      :     0.848305
      dz2     :     0.016654  d :     0.084472
      dxz     :     0.012469
      dyz     :     0.027649
      dx2y2   :     0.008222
      dxy     :     0.019478
      f0      :     0.000926  f :     0.010242
      f+1     :     0.001219
      f-1     :     0.001465
      f+2     :     0.002346
      f-2     :     0.001188
      f+3     :     0.001744
      f-3     :     0.001353
  6 C s       :     3.186035  s :     3.186035
      pz      :     0.857016  p :     2.468164
      px      :     0.821469
      py      :     0.789678
      dz2     :     0.032399  d :     0.177873
      dxz     :     0.019042
      dyz     :     0.049352
      dx2y2   :     0.022990
      dxy     :     0.054090
      f0      :     0.001428  f :     0.014319
      f+1     :     0.001200
      f-1     :     0.002967
      f+2     :     0.002524
      f-2     :     0.002103
      f+3     :     0.002357
      f-3     :     0.001740
  7 C s       :     3.278361  s :     3.278361
      pz      :     0.902901  p :     2.930115
      px      :     1.010799
      py      :     1.016415
      dz2     :     0.019520  d :     0.068589
      dxz     :     0.013096
      dyz     :     0.010996
      dx2y2   :     0.019425
      dxy     :     0.005552
      f0      :     0.000530  f :     0.004665
      f+1     :     0.001326
      f-1     :     0.000846
      f+2     :     0.000479
      f-2     :     0.000454
      f+3     :     0.000402
      f-3     :     0.000628
  8 N s       :     3.345884  s :     3.345884
      pz      :     1.271668  p :     3.718267
      px      :     1.385977
      py      :     1.060622
      dz2     :     0.011091  d :     0.059445
      dxz     :     0.009329
      dyz     :     0.015017
      dx2y2   :     0.013159
      dxy     :     0.010849
      f0      :     0.000579  f :     0.004959
      f+1     :     0.001017
      f-1     :     0.000456
      f+2     :     0.000969
      f-2     :     0.000962
      f+3     :     0.000444
      f-3     :     0.000532
  9 C s       :     3.160058  s :     3.160058
      pz      :     0.737038  p :     2.352670
      px      :     0.734710
      py      :     0.880922
      dz2     :     0.057257  d :     0.262250
      dxz     :     0.030390
      dyz     :     0.058620
      dx2y2   :     0.059612
      dxy     :     0.056371
      f0      :     0.002428  f :     0.017585
      f+1     :     0.002327
      f-1     :     0.002663
      f+2     :     0.003309
      f-2     :     0.001884
      f+3     :     0.002598
      f-3     :     0.002375
 10 S s       :     5.855113  s :     5.855113
      pz      :     3.645693  p :    10.492056
      px      :     3.577562
      py      :     3.268801
      dz2     :     0.009816  d :     0.084765
      dxz     :     0.004796
      dyz     :     0.026291
      dx2y2   :     0.015755
      dxy     :     0.028108
      f0      :     0.001244  f :     0.010123
      f+1     :     0.000374
      f-1     :     0.001172
      f+2     :     0.001676
      f-2     :     0.001801
      f+3     :     0.002583
      f-3     :     0.001273
 11 N s       :     3.381042  s :     3.381042
      pz      :     1.347447  p :     3.766966
      px      :     1.397164
      py      :     1.022356
      dz2     :     0.007978  d :     0.058228
      dxz     :     0.007764
      dyz     :     0.013389
      dx2y2   :     0.013268
      dxy     :     0.015829
      f0      :     0.000401  f :     0.004428
      f+1     :     0.000517
      f-1     :     0.000588
      f+2     :     0.000723
      f-2     :     0.000670
      f+3     :     0.000820
      f-3     :     0.000708
 12 C s       :     3.119610  s :     3.119610
      pz      :     0.872499  p :     2.644435
      px      :     0.944406
      py      :     0.827529
      dz2     :     0.037715  d :     0.184561
      dxz     :     0.032646
      dyz     :     0.036260
      dx2y2   :     0.030512
      dxy     :     0.047429
      f0      :     0.001298  f :     0.011380
      f+1     :     0.001604
      f-1     :     0.001607
      f+2     :     0.001821
      f-2     :     0.002019
      f+3     :     0.001474
      f-3     :     0.001556
 13 C s       :     3.101575  s :     3.101575
      pz      :     0.892845  p :     2.745411
      px      :     0.906104
      py      :     0.946462
      dz2     :     0.021628  d :     0.109380
      dxz     :     0.011915
      dyz     :     0.029441
      dx2y2   :     0.021783
      dxy     :     0.024614
      f0      :     0.001020  f :     0.011234
      f+1     :     0.001558
      f-1     :     0.001693
[...]
      f-1     :     0.005824
      f+2     :     0.007696
      f-2     :     0.004750
      f+3     :     0.006036
      f-3     :     0.006105
 15 C s       :     2.705743  s :     2.705743
      pz      :     0.934394  p :     2.797353
      px      :     0.903504
      py      :     0.959455
      dz2     :     0.106388  d :     0.414972
      dxz     :     0.073081
      dyz     :     0.078185
      dx2y2   :     0.093998
      dxy     :     0.063320
      f0      :     0.004799  f :     0.040949
      f+1     :     0.006140
      f-1     :     0.006651
      f+2     :     0.007720
      f-2     :     0.005840
      f+3     :     0.005268
      f-3     :     0.004531
 16 C s       :     2.702072  s :     2.702072
      pz      :     0.946171  p :     2.867814
      px      :     0.946140
      py      :     0.975503
      dz2     :     0.060128  d :     0.391038
      dxz     :     0.055825
      dyz     :     0.096807
      dx2y2   :     0.088191
      dxy     :     0.090087
      f0      :     0.003985  f :     0.040299
      f+1     :     0.005023
      f-1     :     0.006124
      f+2     :     0.006438
      f-2     :     0.004819
      f+3     :     0.008230
      f-3     :     0.005680
 17 C s       :     2.701656  s :     2.701656
      pz      :     0.882335  p :     2.684729
      px      :     0.818239
      py      :     0.984154
      dz2     :     0.143413  d :     0.707118
      dxz     :     0.105280
      dyz     :     0.161852
      dx2y2   :     0.145908
      dxy     :     0.150664
      f0      :     0.011565  f :     0.099146
      f+1     :     0.014432
      f-1     :     0.013178
      f+2     :     0.018359
      f-2     :     0.013600
      f+3     :     0.015594
      f-3     :     0.012418
 18 O s       :     3.177345  s :     3.177345
      pz      :     1.360450  p :     4.348959
      px      :     1.468184
      py      :     1.520325
      dz2     :     0.010832  d :     0.075594
      dxz     :     0.015882
      dyz     :     0.022724
      dx2y2   :     0.011382
      dxy     :     0.014774
      f0      :     0.000638  f :     0.005078
      f+1     :     0.000598
      f-1     :     0.000717
      f+2     :     0.000758
      f-2     :     0.001096
      f+3     :     0.000613
      f-3     :     0.000658
 19 C s       :     2.695615  s :     2.695615
      pz      :     0.949020  p :     2.845535
      px      :     0.934120
      py      :     0.962395
      dz2     :     0.092299  d :     0.388642
      dxz     :     0.071717
      dyz     :     0.076059
      dx2y2   :     0.082767
      dxy     :     0.065800
      f0      :     0.004632  f :     0.040829
      f+1     :     0.006705
      f-1     :     0.006438
      f+2     :     0.007472
      f-2     :     0.006265
      f+3     :     0.005146
      f-3     :     0.004172
 20 H s       :     0.851609  s :     0.851609
      pz      :     0.043444  p :     0.151074
      px      :     0.044049
      py      :     0.063581
      dz2     :     0.004197  d :     0.027481
      dxz     :     0.002258
      dyz     :     0.006749
      dx2y2   :     0.006819
      dxy     :     0.007457
 21 H s       :     0.847104  s :     0.847104
      pz      :     0.038908  p :     0.150732
      px      :     0.055178
      py      :     0.056646
      dz2     :     0.002714  d :     0.027382
      dxz     :     0.004321
      dyz     :     0.004437
      dx2y2   :     0.009291
      dxy     :     0.006619
 22 H s       :     0.846968  s :     0.846968
      pz      :     0.048199  p :     0.149832
      px      :     0.060964
      py      :     0.040669
      dz2     :     0.006055  d :     0.027493
      dxz     :     0.006951
      dyz     :     0.002562
      dx2y2   :     0.005197
      dxy     :     0.006727
 23 H s       :     0.859990  s :     0.859990
      pz      :     0.052085  p :     0.145393
      px      :     0.061477
      py      :     0.031831
      dz2     :     0.006486  d :     0.026779
      dxz     :     0.007587
      dyz     :     0.001808
      dx2y2   :     0.004975
      dxy     :     0.005923
 24 H s       :     0.848913  s :     0.848913
      pz      :     0.045454  p :     0.150146
      px      :     0.038140
      py      :     0.066552
      dz2     :     0.004396  d :     0.027301
      dxz     :     0.001950
      dyz     :     0.007456
      dx2y2   :     0.006701
      dxy     :     0.006798
 25 H s       :     0.829864  s :     0.829864
      pz      :     0.058443  p :     0.151237
      px      :     0.044172
      py      :     0.048622
      dz2     :     0.008127  d :     0.027747
      dxz     :     0.006074
      dyz     :     0.006194
      dx2y2   :     0.004601
      dxy     :     0.002751
 26 H s       :     0.843220  s :     0.843220
      pz      :     0.037727  p :     0.150088
      px      :     0.040646
      py      :     0.071715
      dz2     :     0.002745  d :     0.027730
      dxz     :     0.000456
      dyz     :     0.008921
      dx2y2   :     0.006851
      dxy     :     0.008758
 27 H s       :     0.830278  s :     0.830278
      pz      :     0.037267  p :     0.151846
      px      :     0.072794
      py      :     0.041785
      dz2     :     0.002377  d :     0.027794
      dxz     :     0.008635
      dyz     :     0.000243
      dx2y2   :     0.007996
      dxy     :     0.008543
 28 H s       :     0.742567  s :     0.742567
      pz      :     0.069641  p :     0.254181
      px      :     0.074385
      py      :     0.110154
      dz2     :     0.008522  d :     0.061896
      dxz     :     0.002706
      dyz     :     0.018042
      dx2y2   :     0.013811
      dxy     :     0.018815
 29 H s       :     0.747906  s :     0.747906
      pz      :     0.111374  p :     0.253919
      px      :     0.099861
      py      :     0.042684
      dz2     :     0.021379  d :     0.061354
      dxz     :     0.015547
      dyz     :     0.009318
      dx2y2   :     0.008665
      dxy     :     0.006445
 30 H s       :     0.825495  s :     0.825495
      pz      :     0.042088  p :     0.153365
      px      :     0.062042
      py      :     0.049235
      dz2     :     0.003605  d :     0.029212
      dxz     :     0.007064
      dyz     :     0.003618
      dx2y2   :     0.007734
      dxy     :     0.007191
 31 H s       :     0.840630  s :     0.840630
      pz      :     0.053765  p :     0.155795
      px      :     0.059326
      py      :     0.042705
      dz2     :     0.005683  d :     0.027458
      dxz     :     0.006073
      dyz     :     0.004760
      dx2y2   :     0.005485
      dxy     :     0.005457
 32 H s       :     0.843178  s :     0.843178
      pz      :     0.036930  p :     0.151339
      px      :     0.039232
      py      :     0.075177
      dz2     :     0.002951  d :     0.026480
      dxz     :     0.000733
      dyz     :     0.007701
      dx2y2   :     0.007447
      dxy     :     0.007649
 33 H s       :     0.849282  s :     0.849282
      pz      :     0.064428  p :     0.159106
      px      :     0.049455
      py      :     0.045222
      dz2     :     0.007701  d :     0.027765
      dxz     :     0.006073
      dyz     :     0.006561
      dx2y2   :     0.003820
      dxy     :     0.003609
 34 H s       :     0.707070  s :     0.707070
      pz      :     0.123473  p :     0.348119
      px      :     0.091720
      py      :     0.132927
      dz2     :     0.027552  d :     0.099631
      dxz     :     0.016855
      dyz     :     0.024458
      dx2y2   :     0.014909
      dxy     :     0.015858
 35 H s       :     0.839363  s :     0.839363
      pz      :     0.038500  p :     0.156632
      px      :     0.041535
      py      :     0.076596
      dz2     :     0.002965  d :     0.027916
      dxz     :     0.000861
      dyz     :     0.008141
      dx2y2   :     0.007732
      dxy     :     0.008217


                      *****************************
                      * MAYER POPULATION ANALYSIS *
                      *****************************

  NA   - Mulliken gross atomic population
  ZA   - Total nuclear charge
  QA   - Mulliken gross atomic charge
  VA   - Mayer's total valence
  BVA  - Mayer's bonded valence
  FA   - Mayer's free valence

  ATOM       NA         ZA         QA         VA         BVA        FA
  0 C      6.2648     6.0000    -0.2648     3.9005     3.9005    -0.0000
  1 C      5.9743     6.0000     0.0257     3.8547     3.8547    -0.0000
  2 O      8.3573     8.0000    -0.3573     2.0315     2.0315    -0.0000
  3 C      5.5564     6.0000     0.4436     4.2034     4.2034    -0.0000
  4 O      8.4142     8.0000    -0.4142     2.0957     2.0957    -0.0000
  5 C      6.1836     6.0000    -0.1836     3.6432     3.6432     0.0000
  6 C      5.8464     6.0000     0.1536     3.8478     3.8478    -0.0000
  7 C      6.2817     6.0000    -0.2817     3.8902     3.8902    -0.0000
  8 N      7.1286     7.0000    -0.1286     3.2947     3.2947    -0.0000
  9 C      5.7926     6.0000     0.2074     4.1541     4.1541    -0.0000
 10 S     16.4421    16.0000    -0.4421     1.7547     1.7547     0.0000
 11 N      7.2107     7.0000    -0.2107     3.2508     3.2508    -0.0000
 12 C      5.9600     6.0000     0.0400     3.9319     3.9319     0.0000
 13 C      5.9676     6.0000     0.0324     3.7664     3.7664    -0.0000
 14 C      6.1690     6.0000    -0.1690     3.8664     3.8664    -0.0000
 15 C      6.1343     6.0000    -0.1343     3.8048     3.8048    -0.0000
 16 C      6.2772     6.0000    -0.2772     3.7964     3.7964    -0.0000
 17 C      5.6861     6.0000     0.3139     3.8590     3.8590     0.0000
 18 O      8.3591     8.0000    -0.3591     2.1148     2.1148     0.0000
 19 C      6.2516     6.0000    -0.2516     3.8458     3.8458    -0.0000
 20 H      0.9097     1.0000     0.0903     0.9828     0.9828     0.0000
 21 H      0.9083     1.0000     0.0917     0.9841     0.9841     0.0000
 22 H      0.8991     1.0000     0.1009     0.9850     0.9850     0.0000
 23 H      0.9044     1.0000     0.0956     0.9745     0.9745     0.0000
 24 H      0.8836     1.0000     0.1164     0.9868     0.9868    -0.0000
 25 H      0.8735     1.0000     0.1265     0.9811     0.9811     0.0000
 26 H      0.8973     1.0000     0.1027     0.9864     0.9864    -0.0000
 27 H      0.8728     1.0000     0.1272     0.9800     0.9800     0.0000
 28 H      0.8011     1.0000     0.1989     1.0218     1.0218    -0.0000
 29 H      0.8000     1.0000     0.2000     1.0145     1.0145     0.0000
 30 H      0.8443     1.0000     0.1557     0.9921     0.9921     0.0000
 31 H      0.8406     1.0000     0.1594     0.9902     0.9902    -0.0000
 32 H      0.8399     1.0000     0.1601     0.9771     0.9771    -0.0000
 33 H      0.8717     1.0000     0.1283     0.9922     0.9922    -0.0000
 34 H      0.7600     1.0000     0.2400     1.0110     1.0110     0.0000
 35 H      0.8365     1.0000     0.1635     0.9899     0.9899    -0.0000

  Mayer bond orders larger than 0.100000
B(  0-C ,  1-C ) :   0.9759 B(  0-C , 20-H ) :   0.9798 B(  0-C , 21-H ) :   0.9762 
B(  0-C , 22-H ) :   0.9779 B(  1-C ,  2-O ) :   0.8933 B(  1-C , 23-H ) :   0.9757 
B(  1-C , 24-H ) :   0.9736 B(  2-O ,  3-C ) :   1.1092 B(  3-C ,  4-O ) :   2.0062 
B(  3-C ,  5-C ) :   1.0388 B(  5-C ,  6-C ) :   1.6590 B(  5-C , 12-C ) :   0.9471 
B(  6-C ,  7-C ) :   0.9542 B(  6-C ,  8-N ) :   1.1362 B(  7-C , 25-H ) :   0.9654 
B(  7-C , 26-H ) :   0.9910 B(  7-C , 27-H ) :   0.9639 B(  8-N ,  9-C ) :   1.1850 
B(  8-N , 28-H ) :   0.9469 B(  9-C , 10-S ) :   1.6086 B(  9-C , 11-N ) :   1.3062 
B( 11-N , 12-C ) :   0.9761 B( 11-N , 29-H ) :   0.9485 B( 12-C , 13-C ) :   0.9726 
B( 12-C , 30-H ) :   0.9968 B( 13-C , 14-C ) :   1.3772 B( 13-C , 19-C ) :   1.3648 
B( 14-C , 15-C ) :   1.3974 B( 14-C , 31-H ) :   0.9636 B( 15-C , 16-C ) :   1.3588 
B( 15-C , 32-H ) :   0.9711 B( 16-C , 17-C ) :   1.3332 B( 16-C , 33-H ) :   0.9860 
B( 17-C , 18-O ) :   1.1036 B( 17-C , 19-C ) :   1.3676 B( 18-O , 34-H ) :   0.9806 
B( 19-C , 35-H ) :   0.9602 

-------
TIMINGS
-------

Total SCF time: 0 days 1 hours 29 min 21 sec 

Total time                  ....    5361.786 sec
Sum of individual times     ....    5347.820 sec  ( 99.7%)

Fock matrix formation       ....    5302.669 sec  ( 98.9%)
Diagonalization             ....       6.906 sec  (  0.1%)
Density matrix formation    ....       0.330 sec  (  0.0%)
Population analysis         ....       1.163 sec  (  0.0%)
Initial guess               ....       4.517 sec  (  0.1%)
Orbital Transformation      ....       0.000 sec  (  0.0%)
Orbital Orthonormalization  ....       0.000 sec  (  0.0%)
DIIS solution               ....      18.318 sec  (  0.3%)
SOSCF solution              ....      12.844 sec  (  0.2%)

------------------------------------------------------------------------------
                                ORCA  MP2 
------------------------------------------------------------------------------

Freezing NCore=48 chemical core electrons

-------------
RI-MP2 ENERGY
-------------
Dimension of the basis                    ...  828
Memory devoted to MP2                     ...  256 MB   
Data format for buffers                   ... DOUBLE
Compression type for matrix containers    ... UNCOMPRESSED
Overall scaling of the MP2 energy         ...   1.000e+00
Calculating two index integrals           ... done (    0.032 sec)
Cholesky decomposition of V**-1           ... done (    2.169 sec)

-----------------
RI-TRANSFORMATION (AUX index driven)
-----------------

Dimension of the orbital-basis         ... 828
Dimension of the aux-basis             ... 2141
Transformation of internal/external MOs...   24-  76 to   77- 827
Number Format for Storage              ... Double (8 Byte)
Integral mode                          ... Direct

First Phase: integral generation and transformation of MO indices
  Aux angular momentum 0               ... done (   11.363 sec)
  Aux angular momentum 1               ... done (   23.158 sec)
  Aux angular momentum 2               ... done (   30.346 sec)
  Aux angular momentum 3               ... done (   23.066 sec)
  Aux angular momentum 4               ... done (    7.730 sec)
Closing buffer VIA ( 0.63 GB; CompressionRatio= 1.00)
  Phase 1 completed in    96.142 sec
Second Phase: sorting and transformation of aux index

IA-Transformation
Memory available                       ... 167 MB 
Max. # MO pairs treated in a batch     ... 12    
# of internal orbitals                 ... 53
# batches for internal orbitals        ... 5
Closing buffer IAV ( 0.63 GB; CompressionRatio= 1.00)
(ia|v) transformation done in    86.768 sec

  Phase 2 completed in    86.789 sec
RI-Integral transformation completed in   182.958 sec
Opening buffers                              ... done

Starting loop over batches of integrals:

Operator 0  - window                       ... ( 24- 76)x( 77-827)
Operator 0  - Memory available             ...   256 MB
Operator 0  - Memory needed per MO         ...  12.3 MB
Operator 0  - Number of orbitals per batch ... 13
Operator 0  - Number of batches            ... 5

OPERATOR  0   PASS   0:  MOs    24 ...   36
  Reading integrals       ... ok
  Internal MO  26
  Internal MO  29
  Internal MO  32
  Internal MO  35
OPERATOR  0   PASS   1:  MOs    37 ...   49
  Reading integrals       ... ok
  Internal MO  38
  Internal MO  41
  Internal MO  44
  Internal MO  47
OPERATOR  0   PASS   2:  MOs    50 ...   62
  Reading integrals       ... ok
  Internal MO  50
  Internal MO  53
  Internal MO  56
  Internal MO  59
  Internal MO  62
OPERATOR  0   PASS   3:  MOs    63 ...   75
  Reading integrals       ... ok
  Internal MO  65
  Internal MO  68
  Internal MO  71
  Internal MO  74
OPERATOR  0   PASS   4:  MOs    76 ...   76
  Reading integrals       ... ok
Time spent in pair loops =   440.446 sec
Deleting buffer (Ka|jb)[aa] ...done

-----------------------------------------------
 RI-MP2 CORRELATION ENERGY:     -3.527890340 Eh
-----------------------------------------------


-------
TIMINGS
-------

Total time                :  626.428 sec
Integral trafo            :  182.981 sec ( 29.2%)
I/O of integrals          :    8.316 sec (  1.3%)
K(i,j) Operators          :  374.692 sec ( 59.8%)
T(i,j) pair energies      :    3.487 sec (  0.6%)
V-calculation             :    0.032 sec (  0.0%)
V**(-1/2)                 :    2.169 sec (  0.3%)
Gamma(ia|P)               :    0.000 sec (  0.0%)
Gamma-Trafo               :    0.000 sec (  0.0%)
D(virtual)                :    0.000 sec (  0.0%)
D(internal)               :    0.000 sec (  0.0%)
W(virtual)                :    0.000 sec (  0.0%)
W(internal)               :    0.000 sec (  0.0%)
L(virtual)                :    0.000 sec (  0.0%)
L(internal)               :    0.000 sec (  0.0%)
G(D)                      :    0.000 sec (  0.0%)
G(Z)                      :    0.000 sec (  0.0%)
Z-Vector Solution         :    0.000 sec (  0.0%)
3-Index Derivative        :    0.000 sec (  0.0%)
2-Index Derivative        :    0.000 sec (  0.0%)
Separable Gradient        :    0.000 sec (  0.0%)


---------------------------------------
MP2 TOTAL ENERGY:    -1274.334983209 Eh
---------------------------------------

-------------------------   --------------------
FINAL SINGLE POINT ENERGY     -1274.334983209439
-------------------------   --------------------


                            ***************************************
                            *     ORCA property calculations      *
                            ***************************************


  WARNING: The energy has been calculated at the MP2 level but the densities
           used in the property calculations are still SCF densities
           MP2 response densities have not been calculated 
           use %mp2 Density relaxed end
           or  %mp2 Density unrelaxed end

                                    ---------------------
                                    Active property flags
                                    ---------------------
   (+) Dipole Moment


------------------------------------------------------------------------------
                       ORCA ELECTRIC PROPERTIES CALCULATION
------------------------------------------------------------------------------

Dipole Moment Calculation                       ... on
Quadrupole Moment Calculation                   ... off
Polarizability Calculation                      ... off
GBWName                                         ... CONFS/Conf98.orca.gbw
Electron density file                           ... CONFS/Conf98.orca.scfp
The origin for moment calculation is the CENTER OF MASS  = (31.936806, 33.035373 33.613009)

-------------
DIPOLE MOMENT
-------------
                                X             Y             Z
Electronic contribution:     10.36928       9.48058      12.31955
Nuclear contribution   :    -11.93746     -10.74420     -13.16574
                        -----------------------------------------
Total Dipole Moment    :     -1.56818      -1.26363      -0.84619
                        -----------------------------------------
Magnitude (a.u.)       :      2.18449
Magnitude (Debye)      :      5.55253



--------------------
Rotational spectrum 
--------------------
 
Rotational constants in cm-1:     0.009840     0.008872     0.005479 
Rotational constants in MHz :   295.002982   265.965666   164.258680 

 Dipole components along the rotational axes: 
x,y,z [a.u.] :    -1.734490     1.128390    -0.700197 
x,y,z [Debye]:    -4.408722     2.868139    -1.779759 

 

Timings for individual modules:

Sum of individual times         ...     5991.039 sec (=  99.851 min)
GTO integral calculation        ...        1.388 sec (=   0.023 min)   0.0 %
SCF iterations                  ...     5361.891 sec (=  89.365 min)  89.5 %
MP2 module                      ...      627.760 sec (=  10.463 min)  10.5 %
                             ****ORCA TERMINATED NORMALLY****
TOTAL RUN TIME: 0 days 1 hours 39 minutes 52 seconds 401 msec
