
                                 *****************
                                 * O   R   C   A *
                                 *****************

           --- An Ab Initio, DFT and Semiempirical electronic structure package ---

                  #######################################################
                  #                        -***-                        #
                  #          Department of theory and spectroscopy      #
                  #               Directorship: Frank Neese             #
                  #        Max Planck Institute fuer Kohlenforschung    #
                  #                Kaiser Wilhelm Platz 1               #
                  #                 D-45470 Muelheim/Ruhr               #
                  #                      Germany                        #
                  #                                                     #
                  #                  All rights reserved                #
                  #                        -***-                        #
                  #######################################################


                         Program Version 4.2.0 -  RELEASE  -


 With contributions from (in alphabetic order):
   Daniel Aravena         : Magnetic Suceptibility
   Michael Atanasov       : Ab Initio Ligand Field Theory (pilot matlab implementation)
   Alexander A. Auer      : GIAO ZORA, VPT2
   Ute Becker             : Parallelization
   Giovanni Bistoni       : ED, misc. LED, open-shell LED, HFLED
   Martin Brehm           : Molecular dynamics
   Dmytro Bykov           : SCF Hessian
   Vijay G. Chilkuri      : MRCI spin determinant printing, contributions to CSF-ICE
   Dipayan Datta          : RHF DLPNO-CCSD density
   Achintya Kumar Dutta   : EOM-CC, STEOM-CC
   Dmitry Ganyushin       : Spin-Orbit,Spin-Spin,Magnetic field MRCI
   Miquel Garcia          : C-PCM Hessian, Gaussian charge scheme
   Yang Guo               : DLPNO-NEVPT2, CIM, IAO-localization
   Andreas Hansen         : Spin unrestricted coupled pair/coupled cluster methods
   Benjamin Helmich-Paris : CASSCF linear response (MC-RPA)
   Lee Huntington         : MR-EOM, pCC
   Robert Izsak           : Overlap fitted RIJCOSX, COSX-SCS-MP3, EOM
   Christian Kollmar      : KDIIS, OOCD, Brueckner-CCSD(T), CCSD density
   Simone Kossmann        : Meta GGA functionals, TD-DFT gradient, OOMP2, MP2 Hessian
   Martin Krupicka        : AUTO-CI
   Lucas Lang             : DCDCAS
   Dagmar Lenk            : GEPOL surface, SMD
   Dimitrios Liakos       : Extrapolation schemes; Compound Job, initial MDCI parallelization
   Dimitrios Manganas     : Further ROCIS development; embedding schemes
   Dimitrios Pantazis     : SARC Basis sets
   Taras Petrenko         : DFT Hessian,TD-DFT gradient, ASA, ECA, R-Raman, ABS, FL, XAS/XES, NRVS
   Peter Pinski           : DLPNO-MP2, DLPNO-MP2 Gradient
   Christoph Reimann      : Effective Core Potentials
   Marius Retegan         : Local ZFS, SOC
   Christoph Riplinger    : Optimizer, TS searches, QM/MM, DLPNO-CCSD(T), (RO)-DLPNO pert. Triples
   Tobias Risthaus        : Range-separated hybrids, TD-DFT gradient, RPA, STAB
   Michael Roemelt        : Original ROCIS implementation
   Masaaki Saitow         : Open-shell DLPNO-CCSD energy and density
   Barbara Sandhoefer     : DKH picture change effects
   Avijit Sen             : IP-ROCIS
   Kantharuban Sivalingam : CASSCF convergence, NEVPT2, FIC-MRCI
   Bernardo de Souza      : ESD, SOC TD-DFT
   Georgi Stoychev        : AutoAux, RI-MP2 NMR
   Willem Van den Heuvel  : Paramagnetic NMR
   Boris Wezisla          : Elementary symmetry handling
   Frank Wennmohs         : Technical directorship


 We gratefully acknowledge several colleagues who have allowed us to
 interface, adapt or use parts of their codes:
   Stefan Grimme, W. Hujo, H. Kruse,             : VdW corrections, initial TS optimization,
                  C. Bannwarth                     DFT functionals, gCP, sTDA/sTD-DF
   Ed Valeev, F. Pavosevic, A. Kumar             : LibInt (2-el integral package), F12 methods
   Garnet Chan, S. Sharma, J. Yang, R. Olivares  : DMRG
   Ulf Ekstrom                                   : XCFun DFT Library
   Mihaly Kallay                                 : mrcc  (arbitrary order and MRCC methods)
   Andreas Klamt, Michael Diedenhofen            : otool_cosmo (COSMO solvation model)
   Jiri Pittner, Ondrej Demel                    : Mk-CCSD
   Frank Weinhold                                : gennbo (NPA and NBO analysis)
   Christopher J. Cramer and Donald G. Truhlar   : smd solvation model
   Lars Goerigk                                  : TD-DFT with DH, B97 family of functionals
   V. Asgeirsson, H. Jonsson                     : NEB implementation
   FAccTs GmbH                                   : IRC, NEB, NEB-TS, Multilevel, MM, QM/MM, CI optimization
   S Lehtola, MJT Oliveira, MAL Marques          : LibXC Library


 Your calculation uses the libint2 library for the computation of 2-el integrals
 For citations please refer to: http://libint.valeyev.net

 Your ORCA version has been built with support for libXC version: 4.2.3
 For citations please refer to: https://tddft.org/programs/libxc/

 This ORCA versions uses:
   CBLAS   interface :  Fast vector & matrix operations
   LAPACKE interface :  Fast linear algebra routines
   SCALAPACK package :  Parallel linear algebra routines


----- Orbital basis set information -----
Your calculation utilizes the basis: cc-pVTZ 
       H, B-Ne : Obtained from the ccRepo (grant-hill.group.shef.ac.uk/ccrepo) Feb. 2017
                 T. H. Dunning, Jr., J. Chem. Phys. 90, 1007 (1989)
            He : Obtained from the ccRepo (grant-hill.group.shef.ac.uk/ccrepo) Feb. 2017
                 D. E. Woon, T. H. Dunning, Jr., J. Chem. Phys. 100, 2975 (1994)
  Li-Be, Na-Mg : Obtained from the ccRepo (grant-hill.group.shef.ac.uk/ccrepo) Feb. 2017
                 B. P. Prascher, D. E. Woon, K. A. Peterson, T. H. Dunning, Jr., A. K. Wilson, Theor. Chem. Acc. 128, 69 (2011)
         Al-Ar : Obtained from the ccRepo (grant-hill.group.shef.ac.uk/ccrepo) Feb. 2017
                 D. E. Woon, T. H. Dunning, Jr., J. Chem. Phys. 98, 1358 (1993)
            Ca : Obtained from the Peterson Research Group Website (tyr0.chem.wsu.edu/~kipeters) Feb. 2017
                 J. Koput, K. A. Peterson, J. Phys. Chem. 106, 9595 (2002)
         Sc-Zn : Obtained from the ccRepo (grant-hill.group.shef.ac.uk/ccrepo) Feb. 2017
                 N. B. Balabanov, K. A. Peterson, J. Chem. Phys. 123, 064107 (2005)
                 N. B. Balabanov, K. A. Peterson, J. Chem. Phys. 125, 074110 (2006)
         Ga-Kr : Obtained from the ccRepo (grant-hill.group.shef.ac.uk/ccrepo) Feb. 2017
                 A. K. Wilson, D. E. Woon, K. A. Peterson, T. H. Dunning, Jr., J. Chem. Phys. 110, 7667 (1999)
             Y : Obtained from the ccRepo (grant-hill.group.shef.ac.uk/ccrepo) Feb. 2017
                 K. A. Peterson, D. Figgen, M. Dolg, H. Stoll, J. Chem. Phys. 126, 124101 (2007)
        Ag, Au : Obtained from the Peterson Research Group Website (tyr0.chem.wsu.edu/~kipeters) Feb. 2017
                 K. A. Peterson, C. Puzzarini, Theor. Chem. Acc. 114, 283 (2005)

----- AuxC basis set information -----
Your calculation utilizes the auxiliary basis: cc-pVTZ/C 
  Obtained from the EMSL Basis Set Exchange (bse.pnl.gov) Feb. 2017
  H-He, B-F, Al-Ar, Ga-Kr : F. Weigend, A. Kohn, C. Hattig, J. Chem. Phys. 116, 3175 (2002)
             Li-Be, Na-Mg : C. Haettig, Phys. Chem. Chem. Phys. 7, 59 (2005)
                       Ne : C. Haettig, Phys. Chem. Chem. Phys. 7, 59 (2005)
                            F. Weigend, A. Kohn, C. Hattig, J. Chem. Phys. 116, 3175 (2002)
                    Sc-Zn : J. G. Hill, J. A. Platts, J. Chem. Phys. 128, 044104 (2008)

================================================================================
                                        WARNINGS
                       Please study these warnings very carefully!
================================================================================


WARNING: No MP2 level density has been requested!
         To caclulate MP2 level properties use
         %mp2 Density relaxed end
         or
         %mp2 Density unrelaxed end

WARNING: Post HF methods need fully converged wavefunctions
  ===> : Setting SCFConvForced true
         You can overwrite this default with %scf ConvForced false 


INFO   : the flag for use of LIBINT has been found!

================================================================================
                                       INPUT FILE
================================================================================
NAME = CONFS/Conf600.orca
|  1> ! ri-mp2 cc-pvtz cc-pvtz/c TightSCF NoKeepInts
|  2> 
|  3> %scf
|  4>   MaxCore 4096
|  5> end
|  6> *xyz  0  1
|  7>     C       14.4386973   16.4643344   16.1004546
|  8>     C       15.1413723   15.7961966   14.8988220
|  9>     O       16.4423232   16.3351240   14.5519340
| 10>     C       17.4346299   16.5674621   15.4665205
| 11>     O       18.4115543   15.8429863   15.5202075
| 12>     C       17.1916025   17.6589799   16.4612081
| 13>     C       16.7954621   18.8853977   16.0379569
| 14>     C       16.3695101   19.2680891   14.6332303
| 15>     N       16.8611069   19.9905174   16.8893396
| 16>     C       17.5398429   20.0052477   18.0789019
| 17>     S       17.6821464   21.3816250   18.9844106
| 18>     N       18.1204191   18.8229056   18.4662737
| 19>     C       17.9250509   17.5202633   17.7987842
| 20>     C       17.3484468   16.4342965   18.6967071
| 21>     C       17.8898167   15.1363893   18.6795310
| 22>     C       17.3517756   14.1264974   19.4944786
| 23>     C       16.2620989   14.4167069   20.3332329
| 24>     C       15.7186354   15.7085020   20.3505482
| 25>     O       14.6609467   15.9894862   21.1524215
| 26>     C       16.2560778   16.7118315   19.5378437
| 27>     H       14.9753840   16.2689424   17.0353886
| 28>     H       13.4319556   16.0451055   16.2184590
| 29>     H       14.3271401   17.5446407   15.9638334
| 30>     H       15.2562575   14.7271697   15.1231105
| 31>     H       14.4879608   15.8705157   14.0199500
| 32>     H       15.3850853   18.8564933   14.3848237
| 33>     H       17.0847308   18.8883439   13.8921530
| 34>     H       16.3168479   20.3546112   14.4915676
| 35>     H       16.4717257   20.8738239   16.6004223
| 36>     H       18.6111321   18.8589021   19.3510333
| 37>     H       18.9677314   17.2816685   17.5412235
| 38>     H       18.7263781   14.9078870   18.0222636
| 39>     H       17.7781451   13.1250223   19.4704500
| 40>     H       15.8427776   13.6390648   20.9630549
| 41>     H       14.4636861   15.1904490   21.6640988
| 42>     H       15.8185463   17.7045212   19.5633607
| 43> *
| 44> 
| 45>                          ****END OF INPUT****
================================================================================

                       ****************************
                       * Single Point Calculation *
                       ****************************

---------------------------------
CARTESIAN COORDINATES (ANGSTROEM)
---------------------------------
  C     14.438697   16.464334   16.100455
  C     15.141372   15.796197   14.898822
  O     16.442323   16.335124   14.551934
  C     17.434630   16.567462   15.466520
  O     18.411554   15.842986   15.520207
  C     17.191602   17.658980   16.461208
  C     16.795462   18.885398   16.037957
  C     16.369510   19.268089   14.633230
  N     16.861107   19.990517   16.889340
  C     17.539843   20.005248   18.078902
  S     17.682146   21.381625   18.984411
  N     18.120419   18.822906   18.466274
  C     17.925051   17.520263   17.798784
  C     17.348447   16.434296   18.696707
  C     17.889817   15.136389   18.679531
  C     17.351776   14.126497   19.494479
  C     16.262099   14.416707   20.333233
  C     15.718635   15.708502   20.350548
  O     14.660947   15.989486   21.152421
  C     16.256078   16.711831   19.537844
  H     14.975384   16.268942   17.035389
  H     13.431956   16.045105   16.218459
  H     14.327140   17.544641   15.963833
  H     15.256258   14.727170   15.123110
  H     14.487961   15.870516   14.019950
  H     15.385085   18.856493   14.384824
  H     17.084731   18.888344   13.892153
  H     16.316848   20.354611   14.491568
  H     16.471726   20.873824   16.600422
  H     18.611132   18.858902   19.351033
  H     18.967731   17.281668   17.541224
  H     18.726378   14.907887   18.022264
  H     17.778145   13.125022   19.470450
  H     15.842778   13.639065   20.963055
  H     14.463686   15.190449   21.664099
  H     15.818546   17.704521   19.563361

----------------------------
CARTESIAN COORDINATES (A.U.)
----------------------------
  NO LB      ZA    FRAG     MASS         X           Y           Z
   0 C     6.0000    0    12.011   27.285184   31.113083   30.425450
   1 C     6.0000    0    12.011   28.613047   29.850486   28.154693
   2 O     8.0000    0    15.999   31.071488   30.868911   27.499170
   3 C     6.0000    0    12.011   32.946676   31.307966   29.227488
   4 O     8.0000    0    15.999   34.792795   29.938905   29.328942
   5 C     6.0000    0    12.011   32.487421   33.370636   31.107175
   6 C     6.0000    0    12.011   31.738824   35.688230   30.307346
   7 C     6.0000    0    12.011   30.933891   36.411412   27.652798
   8 N     7.0000    0    14.007   31.862874   37.776603   31.916226
   9 C     6.0000    0    12.011   33.145500   37.804439   34.164173
  10 S    16.0000    0    32.060   33.414414   40.405416   35.875337
  11 N     7.0000    0    14.007   34.242630   35.570137   34.896200
  12 C     6.0000    0    12.011   33.873437   33.108499   33.634828
  13 C     6.0000    0    12.011   32.783813   31.056320   35.331656
  14 C     6.0000    0    12.011   33.806854   28.603630   35.299198
  15 C     6.0000    0    12.011   32.790104   26.695211   36.839226
  16 C     6.0000    0    12.011   30.730913   27.243628   38.424242
  17 C     6.0000    0    12.011   29.703916   29.684767   38.456963
  18 O     8.0000    0    15.999   27.705174   30.215750   39.972284
  19 C     6.0000    0    12.011   30.719535   31.580785   36.921174
  20 H     1.0000    0     1.008   28.299375   30.743846   32.192219
  21 H     1.0000    0     1.008   25.382718   30.320855   30.648446
  22 H     1.0000    0     1.008   27.074371   33.154566   30.167273
  23 H     1.0000    0     1.008   28.830149   27.830317   28.578537
  24 H     1.0000    0     1.008   27.378278   29.990928   26.493866
  25 H     1.0000    0     1.008   29.073598   35.633608   27.183377
  26 H     1.0000    0     1.008   32.285462   35.693797   26.252365
  27 H     1.0000    0     1.008   30.834374   38.464641   27.385094
  28 H     1.0000    0     1.008   31.127051   39.445811   31.370252
  29 H     1.0000    0     1.008   35.169943   35.638160   36.568153
  30 H     1.0000    0     1.008   35.843818   32.657621   33.148108
  31 H     1.0000    0     1.008   35.387726   28.171824   34.057143
  32 H     1.0000    0     1.008   33.595825   24.802698   36.793818
  33 H     1.0000    0     1.008   29.938511   25.774097   39.614433
  34 H     1.0000    0     1.008   27.332406   28.705788   40.939214
  35 H     1.0000    0     1.008   29.892720   33.456696   36.969394

--------------------------------
INTERNAL COORDINATES (ANGSTROEM)
--------------------------------
 C      0   0   0     0.000000000000     0.00000000     0.00000000
 C      1   0   0     1.544047013791     0.00000000     0.00000000
 O      2   1   0     1.450257656841   115.69493968     0.00000000
 C      3   2   1     1.369350957775   123.59687643    47.88683124
 O      4   3   2     1.217427107498   120.66276551   106.70500150
 C      4   3   2     1.496621811434   116.74183925   292.32855982
 C      6   4   3     1.356528442374   119.96162204   309.42374204
 C      7   6   4     1.516952416751   126.79875963     9.08985076
 N      7   6   4     1.396585583827   120.76183494   194.96743739
 C      9   7   6     1.369656163063   124.14317059    12.97034876
 S     10   9   7     1.653665856164   121.81457173   174.97558114
 N     10   9   7     1.372974317631   116.44446489   356.31322222
 C     12  10   9     1.476681390121   125.18239590   351.74772392
 C     13  12  10     1.522518214401   114.37622192   239.06685715
 C     14  13  12     1.406392365895   120.34902247   224.55070804
 C     15  14  13     1.404816523864   120.59137994   180.74335228
 C     16  15  14     1.405391632315   119.65186064     0.05056402
 C     17  16  15     1.401565901351   119.89054774     0.08051794
 O     18  17  16     1.356708626054   120.03186222   179.55349812
 C     18  17  16     1.398571779784   120.33295659   359.93828628
 H      1   2   3     1.095587619489   111.34698289   292.92073270
 H      1   2   3     1.096907817245   109.63450576   174.91279772
 H      1   2   3     1.094610461754   112.10532456    55.87689022
 H      2   1   3     1.098327115815   108.05043792   121.76669386
 H      2   1   3     1.097672951904   108.83911226   237.57249211
 H      8   7   6     1.095540564450   111.56170095    72.28115317
 H      8   7   6     1.097698788925   110.78996299   312.42284291
 H      8   7   6     1.096983090876   112.51562123   193.12133562
 H      9   7   6     1.007631528931   120.04690889   186.69703207
 H     12  10   9     1.012370755293   114.89293306   180.34148827
 H     13  12  10     1.100203443847    99.88895690   121.65013004
 H     15  14  13     1.088140024160   119.80898425     0.11288595
 H     16  15  14     1.088724345309   119.89910074   179.85284688
 H     17  16  15     1.085003843316   119.87355311   179.90930414
 H     19  18  17     0.969116015053   107.45675469     3.16496587
 H     20  18  17     1.085134909247   119.18764119   179.78176501

---------------------------
INTERNAL COORDINATES (A.U.)
---------------------------
 C      0   0   0     0.000000000000     0.00000000     0.00000000
 C      1   0   0     2.917825993964     0.00000000     0.00000000
 O      2   1   0     2.740589795052   115.69493968     0.00000000
 C      3   2   1     2.587698291417   123.59687643    47.88683124
 O      4   3   2     2.300603821182   120.66276551   106.70500150
 C      4   3   2     2.828205349664   116.74183925   292.32855982
 C      6   4   3     2.563467248962   119.96162204   309.42374204
 C      7   6   4     2.866624625849   126.79875963     9.08985076
 N      7   6   4     2.639164276016   120.76183494   194.96743739
 C      9   7   6     2.588275045826   124.14317059    12.97034876
 S     10   9   7     3.124975585167   121.81457173   174.97558114
 N     10   9   7     2.594545449230   116.44446489   356.31322222
 C     12  10   9     2.790523414388   125.18239590   351.74772392
 C     13  12  10     2.877142459125   114.37622192   239.06685715
 C     14  13  12     2.657696408380   120.34902247   224.55070804
 C     15  14  13     2.654718498510   120.59137994   180.74335228
 C     16  15  14     2.655805295980   119.65186064     0.05056402
 C     17  16  15     2.648575712196   119.89054774     0.08051794
 O     18  17  16     2.563807746771   120.03186222   179.55349812
 C     18  17  16     2.642917642423   120.33295659   359.93828628
 H      1   2   3     2.070360556548   111.34698289   292.92073270
 H      1   2   3     2.072855368751   109.63450576   174.91279772
 H      1   2   3     2.068513996040   112.10532456    55.87689022
 H      2   1   3     2.075537454350   108.05043792   121.76669386
 H      2   1   3     2.074301263711   108.83911226   237.57249211
 H      8   7   6     2.070271635413   111.56170095    72.28115317
 H      8   7   6     2.074350088605   110.78996299   312.42284291
 H      8   7   6     2.072997615299   112.51562123   193.12133562
 H      9   7   6     1.904147633583   120.04690889   186.69703207
 H     12  10   9     1.913103473496   114.89293306   180.34148827
 H     13  12  10     2.079083200467    99.88895690   121.65013004
 H     15  14  13     2.056286641020   119.80898425     0.11288595
 H     16  15  14     2.057390847966   119.89910074   179.85284688
 H     17  16  15     2.050360118119   119.87355311   179.90930414
 H     19  18  17     1.831363860447   107.45675469     3.16496587
 H     20  18  17     2.050607796835   119.18764119   179.78176501

---------------------
BASIS SET INFORMATION
---------------------
There are 5 groups of distinct atoms

 Group   1 Type C   : 18s5p2d1f contracted to 4s3p2d1f pattern {8811/311/11/1}
 Group   2 Type O   : 18s5p2d1f contracted to 4s3p2d1f pattern {8811/311/11/1}
 Group   3 Type N   : 18s5p2d1f contracted to 4s3p2d1f pattern {8811/311/11/1}
 Group   4 Type S   : 41s16p2d1f contracted to 5s4p2d1f pattern {13131311/7711/11/1}
 Group   5 Type H   : 5s2p1d contracted to 3s2p1d pattern {311/11/1}

Atom   0C    basis set group =>   1
Atom   1C    basis set group =>   1
Atom   2O    basis set group =>   2
Atom   3C    basis set group =>   1
Atom   4O    basis set group =>   2
Atom   5C    basis set group =>   1
Atom   6C    basis set group =>   1
Atom   7C    basis set group =>   1
Atom   8N    basis set group =>   3
Atom   9C    basis set group =>   1
Atom  10S    basis set group =>   4
Atom  11N    basis set group =>   3
Atom  12C    basis set group =>   1
Atom  13C    basis set group =>   1
Atom  14C    basis set group =>   1
Atom  15C    basis set group =>   1
Atom  16C    basis set group =>   1
Atom  17C    basis set group =>   1
Atom  18O    basis set group =>   2
Atom  19C    basis set group =>   1
Atom  20H    basis set group =>   5
Atom  21H    basis set group =>   5
Atom  22H    basis set group =>   5
Atom  23H    basis set group =>   5
Atom  24H    basis set group =>   5
Atom  25H    basis set group =>   5
Atom  26H    basis set group =>   5
Atom  27H    basis set group =>   5
Atom  28H    basis set group =>   5
Atom  29H    basis set group =>   5
Atom  30H    basis set group =>   5
Atom  31H    basis set group =>   5
Atom  32H    basis set group =>   5
Atom  33H    basis set group =>   5
Atom  34H    basis set group =>   5
Atom  35H    basis set group =>   5
---------------------------------
AUXILIARY/C BASIS SET INFORMATION
---------------------------------
There are 5 groups of distinct atoms

 Group   1 Type C   : 8s6p5d3f1g contracted to 8s6p5d3f1g pattern {11111111/111111/11111/111/1}
 Group   2 Type O   : 8s6p5d3f1g contracted to 8s6p5d3f1g pattern {11111111/111111/11111/111/1}
 Group   3 Type N   : 8s6p5d3f1g contracted to 8s6p5d3f1g pattern {11111111/111111/11111/111/1}
 Group   4 Type S   : 10s8p7d5f2g contracted to 10s8p7d5f2g pattern {1111111111/11111111/1111111/11111/11}
 Group   5 Type H   : 4s3p2d1f contracted to 4s3p2d1f pattern {1111/111/11/1}

Atom   0C    basis set group =>   1
Atom   1C    basis set group =>   1
Atom   2O    basis set group =>   2
Atom   3C    basis set group =>   1
Atom   4O    basis set group =>   2
Atom   5C    basis set group =>   1
Atom   6C    basis set group =>   1
Atom   7C    basis set group =>   1
Atom   8N    basis set group =>   3
Atom   9C    basis set group =>   1
Atom  10S    basis set group =>   4
Atom  11N    basis set group =>   3
Atom  12C    basis set group =>   1
Atom  13C    basis set group =>   1
Atom  14C    basis set group =>   1
Atom  15C    basis set group =>   1
Atom  16C    basis set group =>   1
Atom  17C    basis set group =>   1
Atom  18O    basis set group =>   2
Atom  19C    basis set group =>   1
Atom  20H    basis set group =>   5
Atom  21H    basis set group =>   5
Atom  22H    basis set group =>   5
Atom  23H    basis set group =>   5
Atom  24H    basis set group =>   5
Atom  25H    basis set group =>   5
Atom  26H    basis set group =>   5
Atom  27H    basis set group =>   5
Atom  28H    basis set group =>   5
Atom  29H    basis set group =>   5
Atom  30H    basis set group =>   5
Atom  31H    basis set group =>   5
Atom  32H    basis set group =>   5
Atom  33H    basis set group =>   5
Atom  34H    basis set group =>   5
Atom  35H    basis set group =>   5
------------------------------------------------------------------------------
                           ORCA GTO INTEGRAL CALCULATION
------------------------------------------------------------------------------

                         BASIS SET STATISTICS AND STARTUP INFO

 # of primitive gaussian shells          ...  682
 # of primitive gaussian functions       ... 1312
 # of contracted shells                  ...  298
 # of contracted basis functions         ...  828
 Highest angular momentum                ...    3
 Maximum contraction depth               ...   13
 Integral package used                   ... LIBINT
 Integral threshhold            Thresh   ...  2.500e-11
 Primitive cut-off              TCut     ...  2.500e-12


------------------------------ INTEGRAL EVALUATION ----------------------------


 * One electron integrals 
 Pre-screening matrix                    ... done
 Shell pair data                         ... done (   0.012 sec)

-------------------------------------------------------------------------------
                                 ORCA SCF
-------------------------------------------------------------------------------

------------
SCF SETTINGS
------------
Hamiltonian:
 Ab initio Hamiltonian  Method          .... Hartree-Fock(GTOs)


General Settings:
 Integral files         IntName         .... CONFS/Conf600.orca
 Hartree-Fock type      HFTyp           .... RHF
 Total Charge           Charge          ....    0
 Multiplicity           Mult            ....    1
 Number of Electrons    NEL             ....  154
 Basis Dimension        Dim             ....  828
 Nuclear Repulsion      ENuc            ....   1717.2191436542 Eh

Convergence Acceleration:
 DIIS                   CNVDIIS         .... on
   Start iteration      DIISMaxIt       ....    12
   Startup error        DIISStart       ....  0.200000
   # of expansion vecs  DIISMaxEq       ....     5
   Bias factor          DIISBfac        ....   1.050
   Max. coefficient     DIISMaxC        ....  10.000
 Newton-Raphson         CNVNR           .... off
 SOSCF                  CNVSOSCF        .... on
   Start iteration      SOSCFMaxIt      ....   150
   Startup grad/error   SOSCFStart      ....  0.003300
 Level Shifting         CNVShift        .... on
   Level shift para.    LevelShift      ....    0.2500
   Turn off err/grad.   ShiftErr        ....    0.0010
 Zerner damping         CNVZerner       .... off
 Static damping         CNVDamp         .... on
   Fraction old density DampFac         ....    0.7000
   Max. Damping (<1)    DampMax         ....    0.9800
   Min. Damping (>=0)   DampMin         ....    0.0000
   Turn off err/grad.   DampErr         ....    0.1000
 Fernandez-Rico         CNVRico         .... off

SCF Procedure:
 Maximum # iterations   MaxIter         ....   125
 SCF integral mode      SCFMode         .... Direct
   Integral package                     .... LIBINT
 Reset frequency        DirectResetFreq ....    20
 Integral Threshold     Thresh          ....  2.500e-11 Eh
 Primitive CutOff       TCut            ....  2.500e-12 Eh

Convergence Tolerance:
 Convergence Check Mode ConvCheckMode   .... Total+1el-Energy
 Convergence forced     ConvForced      .... 1
 Energy Change          TolE            ....  1.000e-08 Eh
 1-El. energy change                    ....  1.000e-05 Eh
 Orbital Gradient       TolG            ....  1.000e-05
 Orbital Rotation angle TolX            ....  1.000e-05
 DIIS Error             TolErr          ....  5.000e-07


Diagonalization of the overlap matrix:
Smallest eigenvalue                        ... 3.325e-05
Time for diagonalization                   ...    0.280 sec
Threshold for overlap eigenvalues          ... 1.000e-08
Number of eigenvalues below threshold      ... 0
Time for construction of square roots      ...    0.247 sec
Total time needed                          ...    0.528 sec

-------------------
DFT GRID GENERATION
-------------------

General Integration Accuracy     IntAcc      ...  4.340
Radial Grid Type                 RadialGrid  ... Gauss-Chebyshev
Angular Grid (max. acc.)         AngularGrid ... Lebedev-110
Angular grid pruning method      GridPruning ... 3 (G Style)
Weight generation scheme         WeightScheme... Becke
Basis function cutoff            BFCut       ...    1.0000e-11
Integration weight cutoff        WCut        ...    1.0000e-14
Grids for H and He will be reduced by one unit

# of grid points (after initial pruning)     ...  46246 (   0.0 sec)
# of grid points (after weights+screening)   ...  41185 (   0.3 sec)
nearest neighbour list constructed           ...    0.0 sec
Grid point re-assignment to atoms done       ...    0.0 sec
Grid point division into batches done        ...    0.0 sec
Reduced shell lists constructed in    0.8 sec

Total number of grid points                  ...    41185
Total number of batches                      ...      660
Average number of points per batch           ...       62
Average number of grid points per atom       ...     1144
Average number of shells per batch           ...   152.60 (51.21%)
Average number of basis functions per batch  ...   388.16 (46.88%)
Average number of large shells per batch     ...    98.40 (64.48%)
Average number of large basis fcns per batch ...   251.63 (64.83%)
Maximum spatial batch extension              ...  24.71, 20.05, 21.14 au
Average spatial batch extension              ...   3.49,  3.34,  3.34 au

Time for grid setup =    1.092 sec

------------------------------
INITIAL GUESS: MODEL POTENTIAL
------------------------------
Loading Hartree-Fock densities                     ... done
Calculating cut-offs                               ... done
Setting up the integral package                    ... done
Initializing the effective Hamiltonian             ... done
Starting the Coulomb interaction                   ... done (   3.0 sec)
Reading the grid                                   ... done
Mapping shells                                     ... done
Starting the XC term evaluation                    ... done (   1.1 sec)
Transforming the Hamiltonian                       ... done (   0.2 sec)
Diagonalizing the Hamiltonian                      ... done (   0.3 sec)
Back transforming the eigenvectors                 ... done (   0.1 sec)
Now organizing SCF variables                       ... done
                      ------------------
                      INITIAL GUESS DONE (   5.9 sec)
                      ------------------
--------------
SCF ITERATIONS
--------------
ITER       Energy         Delta-E        Max-DP      RMS-DP      [F,P]     Damp
               ***  Starting incremental Fock matrix formation  ***
  0  -1269.9944236951   0.000000000000 0.04931150  0.00043491  0.3020892 0.7000
  1  -1270.2591154119  -0.264691716860 0.03608112  0.00035065  0.1750267 0.7000
                               ***Turning on DIIS***
  2  -1270.4245295039  -0.165414091983 0.02584035  0.00023438  0.1097259 0.7000
  3  -1272.5537560534  -2.129226549467 0.06316205  0.00050577  0.0828681 0.0000
  4  -1270.7326435206   1.821112532718 0.01305808  0.00010024  0.0069112 0.0000
  5  -1270.7892963621  -0.056652841495 0.00509923  0.00005237  0.0038590 0.0000
                      *** Initiating the SOSCF procedure ***
                           *** Shutting down DIIS ***
                      *** Re-Reading the Fockian *** 
                      *** Removing any level shift *** 
ITER      Energy       Delta-E        Grad      Rot      Max-DP    RMS-DP
  6  -1270.76914592   0.0201504447  0.001733  0.001733  0.002558  0.000027
               *** Restarting incremental Fock matrix formation ***
  7  -1270.78441914  -0.0152732217  0.001010  0.002562  0.001481  0.000017
  8  -1270.78446877  -0.0000496281  0.000456  0.003051  0.001864  0.000019
  9  -1270.78448828  -0.0000195174  0.000147  0.000296  0.000375  0.000005
 10  -1270.78449081  -0.0000025265  0.000048  0.000131  0.000127  0.000001
 11  -1270.78449106  -0.0000002453  0.000021  0.000124  0.000081  0.000001
 12  -1270.78449112  -0.0000000671  0.000010  0.000037  0.000027  0.000000
 13  -1270.78449113  -0.0000000065  0.000003  0.000009  0.000005  0.000000
                  ***Gradient check signals convergence***
              ***Rediagonalizing the Fockian in SOSCF/NRSCF***

               *****************************************************
               *                     SUCCESS                       *
               *           SCF CONVERGED AFTER  14 CYCLES          *
               *****************************************************


----------------
TOTAL SCF ENERGY
----------------

Total Energy       :        -1270.78449113 Eh          -34579.80401 eV

Components:
Nuclear Repulsion  :         1717.21914365 Eh           46727.90850 eV
Electronic Energy  :        -2988.00363478 Eh          -81307.71251 eV
One Electron Energy:        -5155.31515569 Eh         -140283.25725 eV
Two Electron Energy:         2167.31152091 Eh           58975.54474 eV

Virial components:
Potential Energy   :        -2539.77981595 Eh          -69110.92232 eV
Kinetic Energy     :         1268.99532482 Eh           34531.11832 eV
Virial Ratio       :            2.00140991


---------------
SCF CONVERGENCE
---------------

  Last Energy change         ...    4.1059e-09  Tolerance :   1.0000e-08
  Last MAX-Density change    ...    3.0290e-06  Tolerance :   1.0000e-07
  Last RMS-Density change    ...    3.6472e-08  Tolerance :   5.0000e-09
  Last Orbital Gradient      ...    1.1240e-06  Tolerance :   1.0000e-05
  Last Orbital Rotation      ...    3.3440e-06  Tolerance :   1.0000e-05

             **** THE GBW FILE WAS UPDATED (CONFS/Conf600.orca.gbw) ****
             **** DENSITY FILE WAS UPDATED (CONFS/Conf600.orca.scfp) ****
             **** ENERGY FILE WAS UPDATED (CONFS/Conf600.orca.en.tmp) ****
             **** THE GBW FILE WAS UPDATED (CONFS/Conf600.orca.gbw) ****
             **** DENSITY FILE WAS UPDATED (CONFS/Conf600.orca.scfp) ****
----------------
ORBITAL ENERGIES
----------------

  NO   OCC          E(Eh)            E(eV) 
   0   2.0000     -91.890059     -2500.4556 
   1   2.0000     -20.597811      -560.4949 
   2   2.0000     -20.588867      -560.2516 
   3   2.0000     -20.552522      -559.2626 
   4   2.0000     -15.629452      -425.2990 
   5   2.0000     -15.608551      -424.7303 
   6   2.0000     -11.395937      -310.0992 
   7   2.0000     -11.385183      -309.8066 
   8   2.0000     -11.335442      -308.4531 
   9   2.0000     -11.314755      -307.8901 
  10   2.0000     -11.310416      -307.7721 
  11   2.0000     -11.307846      -307.7021 
  12   2.0000     -11.262982      -306.4813 
  13   2.0000     -11.262229      -306.4608 
  14   2.0000     -11.259565      -306.3883 
  15   2.0000     -11.254894      -306.2612 
  16   2.0000     -11.244226      -305.9710 
  17   2.0000     -11.240128      -305.8594 
  18   2.0000     -11.236724      -305.7668 
  19   2.0000     -11.234873      -305.7164 
  20   2.0000      -8.895144      -242.0492 
  21   2.0000      -6.576720      -178.9617 
  22   2.0000      -6.574716      -178.9071 
  23   2.0000      -6.574127      -178.8911 
  24   2.0000      -1.445107       -39.3234 
  25   2.0000      -1.417586       -38.5745 
  26   2.0000      -1.356819       -36.9209 
  27   2.0000      -1.341168       -36.4950 
  28   2.0000      -1.238881       -33.7117 
  29   2.0000      -1.158760       -31.5315 
  30   2.0000      -1.124221       -30.5916 
  31   2.0000      -1.046384       -28.4736 
  32   2.0000      -1.037632       -28.2354 
  33   2.0000      -1.016676       -27.6651 
  34   2.0000      -1.003613       -27.3097 
  35   2.0000      -0.989598       -26.9283 
  36   2.0000      -0.925256       -25.1775 
  37   2.0000      -0.897627       -24.4257 
  38   2.0000      -0.850887       -23.1538 
  39   2.0000      -0.840484       -22.8707 
  40   2.0000      -0.834467       -22.7070 
  41   2.0000      -0.824275       -22.4297 
  42   2.0000      -0.749742       -20.4015 
  43   2.0000      -0.734912       -19.9980 
  44   2.0000      -0.728907       -19.8346 
  45   2.0000      -0.695181       -18.9168 
  46   2.0000      -0.687639       -18.7116 
  47   2.0000      -0.675928       -18.3929 
  48   2.0000      -0.673441       -18.3252 
  49   2.0000      -0.665256       -18.1025 
  50   2.0000      -0.652696       -17.7608 
  51   2.0000      -0.649595       -17.6764 
  52   2.0000      -0.639328       -17.3970 
  53   2.0000      -0.614092       -16.7103 
  54   2.0000      -0.603410       -16.4196 
  55   2.0000      -0.602394       -16.3920 
  56   2.0000      -0.601575       -16.3697 
  57   2.0000      -0.587379       -15.9834 
  58   2.0000      -0.576525       -15.6880 
  59   2.0000      -0.569974       -15.5098 
  60   2.0000      -0.563224       -15.3261 
  61   2.0000      -0.554373       -15.0853 
  62   2.0000      -0.547379       -14.8949 
  63   2.0000      -0.529712       -14.4142 
  64   2.0000      -0.521639       -14.1945 
  65   2.0000      -0.512614       -13.9489 
  66   2.0000      -0.500133       -13.6093 
  67   2.0000      -0.488906       -13.3038 
  68   2.0000      -0.486824       -13.2471 
  69   2.0000      -0.466845       -12.7035 
  70   2.0000      -0.459414       -12.5013 
  71   2.0000      -0.449953       -12.2438 
  72   2.0000      -0.354612        -9.6495 
  73   2.0000      -0.348730        -9.4894 
  74   2.0000      -0.329324        -8.9614 
  75   2.0000      -0.322346        -8.7715 
  76   2.0000      -0.319423        -8.6919 
  77   0.0000       0.075756         2.0614 
  78   0.0000       0.105347         2.8666 
  79   0.0000       0.118076         3.2130 
  80   0.0000       0.129338         3.5195 
  81   0.0000       0.131429         3.5764 
  82   0.0000       0.141619         3.8536 
  83   0.0000       0.151695         4.1278 
  84   0.0000       0.157931         4.2975 
  85   0.0000       0.159998         4.3538 
  86   0.0000       0.169493         4.6121 
  87   0.0000       0.172468         4.6931 
  88   0.0000       0.189154         5.1471 
  89   0.0000       0.196921         5.3585 
  90   0.0000       0.200900         5.4668 
  91   0.0000       0.206024         5.6062 
  92   0.0000       0.208503         5.6737 
  93   0.0000       0.211590         5.7577 
  94   0.0000       0.220911         6.0113 
  95   0.0000       0.235904         6.4193 
  96   0.0000       0.242753         6.6057 
  97   0.0000       0.246264         6.7012 
  98   0.0000       0.272349         7.4110 
  99   0.0000       0.276176         7.5151 
 100   0.0000       0.299221         8.1422 
 101   0.0000       0.303119         8.2483 
 102   0.0000       0.310746         8.4558 
 103   0.0000       0.320558         8.7228 
 104   0.0000       0.328346         8.9348 
 105   0.0000       0.336199         9.1484 
 106   0.0000       0.343876         9.3574 
 107   0.0000       0.347335         9.4515 
 108   0.0000       0.357629         9.7316 
 109   0.0000       0.362641         9.8680 
 110   0.0000       0.369026        10.0417 
 111   0.0000       0.375450        10.2165 
 112   0.0000       0.380064        10.3421 
 113   0.0000       0.385190        10.4816 
 114   0.0000       0.396006        10.7759 
 115   0.0000       0.401035        10.9127 
 116   0.0000       0.414768        11.2864 
 117   0.0000       0.422223        11.4893 
 118   0.0000       0.431059        11.7297 
 119   0.0000       0.435591        11.8530 
 120   0.0000       0.442067        12.0293 
 121   0.0000       0.448256        12.1977 
 122   0.0000       0.454641        12.3714 
 123   0.0000       0.458778        12.4840 
 124   0.0000       0.460473        12.5301 
 125   0.0000       0.471086        12.8189 
 126   0.0000       0.479863        13.0577 
 127   0.0000       0.481724        13.1084 
 128   0.0000       0.491267        13.3681 
 129   0.0000       0.494210        13.4481 
 130   0.0000       0.500240        13.6122 
 131   0.0000       0.507699        13.8152 
 132   0.0000       0.511999        13.9322 
 133   0.0000       0.517059        14.0699 
 134   0.0000       0.525587        14.3019 
 135   0.0000       0.529461        14.4074 
 136   0.0000       0.533645        14.5212 
 137   0.0000       0.539698        14.6859 
 138   0.0000       0.542344        14.7579 
 139   0.0000       0.553464        15.0605 
 140   0.0000       0.557645        15.1743 
 141   0.0000       0.561242        15.2722 
 142   0.0000       0.566698        15.4206 
 143   0.0000       0.572241        15.5715 
 144   0.0000       0.577856        15.7243 
 145   0.0000       0.579125        15.7588 
 146   0.0000       0.581954        15.8358 
 147   0.0000       0.588302        16.0085 
 148   0.0000       0.589896        16.0519 
 149   0.0000       0.593370        16.1464 
 150   0.0000       0.600782        16.3481 
 151   0.0000       0.606931        16.5154 
 152   0.0000       0.608857        16.5678 
 153   0.0000       0.617660        16.8074 
 154   0.0000       0.620651        16.8888 
 155   0.0000       0.626589        17.0504 
 156   0.0000       0.628510        17.1026 
 157   0.0000       0.632561        17.2129 
 158   0.0000       0.641693        17.4614 
 159   0.0000       0.644265        17.5313 
 160   0.0000       0.648586        17.6489 
 161   0.0000       0.650381        17.6978 
 162   0.0000       0.664747        18.0887 
 163   0.0000       0.666540        18.1375 
 164   0.0000       0.670152        18.2358 
 165   0.0000       0.673420        18.3247 
 166   0.0000       0.680751        18.5242 
 167   0.0000       0.682045        18.5594 
 168   0.0000       0.692725        18.8500 
 169   0.0000       0.696667        18.9573 
 170   0.0000       0.704998        19.1840 
 171   0.0000       0.710504        19.3338 
 172   0.0000       0.716525        19.4976 
 173   0.0000       0.726543        19.7702 
 174   0.0000       0.731440        19.9035 
 175   0.0000       0.741137        20.1674 
 176   0.0000       0.742455        20.2032 
 177   0.0000       0.750188        20.4137 
 178   0.0000       0.752009        20.4632 
 179   0.0000       0.761166        20.7124 
 180   0.0000       0.769867        20.9492 
 181   0.0000       0.772688        21.0259 
 182   0.0000       0.787618        21.4322 
 183   0.0000       0.792134        21.5551 
 184   0.0000       0.800433        21.7809 
 185   0.0000       0.816983        22.2312 
 186   0.0000       0.825820        22.4717 
 187   0.0000       0.828989        22.5579 
 188   0.0000       0.833683        22.6857 
 189   0.0000       0.836271        22.7561 
 190   0.0000       0.840774        22.8786 
 191   0.0000       0.846666        23.0389 
 192   0.0000       0.854560        23.2538 
 193   0.0000       0.864095        23.5132 
 194   0.0000       0.869261        23.6538 
 195   0.0000       0.875712        23.8293 
 196   0.0000       0.884490        24.0682 
 197   0.0000       0.889169        24.1955 
 198   0.0000       0.909904        24.7598 
 199   0.0000       0.910340        24.7716 
 200   0.0000       0.917501        24.9665 
 201   0.0000       0.920317        25.0431 
 202   0.0000       0.925654        25.1883 
 203   0.0000       0.932237        25.3675 
 204   0.0000       0.942135        25.6368 
 205   0.0000       0.945781        25.7360 
 206   0.0000       0.950617        25.8676 
 207   0.0000       0.968619        26.3575 
 208   0.0000       0.970977        26.4216 
 209   0.0000       0.977864        26.6090 
 210   0.0000       0.985884        26.8273 
 211   0.0000       0.991276        26.9740 
 212   0.0000       1.004183        27.3252 
 213   0.0000       1.006116        27.3778 
 214   0.0000       1.010016        27.4839 
 215   0.0000       1.021743        27.8030 
 216   0.0000       1.022173        27.8147 
 217   0.0000       1.029329        28.0095 
 218   0.0000       1.039996        28.2997 
 219   0.0000       1.044187        28.4138 
 220   0.0000       1.051060        28.6008 
 221   0.0000       1.061564        28.8866 
 222   0.0000       1.068343        29.0711 
 223   0.0000       1.077458        29.3191 
 224   0.0000       1.081959        29.4416 
 225   0.0000       1.094162        29.7737 
 226   0.0000       1.102550        30.0019 
 227   0.0000       1.111685        30.2505 
 228   0.0000       1.116942        30.3935 
 229   0.0000       1.121126        30.5074 
 230   0.0000       1.125351        30.6224 
 231   0.0000       1.137324        30.9482 
 232   0.0000       1.145127        31.1605 
 233   0.0000       1.150456        31.3055 
 234   0.0000       1.156491        31.4697 
 235   0.0000       1.159993        31.5650 
 236   0.0000       1.169007        31.8103 
 237   0.0000       1.177353        32.0374 
 238   0.0000       1.185707        32.2647 
 239   0.0000       1.193727        32.4830 
 240   0.0000       1.202800        32.7299 
 241   0.0000       1.203882        32.7593 
 242   0.0000       1.208617        32.8882 
 243   0.0000       1.220110        33.2009 
 244   0.0000       1.222925        33.2775 
 245   0.0000       1.225812        33.3560 
 246   0.0000       1.234421        33.5903 
 247   0.0000       1.240949        33.7679 
 248   0.0000       1.262239        34.3473 
 249   0.0000       1.266407        34.4607 
 250   0.0000       1.271143        34.5896 
 251   0.0000       1.284192        34.9446 
 252   0.0000       1.288835        35.0710 
 253   0.0000       1.294279        35.2191 
 254   0.0000       1.307100        35.5680 
 255   0.0000       1.312930        35.7266 
 256   0.0000       1.323346        36.0101 
 257   0.0000       1.327735        36.1295 
 258   0.0000       1.337388        36.3922 
 259   0.0000       1.338883        36.4329 
 260   0.0000       1.346778        36.6477 
 261   0.0000       1.358805        36.9750 
 262   0.0000       1.361682        37.0532 
 263   0.0000       1.363644        37.1066 
 264   0.0000       1.373505        37.3750 
 265   0.0000       1.390335        37.8329 
 266   0.0000       1.394307        37.9410 
 267   0.0000       1.400645        38.1135 
 268   0.0000       1.413719        38.4692 
 269   0.0000       1.419534        38.6275 
 270   0.0000       1.426178        38.8083 
 271   0.0000       1.431541        38.9542 
 272   0.0000       1.447947        39.4006 
 273   0.0000       1.456776        39.6409 
 274   0.0000       1.462253        39.7899 
 275   0.0000       1.464609        39.8540 
 276   0.0000       1.471826        40.0504 
 277   0.0000       1.481941        40.3257 
 278   0.0000       1.484060        40.3833 
 279   0.0000       1.492861        40.6228 
 280   0.0000       1.501010        40.8446 
 281   0.0000       1.509795        41.0836 
 282   0.0000       1.511168        41.1210 
 283   0.0000       1.518089        41.3093 
 284   0.0000       1.523394        41.4537 
 285   0.0000       1.529102        41.6090 
 286   0.0000       1.536804        41.8186 
 287   0.0000       1.540740        41.9257 
 288   0.0000       1.548224        42.1293 
 289   0.0000       1.556433        42.3527 
 290   0.0000       1.559887        42.4467 
 291   0.0000       1.565535        42.6004 
 292   0.0000       1.575416        42.8692 
 293   0.0000       1.583001        43.0756 
 294   0.0000       1.594405        43.3860 
 295   0.0000       1.606015        43.7019 
 296   0.0000       1.612746        43.8851 
 297   0.0000       1.622178        44.1417 
 298   0.0000       1.628190        44.3053 
 299   0.0000       1.639804        44.6213 
 300   0.0000       1.641180        44.6588 
 301   0.0000       1.642565        44.6965 
 302   0.0000       1.655676        45.0532 
 303   0.0000       1.665338        45.3162 
 304   0.0000       1.671919        45.4952 
 305   0.0000       1.679990        45.7149 
 306   0.0000       1.691720        46.0340 
 307   0.0000       1.697874        46.2015 
 308   0.0000       1.701946        46.3123 
 309   0.0000       1.709944        46.5299 
 310   0.0000       1.712828        46.6084 
 311   0.0000       1.729532        47.0630 
 312   0.0000       1.739399        47.3315 
 313   0.0000       1.741928        47.4003 
 314   0.0000       1.756860        47.8066 
 315   0.0000       1.765965        48.0543 
 316   0.0000       1.769470        48.1497 
 317   0.0000       1.781733        48.4834 
 318   0.0000       1.788364        48.6639 
 319   0.0000       1.809766        49.2462 
 320   0.0000       1.817675        49.4615 
 321   0.0000       1.824341        49.6428 
 322   0.0000       1.844980        50.2045 
 323   0.0000       1.857539        50.5462 
 324   0.0000       1.867128        50.8071 
 325   0.0000       1.880535        51.1720 
 326   0.0000       1.892918        51.5089 
 327   0.0000       1.904350        51.8200 
 328   0.0000       1.908593        51.9355 
 329   0.0000       1.911493        52.0144 
 330   0.0000       1.923043        52.3287 
 331   0.0000       1.937591        52.7245 
 332   0.0000       1.943067        52.8736 
 333   0.0000       1.951428        53.1011 
 334   0.0000       1.971423        53.6452 
 335   0.0000       1.980474        53.8914 
 336   0.0000       1.998020        54.3689 
 337   0.0000       2.010622        54.7118 
 338   0.0000       2.024660        55.0938 
 339   0.0000       2.029338        55.2211 
 340   0.0000       2.035258        55.3822 
 341   0.0000       2.049125        55.7595 
 342   0.0000       2.056598        55.9629 
 343   0.0000       2.067948        56.2717 
 344   0.0000       2.092434        56.9380 
 345   0.0000       2.111197        57.4486 
 346   0.0000       2.124995        57.8241 
 347   0.0000       2.137096        58.1533 
 348   0.0000       2.145119        58.3716 
 349   0.0000       2.164076        58.8875 
 350   0.0000       2.178137        59.2701 
 351   0.0000       2.208990        60.1097 
 352   0.0000       2.211549        60.1793 
 353   0.0000       2.224255        60.5251 
 354   0.0000       2.235531        60.8319 
 355   0.0000       2.259642        61.4880 
 356   0.0000       2.270787        61.7913 
 357   0.0000       2.289482        62.3000 
 358   0.0000       2.296081        62.4795 
 359   0.0000       2.313639        62.9573 
 360   0.0000       2.323558        63.2272 
 361   0.0000       2.341403        63.7128 
 362   0.0000       2.351726        63.9937 
 363   0.0000       2.355833        64.1055 
 364   0.0000       2.364303        64.3360 
 365   0.0000       2.368188        64.4417 
 366   0.0000       2.391855        65.0857 
 367   0.0000       2.404696        65.4351 
 368   0.0000       2.420995        65.8786 
 369   0.0000       2.437937        66.3396 
 370   0.0000       2.454025        66.7774 
 371   0.0000       2.456862        66.8546 
 372   0.0000       2.474124        67.3243 
 373   0.0000       2.476090        67.3778 
 374   0.0000       2.492064        67.8125 
 375   0.0000       2.493742        67.8582 
 376   0.0000       2.507294        68.2269 
 377   0.0000       2.519022        68.5461 
 378   0.0000       2.526468        68.7487 
 379   0.0000       2.546465        69.2928 
 380   0.0000       2.557693        69.5984 
 381   0.0000       2.580784        70.2267 
 382   0.0000       2.591226        70.5109 
 383   0.0000       2.596625        70.6578 
 384   0.0000       2.607414        70.9513 
 385   0.0000       2.623409        71.3866 
 386   0.0000       2.631929        71.6184 
 387   0.0000       2.649510        72.0968 
 388   0.0000       2.657140        72.3044 
 389   0.0000       2.666131        72.5491 
 390   0.0000       2.691611        73.2425 
 391   0.0000       2.698861        73.4397 
 392   0.0000       2.705878        73.6307 
 393   0.0000       2.712733        73.8172 
 394   0.0000       2.726099        74.1809 
 395   0.0000       2.733486        74.3819 
 396   0.0000       2.738653        74.5225 
 397   0.0000       2.755078        74.9695 
 398   0.0000       2.774453        75.4967 
 399   0.0000       2.782299        75.7102 
 400   0.0000       2.793792        76.0229 
 401   0.0000       2.800046        76.1931 
 402   0.0000       2.811073        76.4932 
 403   0.0000       2.822929        76.8158 
 404   0.0000       2.823831        76.8403 
 405   0.0000       2.842376        77.3450 
 406   0.0000       2.846156        77.4478 
 407   0.0000       2.850562        77.5677 
 408   0.0000       2.862293        77.8870 
 409   0.0000       2.866206        77.9934 
 410   0.0000       2.880367        78.3788 
 411   0.0000       2.898118        78.8618 
 412   0.0000       2.898702        78.8777 
 413   0.0000       2.911335        79.2214 
 414   0.0000       2.916625        79.3654 
 415   0.0000       2.933471        79.8238 
 416   0.0000       2.939450        79.9865 
 417   0.0000       2.946649        80.1824 
 418   0.0000       2.950651        80.2913 
 419   0.0000       2.957288        80.4719 
 420   0.0000       2.967805        80.7581 
 421   0.0000       2.970973        80.8443 
 422   0.0000       2.984926        81.2240 
 423   0.0000       2.990505        81.3758 
 424   0.0000       3.003690        81.7346 
 425   0.0000       3.011758        81.9541 
 426   0.0000       3.021588        82.2216 
 427   0.0000       3.030286        82.4583 
 428   0.0000       3.034364        82.5693 
 429   0.0000       3.038689        82.6869 
 430   0.0000       3.050674        83.0131 
 431   0.0000       3.054340        83.1128 
 432   0.0000       3.073095        83.6232 
 433   0.0000       3.075469        83.6878 
 434   0.0000       3.084037        83.9209 
 435   0.0000       3.084583        83.9358 
 436   0.0000       3.091963        84.1366 
 437   0.0000       3.093769        84.1857 
 438   0.0000       3.100969        84.3817 
 439   0.0000       3.105910        84.5161 
 440   0.0000       3.117542        84.8326 
 441   0.0000       3.129981        85.1711 
 442   0.0000       3.131361        85.2087 
 443   0.0000       3.136556        85.3500 
 444   0.0000       3.138037        85.3903 
 445   0.0000       3.153528        85.8118 
 446   0.0000       3.173850        86.3649 
 447   0.0000       3.175851        86.4193 
 448   0.0000       3.188496        86.7634 
 449   0.0000       3.193924        86.9111 
 450   0.0000       3.197631        87.0120 
 451   0.0000       3.208607        87.3106 
 452   0.0000       3.210879        87.3725 
 453   0.0000       3.220036        87.6216 
 454   0.0000       3.226481        87.7970 
 455   0.0000       3.234749        88.0220 
 456   0.0000       3.242381        88.2297 
 457   0.0000       3.244055        88.2752 
 458   0.0000       3.247606        88.3718 
 459   0.0000       3.254240        88.5524 
 460   0.0000       3.269223        88.9601 
 461   0.0000       3.277510        89.1856 
 462   0.0000       3.284593        89.3783 
 463   0.0000       3.296524        89.7030 
 464   0.0000       3.298802        89.7650 
 465   0.0000       3.305985        89.9604 
 466   0.0000       3.312803        90.1460 
 467   0.0000       3.322883        90.4203 
 468   0.0000       3.329728        90.6065 
 469   0.0000       3.331938        90.6666 
 470   0.0000       3.334716        90.7422 
 471   0.0000       3.348957        91.1298 
 472   0.0000       3.351647        91.2030 
 473   0.0000       3.354900        91.2915 
 474   0.0000       3.368483        91.6611 
 475   0.0000       3.371741        91.7497 
 476   0.0000       3.375891        91.8627 
 477   0.0000       3.382097        92.0315 
 478   0.0000       3.386396        92.1485 
 479   0.0000       3.392218        92.3069 
 480   0.0000       3.396893        92.4341 
 481   0.0000       3.406013        92.6823 
 482   0.0000       3.411269        92.8253 
 483   0.0000       3.413414        92.8837 
 484   0.0000       3.419566        93.0511 
 485   0.0000       3.424395        93.1825 
 486   0.0000       3.430288        93.3429 
 487   0.0000       3.436096        93.5009 
 488   0.0000       3.437837        93.5483 
 489   0.0000       3.442976        93.6881 
 490   0.0000       3.448431        93.8366 
 491   0.0000       3.451268        93.9138 
 492   0.0000       3.456693        94.0614 
 493   0.0000       3.464166        94.2648 
 494   0.0000       3.472557        94.4931 
 495   0.0000       3.481778        94.7440 
 496   0.0000       3.484193        94.8097 
 497   0.0000       3.488067        94.9151 
 498   0.0000       3.493566        95.0648 
 499   0.0000       3.503729        95.3413 
 500   0.0000       3.505054        95.3774 
 501   0.0000       3.517751        95.7229 
 502   0.0000       3.524004        95.8930 
 503   0.0000       3.536101        96.2222 
 504   0.0000       3.542291        96.3906 
 505   0.0000       3.551569        96.6431 
 506   0.0000       3.568816        97.1124 
 507   0.0000       3.571032        97.1727 
 508   0.0000       3.574613        97.2702 
 509   0.0000       3.585764        97.5736 
 510   0.0000       3.594995        97.8248 
 511   0.0000       3.598346        97.9160 
 512   0.0000       3.607406        98.1625 
 513   0.0000       3.615928        98.3944 
 514   0.0000       3.625091        98.6437 
 515   0.0000       3.630377        98.7876 
 516   0.0000       3.634824        98.9086 
 517   0.0000       3.637845        98.9908 
 518   0.0000       3.644025        99.1590 
 519   0.0000       3.649364        99.3042 
 520   0.0000       3.657242        99.5186 
 521   0.0000       3.662900        99.6726 
 522   0.0000       3.667465        99.7968 
 523   0.0000       3.668367        99.8213 
 524   0.0000       3.679915       100.1356 
 525   0.0000       3.686171       100.3058 
 526   0.0000       3.690610       100.4266 
 527   0.0000       3.696920       100.5983 
 528   0.0000       3.705440       100.8301 
 529   0.0000       3.708463       100.9124 
 530   0.0000       3.714305       101.0714 
 531   0.0000       3.725463       101.3750 
 532   0.0000       3.732541       101.5676 
 533   0.0000       3.740464       101.7832 
 534   0.0000       3.750866       102.0663 
 535   0.0000       3.754910       102.1763 
 536   0.0000       3.756572       102.2215 
 537   0.0000       3.761558       102.3572 
 538   0.0000       3.770594       102.6031 
 539   0.0000       3.783413       102.9519 
 540   0.0000       3.791339       103.1676 
 541   0.0000       3.795543       103.2820 
 542   0.0000       3.798970       103.3752 
 543   0.0000       3.806757       103.5871 
 544   0.0000       3.808317       103.6296 
 545   0.0000       3.824178       104.0612 
 546   0.0000       3.831722       104.2665 
 547   0.0000       3.839258       104.4715 
 548   0.0000       3.849292       104.7445 
 549   0.0000       3.852370       104.8283 
 550   0.0000       3.861142       105.0670 
 551   0.0000       3.881866       105.6309 
 552   0.0000       3.882979       105.6612 
 553   0.0000       3.892823       105.9291 
 554   0.0000       3.893811       105.9560 
 555   0.0000       3.902117       106.1820 
 556   0.0000       3.916191       106.5650 
 557   0.0000       3.920958       106.6947 
 558   0.0000       3.927415       106.8704 
 559   0.0000       3.930062       106.9424 
 560   0.0000       3.936079       107.1062 
 561   0.0000       3.949181       107.4627 
 562   0.0000       3.952667       107.5575 
 563   0.0000       3.968253       107.9816 
 564   0.0000       3.983529       108.3973 
 565   0.0000       3.986815       108.4868 
 566   0.0000       4.001912       108.8976 
 567   0.0000       4.009746       109.1107 
 568   0.0000       4.018634       109.3526 
 569   0.0000       4.022046       109.4454 
 570   0.0000       4.028097       109.6101 
 571   0.0000       4.037870       109.8760 
 572   0.0000       4.040864       109.9575 
 573   0.0000       4.049451       110.1912 
 574   0.0000       4.069978       110.7497 
 575   0.0000       4.073045       110.8332 
 576   0.0000       4.076820       110.9359 
 577   0.0000       4.085539       111.1732 
 578   0.0000       4.090383       111.3050 
 579   0.0000       4.110517       111.8528 
 580   0.0000       4.118780       112.0777 
 581   0.0000       4.128933       112.3540 
 582   0.0000       4.132631       112.4546 
 583   0.0000       4.138864       112.6242 
 584   0.0000       4.143765       112.7576 
 585   0.0000       4.150063       112.9290 
 586   0.0000       4.154366       113.0460 
 587   0.0000       4.158517       113.1590 
 588   0.0000       4.162322       113.2625 
 589   0.0000       4.176588       113.6507 
 590   0.0000       4.178720       113.7087 
 591   0.0000       4.186137       113.9106 
 592   0.0000       4.193883       114.1214 
 593   0.0000       4.210139       114.5637 
 594   0.0000       4.219603       114.8212 
 595   0.0000       4.221868       114.8829 
 596   0.0000       4.223103       114.9165 
 597   0.0000       4.232334       115.1676 
 598   0.0000       4.238627       115.3389 
 599   0.0000       4.253978       115.7566 
 600   0.0000       4.255215       115.7903 
 601   0.0000       4.261943       115.9734 
 602   0.0000       4.275166       116.3332 
 603   0.0000       4.281536       116.5065 
 604   0.0000       4.284839       116.5964 
 605   0.0000       4.302448       117.0756 
 606   0.0000       4.309745       117.2741 
 607   0.0000       4.314336       117.3990 
 608   0.0000       4.323390       117.6454 
 609   0.0000       4.340248       118.1042 
 610   0.0000       4.345378       118.2437 
 611   0.0000       4.348845       118.3381 
 612   0.0000       4.357778       118.5812 
 613   0.0000       4.362941       118.7216 
 614   0.0000       4.374849       119.0457 
 615   0.0000       4.381175       119.2178 
 616   0.0000       4.385907       119.3466 
 617   0.0000       4.400978       119.7567 
 618   0.0000       4.407788       119.9420 
 619   0.0000       4.409923       120.0001 
 620   0.0000       4.426228       120.4438 
 621   0.0000       4.435639       120.6999 
 622   0.0000       4.442994       120.9000 
 623   0.0000       4.452433       121.1569 
 624   0.0000       4.453983       121.1990 
 625   0.0000       4.466477       121.5390 
 626   0.0000       4.470478       121.6479 
 627   0.0000       4.487051       122.0989 
 628   0.0000       4.497567       122.3850 
 629   0.0000       4.503574       122.5485 
 630   0.0000       4.512375       122.7880 
 631   0.0000       4.519743       122.9885 
 632   0.0000       4.529013       123.2407 
 633   0.0000       4.537397       123.4689 
 634   0.0000       4.546485       123.7162 
 635   0.0000       4.552863       123.8897 
 636   0.0000       4.556824       123.9975 
 637   0.0000       4.560390       124.0945 
 638   0.0000       4.577008       124.5467 
 639   0.0000       4.587928       124.8439 
 640   0.0000       4.594193       125.0144 
 641   0.0000       4.604947       125.3070 
 642   0.0000       4.610455       125.4569 
 643   0.0000       4.626135       125.8835 
 644   0.0000       4.628475       125.9472 
 645   0.0000       4.635581       126.1406 
 646   0.0000       4.640520       126.2750 
 647   0.0000       4.647715       126.4707 
 648   0.0000       4.648067       126.4803 
 649   0.0000       4.657352       126.7330 
 650   0.0000       4.665032       126.9420 
 651   0.0000       4.666989       126.9952 
 652   0.0000       4.682896       127.4281 
 653   0.0000       4.690737       127.6414 
 654   0.0000       4.700103       127.8963 
 655   0.0000       4.705114       128.0327 
 656   0.0000       4.714385       128.2849 
 657   0.0000       4.721294       128.4729 
 658   0.0000       4.728428       128.6671 
 659   0.0000       4.736010       128.8734 
 660   0.0000       4.754211       129.3687 
 661   0.0000       4.767434       129.7285 
 662   0.0000       4.783162       130.1565 
 663   0.0000       4.789069       130.3172 
 664   0.0000       4.816025       131.0507 
 665   0.0000       4.834530       131.5542 
 666   0.0000       4.852563       132.0449 
 667   0.0000       4.858306       132.2012 
 668   0.0000       4.878762       132.7579 
 669   0.0000       4.897864       133.2776 
 670   0.0000       4.910366       133.6178 
 671   0.0000       4.927717       134.0900 
 672   0.0000       4.952882       134.7748 
 673   0.0000       4.956190       134.8648 
 674   0.0000       4.970342       135.2499 
 675   0.0000       4.977628       135.4481 
 676   0.0000       5.006477       136.2332 
 677   0.0000       5.013554       136.4257 
 678   0.0000       5.015465       136.4777 
 679   0.0000       5.034365       136.9920 
 680   0.0000       5.049491       137.4036 
 681   0.0000       5.052081       137.4741 
 682   0.0000       5.078337       138.1886 
 683   0.0000       5.089921       138.5038 
 684   0.0000       5.102769       138.8534 
 685   0.0000       5.113027       139.1325 
 686   0.0000       5.120391       139.3329 
 687   0.0000       5.132705       139.6680 
 688   0.0000       5.148352       140.0938 
 689   0.0000       5.160365       140.4207 
 690   0.0000       5.171951       140.7359 
 691   0.0000       5.179964       140.9540 
 692   0.0000       5.188160       141.1770 
 693   0.0000       5.203013       141.5812 
 694   0.0000       5.212727       141.8455 
 695   0.0000       5.219115       142.0194 
 696   0.0000       5.227217       142.2398 
 697   0.0000       5.229925       142.3135 
 698   0.0000       5.241342       142.6242 
 699   0.0000       5.252221       142.9202 
 700   0.0000       5.259359       143.1144 
 701   0.0000       5.271153       143.4354 
 702   0.0000       5.279245       143.6556 
 703   0.0000       5.292272       144.0100 
 704   0.0000       5.311844       144.5426 
 705   0.0000       5.331586       145.0798 
 706   0.0000       5.335611       145.1894 
 707   0.0000       5.351749       145.6285 
 708   0.0000       5.357813       145.7935 
 709   0.0000       5.373431       146.2185 
 710   0.0000       5.391327       146.7055 
 711   0.0000       5.414503       147.3361 
 712   0.0000       5.431513       147.7990 
 713   0.0000       5.463275       148.6633 
 714   0.0000       5.467961       148.7908 
 715   0.0000       5.479205       149.0967 
 716   0.0000       5.486400       149.2925 
 717   0.0000       5.499377       149.6456 
 718   0.0000       5.511689       149.9807 
 719   0.0000       5.517731       150.1451 
 720   0.0000       5.542072       150.8074 
 721   0.0000       5.545229       150.8933 
 722   0.0000       5.560145       151.2992 
 723   0.0000       5.567390       151.4964 
 724   0.0000       5.589612       152.1011 
 725   0.0000       5.609182       152.6336 
 726   0.0000       5.612836       152.7330 
 727   0.0000       5.626337       153.1004 
 728   0.0000       5.639812       153.4671 
 729   0.0000       5.651501       153.7852 
 730   0.0000       5.652737       153.8188 
 731   0.0000       5.670139       154.2923 
 732   0.0000       5.681518       154.6020 
 733   0.0000       5.698639       155.0678 
 734   0.0000       5.704313       155.2222 
 735   0.0000       5.718384       155.6051 
 736   0.0000       5.719040       155.6230 
 737   0.0000       5.723372       155.7409 
 738   0.0000       5.733851       156.0260 
 739   0.0000       5.752433       156.5317 
 740   0.0000       5.758589       156.6992 
 741   0.0000       5.779289       157.2624 
 742   0.0000       5.806412       158.0005 
 743   0.0000       5.825126       158.5097 
 744   0.0000       5.829449       158.6274 
 745   0.0000       5.841146       158.9457 
 746   0.0000       5.854297       159.3035 
 747   0.0000       5.860492       159.4721 
 748   0.0000       5.899088       160.5223 
 749   0.0000       5.931801       161.4125 
 750   0.0000       5.943606       161.7337 
 751   0.0000       5.964930       162.3140 
 752   0.0000       5.973108       162.5365 
 753   0.0000       5.994043       163.1062 
 754   0.0000       5.994967       163.1313 
 755   0.0000       6.033143       164.1702 
 756   0.0000       6.048216       164.5803 
 757   0.0000       6.060577       164.9167 
 758   0.0000       6.072459       165.2400 
 759   0.0000       6.088003       165.6630 
 760   0.0000       6.089424       165.7016 
 761   0.0000       6.160930       167.6474 
 762   0.0000       6.220238       169.2613 
 763   0.0000       6.229771       169.5207 
 764   0.0000       6.236993       169.7172 
 765   0.0000       6.285555       171.0387 
 766   0.0000       6.296677       171.3413 
 767   0.0000       6.326534       172.1537 
 768   0.0000       6.348569       172.7534 
 769   0.0000       6.373610       173.4347 
 770   0.0000       6.378473       173.5671 
 771   0.0000       6.384525       173.7318 
 772   0.0000       6.406088       174.3185 
 773   0.0000       6.453351       175.6046 
 774   0.0000       6.464174       175.8991 
 775   0.0000       6.483349       176.4209 
 776   0.0000       6.507980       177.0911 
 777   0.0000       6.555156       178.3749 
 778   0.0000       6.590154       179.3272 
 779   0.0000       6.629045       180.3855 
 780   0.0000       6.639237       180.6628 
 781   0.0000       6.680113       181.7751 
 782   0.0000       6.701734       182.3635 
 783   0.0000       6.773985       184.3295 
 784   0.0000       6.843084       186.2098 
 785   0.0000       6.882624       187.2857 
 786   0.0000       6.910565       188.0460 
 787   0.0000       6.920803       188.3246 
 788   0.0000       6.952964       189.1998 
 789   0.0000       6.995526       190.3579 
 790   0.0000       7.047033       191.7595 
 791   0.0000       7.056474       192.0164 
 792   0.0000       7.081243       192.6904 
 793   0.0000       7.118772       193.7116 
 794   0.0000       7.222158       196.5249 
 795   0.0000       7.248126       197.2315 
 796   0.0000       7.259065       197.5292 
 797   0.0000       7.280886       198.1230 
 798   0.0000       7.340965       199.7578 
 799   0.0000       7.370778       200.5691 
 800   0.0000       7.389930       201.0902 
 801   0.0000       7.557313       205.6450 
 802   0.0000       7.577640       206.1981 
 803   0.0000       7.585491       206.4117 
 804   0.0000       7.678196       208.9343 
 805   0.0000       7.765350       211.3059 
 806   0.0000       7.819023       212.7664 
 807   0.0000       7.926164       215.6819 
 808   0.0000       7.932633       215.8579 
 809   0.0000       9.427396       256.5325 
 810   0.0000       9.584722       260.8135 
 811   0.0000      10.658623       290.0359 
 812   0.0000      11.045284       300.5575 
 813   0.0000      11.824185       321.7524 
 814   0.0000      12.577888       342.2617 
 815   0.0000      12.877727       350.4208 
 816   0.0000      12.972633       353.0033 
 817   0.0000      13.072535       355.7218 
 818   0.0000      13.225288       359.8784 
 819   0.0000      13.403497       364.7277 
 820   0.0000      13.448017       365.9391 
 821   0.0000      13.767032       374.6200 
 822   0.0000      13.989804       380.6819 
 823   0.0000      14.049317       382.3013 
 824   0.0000      14.191000       386.1568 
 825   0.0000      14.543657       395.7530 
 826   0.0000      14.620813       397.8525 
 827   0.0000      15.980899       434.8624 

                    ********************************
                    * MULLIKEN POPULATION ANALYSIS *
                    ********************************

-----------------------
MULLIKEN ATOMIC CHARGES
-----------------------
   0 C :   -0.332431
   1 C :    0.034265
   2 O :   -0.370574
   3 C :    0.453573
   4 O :   -0.378255
   5 C :   -0.234908
   6 C :    0.142718
   7 C :   -0.287127
   8 N :   -0.134474
   9 C :    0.206702
  10 S :   -0.440703
  11 N :   -0.222915
  12 C :    0.086276
  13 C :    0.013570
  14 C :   -0.209242
  15 C :   -0.131804
  16 C :   -0.276627
  17 C :    0.323307
  18 O :   -0.357724
  19 C :   -0.266219
  20 H :    0.126349
  21 H :    0.124302
  22 H :    0.098819
  23 H :    0.108041
  24 H :    0.112448
  25 H :    0.118349
  26 H :    0.134737
  27 H :    0.108023
  28 H :    0.197708
  29 H :    0.202597
  30 H :    0.162942
  31 H :    0.177319
  32 H :    0.163862
  33 H :    0.131663
  34 H :    0.240865
  35 H :    0.174567
Sum of atomic charges:   -0.0000000

--------------------------------
MULLIKEN REDUCED ORBITAL CHARGES
--------------------------------
  0 C s       :     3.265643  s :     3.265643
      pz      :     0.963485  p :     2.983621
      px      :     1.025581
      py      :     0.994555
      dz2     :     0.024819  d :     0.078730
      dxz     :     0.013755
      dyz     :     0.008550
      dx2y2   :     0.018592
      dxy     :     0.013014
      f0      :     0.000462  f :     0.004436
      f+1     :     0.001297
      f-1     :     0.000660
      f+2     :     0.000364
      f-2     :     0.000587
      f+3     :     0.000160
      f-3     :     0.000908
  1 C s       :     3.175322  s :     3.175322
      pz      :     0.964464  p :     2.620930
      px      :     0.704507
      py      :     0.951959
      dz2     :     0.029762  d :     0.158018
      dxz     :     0.039843
      dyz     :     0.014408
      dx2y2   :     0.046522
      dxy     :     0.027484
      f0      :     0.001098  f :     0.011464
      f+1     :     0.001922
      f-1     :     0.000874
      f+2     :     0.001627
      f-2     :     0.001255
      f+3     :     0.002511
      f-3     :     0.002178
  2 O s       :     3.725045  s :     3.725045
      pz      :     1.565353  p :     4.612040
      px      :     1.276163
      py      :     1.770524
      dz2     :     0.005364  d :     0.031235
      dxz     :     0.013491
      dyz     :     0.003548
      dx2y2   :     0.004611
      dxy     :     0.004221
      f0      :     0.000110  f :     0.002254
      f+1     :     0.000429
      f-1     :     0.000058
      f+2     :     0.000456
      f-2     :     0.000287
      f+3     :     0.000371
      f-3     :     0.000544
  3 C s       :     3.042638  s :     3.042638
      pz      :     0.706014  p :     2.192588
      px      :     0.713056
      py      :     0.773519
      dz2     :     0.034602  d :     0.284804
      dxz     :     0.080626
      dyz     :     0.036719
      dx2y2   :     0.076144
      dxy     :     0.056712
      f0      :     0.003120  f :     0.026397
      f+1     :     0.003306
      f-1     :     0.002082
      f+2     :     0.002574
      f-2     :     0.006016
      f+3     :     0.005731
      f-3     :     0.003566
  4 O s       :     3.768157  s :     3.768157
      pz      :     1.636258  p :     4.572017
      px      :     1.441672
      py      :     1.494087
      dz2     :     0.003980  d :     0.035622
      dxz     :     0.005963
      dyz     :     0.003751
      dx2y2   :     0.010620
      dxy     :     0.011308
      f0      :     0.000268  f :     0.002459
      f+1     :     0.000294
      f-1     :     0.000175
      f+2     :     0.000039
      f-2     :     0.000366
      f+3     :     0.000621
      f-3     :     0.000696
  5 C s       :     3.176816  s :     3.176816
      pz      :     0.916302  p :     2.960485
      px      :     1.104112
      py      :     0.940070
      dz2     :     0.015945  d :     0.087351
      dxz     :     0.016104
      dyz     :     0.027342
      dx2y2   :     0.013486
      dxy     :     0.014475
      f0      :     0.001110  f :     0.010256
      f+1     :     0.001178
      f-1     :     0.001997
      f+2     :     0.001849
      f-2     :     0.001017
      f+3     :     0.001425
      f-3     :     0.001681
  6 C s       :     3.183185  s :     3.183185
      pz      :     0.861861  p :     2.481071
      px      :     0.835193
      py      :     0.784017
      dz2     :     0.034569  d :     0.178603
      dxz     :     0.022596
      dyz     :     0.049609
      dx2y2   :     0.025673
      dxy     :     0.046156
      f0      :     0.001901  f :     0.014422
      f+1     :     0.001026
      f-1     :     0.003176
      f+2     :     0.002563
      f-2     :     0.002172
      f+3     :     0.001885
      f-3     :     0.001699
  7 C s       :     3.280522  s :     3.280522
      pz      :     0.883296  p :     2.931730
      px      :     1.027199
      py      :     1.021235
      dz2     :     0.019266  d :     0.070224
      dxz     :     0.018203
      dyz     :     0.008085
      dx2y2   :     0.017437
      dxy     :     0.007233
      f0      :     0.001159  f :     0.004650
      f+1     :     0.000995
      f-1     :     0.000796
      f+2     :     0.000295
      f-2     :     0.000323
      f+3     :     0.000036
      f-3     :     0.001045
  8 N s       :     3.351268  s :     3.351268
      pz      :     1.142439  p :     3.718763
      px      :     1.476122
      py      :     1.100202
      dz2     :     0.015535  d :     0.059489
      dxz     :     0.009237
      dyz     :     0.016737
      dx2y2   :     0.008191
      dxy     :     0.009788
      f0      :     0.000723  f :     0.004954
      f+1     :     0.000960
      f-1     :     0.000824
      f+2     :     0.000893
      f-2     :     0.000734
      f+3     :     0.000441
      f-3     :     0.000379
  9 C s       :     3.162893  s :     3.162893
      pz      :     0.775389  p :     2.351349
      px      :     0.692445
      py      :     0.883515
      dz2     :     0.066363  d :     0.261508
      dxz     :     0.036328
      dyz     :     0.053184
      dx2y2   :     0.045891
      dxy     :     0.059742
      f0      :     0.003174  f :     0.017547
      f+1     :     0.002120
      f-1     :     0.002909
      f+2     :     0.002634
      f-2     :     0.002048
      f+3     :     0.002143
      f-3     :     0.002519
 10 S s       :     5.855461  s :     5.855461
      pz      :     3.555556  p :    10.490300
      px      :     3.694850
      py      :     3.239894
      dz2     :     0.007622  d :     0.084814
      dxz     :     0.004869
      dyz     :     0.038860
      dx2y2   :     0.020201
      dxy     :     0.013262
      f0      :     0.001253  f :     0.010128
      f+1     :     0.000053
      f-1     :     0.001823
      f+2     :     0.003363
      f-2     :     0.001180
      f+3     :     0.001158
      f-3     :     0.001297
 11 N s       :     3.389676  s :     3.389676
      pz      :     1.259459  p :     3.770736
      px      :     1.471082
      py      :     1.040195
      dz2     :     0.011071  d :     0.058083
      dxz     :     0.006481
      dyz     :     0.014677
      dx2y2   :     0.011880
      dxy     :     0.013974
      f0      :     0.000358  f :     0.004420
      f+1     :     0.000567
      f-1     :     0.000553
      f+2     :     0.000682
      f-2     :     0.000661
      f+3     :     0.000813
      f-3     :     0.000787
 12 C s       :     3.099294  s :     3.099294
      pz      :     0.836697  p :     2.617976
      px      :     1.020842
      py      :     0.760437
      dz2     :     0.036734  d :     0.185146
      dxz     :     0.027671
      dyz     :     0.041021
      dx2y2   :     0.044322
      dxy     :     0.035399
      f0      :     0.001289  f :     0.011308
      f+1     :     0.001227
      f-1     :     0.002027
      f+2     :     0.002282
      f-2     :     0.001612
      f+3     :     0.001643
      f-3     :     0.001227
 13 C s       :     3.111322  s :     3.111322
      pz      :     0.919666  p :     2.755766
      px      :     0.907529
      py      :     0.928571
      dz2     :     0.018922  d :     0.108162
      dxz     :     0.010045
      dyz     :     0.031018
      dx2y2   :     0.022860
      dxy     :     0.025316
      f0      :     0.001162  f :     0.011180
      f+1     :     0.001576
      f-1     :     0.001089
[...]
      f-1     :     0.005898
      f+2     :     0.006113
      f-2     :     0.005829
      f+3     :     0.006076
      f-3     :     0.009573
 15 C s       :     2.705943  s :     2.705943
      pz      :     0.902781  p :     2.794132
      px      :     0.923238
      py      :     0.968113
      dz2     :     0.097103  d :     0.415647
      dxz     :     0.066261
      dyz     :     0.063086
      dx2y2   :     0.095286
      dxy     :     0.093910
      f0      :     0.003251  f :     0.041000
      f+1     :     0.005296
      f-1     :     0.006408
      f+2     :     0.006684
      f-2     :     0.006908
      f+3     :     0.006239
      f-3     :     0.006214
 16 C s       :     2.702050  s :     2.702050
      pz      :     0.940475  p :     2.868000
      px      :     0.960106
      py      :     0.967418
      dz2     :     0.048383  d :     0.390492
      dxz     :     0.055564
      dyz     :     0.091816
      dx2y2   :     0.091292
      dxy     :     0.103437
      f0      :     0.004932  f :     0.040272
      f+1     :     0.004943
      f-1     :     0.003249
      f+2     :     0.005409
      f-2     :     0.006428
      f+3     :     0.007226
      f-3     :     0.008084
 17 C s       :     2.701800  s :     2.701800
      pz      :     0.836670  p :     2.683371
      px      :     0.818175
      py      :     1.028526
      dz2     :     0.132755  d :     0.708689
      dxz     :     0.113927
      dyz     :     0.139882
      dx2y2   :     0.163668
      dxy     :     0.158458
      f0      :     0.010785  f :     0.099246
      f+1     :     0.016381
      f-1     :     0.009237
      f+2     :     0.014596
      f-2     :     0.016929
      f+3     :     0.013350
      f-3     :     0.017967
 18 O s       :     3.177305  s :     3.177305
      pz      :     1.427207  p :     4.347261
      px      :     1.444457
      py      :     1.475597
      dz2     :     0.009230  d :     0.075572
      dxz     :     0.018104
      dyz     :     0.017981
      dx2y2   :     0.017920
      dxy     :     0.012338
      f0      :     0.000624  f :     0.005071
      f+1     :     0.000804
      f-1     :     0.000327
      f+2     :     0.000916
      f-2     :     0.000912
      f+3     :     0.000628
      f-3     :     0.000860
 19 C s       :     2.695987  s :     2.695987
      pz      :     0.935692  p :     2.847071
      px      :     0.946226
      py      :     0.965153
      dz2     :     0.078540  d :     0.388552
      dxz     :     0.063421
      dyz     :     0.067129
      dx2y2   :     0.084744
      dxy     :     0.094718
      f0      :     0.003318  f :     0.040742
      f+1     :     0.005336
      f-1     :     0.005957
      f+2     :     0.006842
      f-2     :     0.007351
      f+3     :     0.006204
      f-3     :     0.005733
 20 H s       :     0.840938  s :     0.840938
      pz      :     0.069039  p :     0.158349
      px      :     0.049759
      py      :     0.039551
      dz2     :     0.009094  d :     0.027878
      dxz     :     0.007096
      dyz     :     0.006558
      dx2y2   :     0.002786
      dxy     :     0.002343
 21 H s       :     0.841657  s :     0.841657
      pz      :     0.040321  p :     0.152117
      px      :     0.067573
      py      :     0.044223
      dz2     :     0.002358  d :     0.027592
      dxz     :     0.008321
      dyz     :     0.001166
      dx2y2   :     0.008400
      dxy     :     0.007347
 22 H s       :     0.851424  s :     0.851424
      pz      :     0.039968  p :     0.153881
      px      :     0.040382
      py      :     0.073530
      dz2     :     0.002582  d :     0.028051
      dxz     :     0.000428
      dyz     :     0.008712
      dx2y2   :     0.006869
      dxy     :     0.009459
 23 H s       :     0.852547  s :     0.852547
      pz      :     0.041428  p :     0.146131
      px      :     0.025890
      py      :     0.078813
      dz2     :     0.003176  d :     0.027186
      dxz     :     0.000724
      dyz     :     0.009211
      dx2y2   :     0.007672
      dxy     :     0.006402
 24 H s       :     0.851247  s :     0.851247
      pz      :     0.064449  p :     0.143741
      px      :     0.041947
      py      :     0.037345
      dz2     :     0.007365  d :     0.026895
      dxz     :     0.007864
      dyz     :     0.005854
      dx2y2   :     0.002677
      dxy     :     0.003136
 25 H s       :     0.834381  s :     0.834381
      pz      :     0.040275  p :     0.153597
      px      :     0.067983
      py      :     0.045339
      dz2     :     0.003139  d :     0.027909
      dxz     :     0.007593
      dyz     :     0.001399
      dx2y2   :     0.008536
      dxy     :     0.007242
 26 H s       :     0.826990  s :     0.826990
      pz      :     0.053520  p :     0.150544
      px      :     0.053434
      py      :     0.043591
      dz2     :     0.007343  d :     0.027702
      dxz     :     0.006291
      dyz     :     0.004492
      dx2y2   :     0.005499
      dxy     :     0.004077
 27 H s       :     0.840731  s :     0.840731
      pz      :     0.035494  p :     0.149897
      px      :     0.041642
      py      :     0.072761
      dz2     :     0.002594  d :     0.027724
      dxz     :     0.000163
      dyz     :     0.008818
      dx2y2   :     0.006606
      dxy     :     0.009543
 28 H s       :     0.743178  s :     0.743178
      pz      :     0.056404  p :     0.253881
      px      :     0.089923
      py      :     0.107554
      dz2     :     0.007447  d :     0.061795
      dxz     :     0.003582
      dyz     :     0.015542
      dx2y2   :     0.016762
      dxy     :     0.018462
 29 H s       :     0.747873  s :     0.747873
      pz      :     0.117303  p :     0.254348
      px      :     0.093508
      py      :     0.043537
      dz2     :     0.022419  d :     0.061356
      dxz     :     0.017495
      dyz     :     0.012021
      dx2y2   :     0.005619
      dxy     :     0.003802
 30 H s       :     0.820979  s :     0.820979
      pz      :     0.040495  p :     0.155083
      px      :     0.077039
      py      :     0.037550
      dz2     :     0.002934  d :     0.029316
      dxz     :     0.008897
      dyz     :     0.001531
      dx2y2   :     0.008526
      dxy     :     0.007429
 31 H s       :     0.836942  s :     0.836942
      pz      :     0.058185  p :     0.157258
      px      :     0.065341
      py      :     0.033732
      dz2     :     0.005850  d :     0.027430
      dxz     :     0.007295
      dyz     :     0.003637
      dx2y2   :     0.005179
      dxy     :     0.005469
 32 H s       :     0.841801  s :     0.841801
      pz      :     0.036323  p :     0.150916
      px      :     0.042464
      py      :     0.072129
      dz2     :     0.002618  d :     0.026427
      dxz     :     0.001272
      dyz     :     0.006715
      dx2y2   :     0.007946
      dxy     :     0.007876
 33 H s       :     0.848454  s :     0.848454
      pz      :     0.056148  p :     0.158966
      px      :     0.045257
      py      :     0.057562
      dz2     :     0.005849  d :     0.027746
      dxz     :     0.003985
      dyz     :     0.006624
      dx2y2   :     0.005796
      dxy     :     0.005493
 34 H s       :     0.706397  s :     0.706397
      pz      :     0.107212  p :     0.347691
      px      :     0.083864
      py      :     0.156615
      dz2     :     0.021248  d :     0.099535
      dxz     :     0.009610
      dyz     :     0.025336
      dx2y2   :     0.021366
      dxy     :     0.021974
 35 H s       :     0.837559  s :     0.837559
      pz      :     0.039990  p :     0.158139
      px      :     0.044692
      py      :     0.073457
      dz2     :     0.002594  d :     0.027977
      dxz     :     0.001463
      dyz     :     0.007338
      dx2y2   :     0.008279
      dxy     :     0.008303


                      *****************************
                      * MAYER POPULATION ANALYSIS *
                      *****************************

  NA   - Mulliken gross atomic population
  ZA   - Total nuclear charge
  QA   - Mulliken gross atomic charge
  VA   - Mayer's total valence
  BVA  - Mayer's bonded valence
  FA   - Mayer's free valence

  ATOM       NA         ZA         QA         VA         BVA        FA
  0 C      6.3324     6.0000    -0.3324     3.8800     3.8800    -0.0000
  1 C      5.9657     6.0000     0.0343     3.8848     3.8848    -0.0000
  2 O      8.3706     8.0000    -0.3706     1.9917     1.9917    -0.0000
  3 C      5.5464     6.0000     0.4536     4.2126     4.2126     0.0000
  4 O      8.3783     8.0000    -0.3783     2.1258     2.1258     0.0000
  5 C      6.2349     6.0000    -0.2349     3.6072     3.6072     0.0000
  6 C      5.8573     6.0000     0.1427     3.8498     3.8498     0.0000
  7 C      6.2871     6.0000    -0.2871     3.8910     3.8910     0.0000
  8 N      7.1345     7.0000    -0.1345     3.2841     3.2841     0.0000
  9 C      5.7933     6.0000     0.2067     4.1521     4.1521    -0.0000
 10 S     16.4407    16.0000    -0.4407     1.7547     1.7547    -0.0000
 11 N      7.2229     7.0000    -0.2229     3.2472     3.2472     0.0000
 12 C      5.9137     6.0000     0.0863     3.8874     3.8874    -0.0000
 13 C      5.9864     6.0000     0.0136     3.7597     3.7597     0.0000
 14 C      6.2092     6.0000    -0.2092     3.8701     3.8701     0.0000
 15 C      6.1318     6.0000    -0.1318     3.8043     3.8043    -0.0000
 16 C      6.2766     6.0000    -0.2766     3.7932     3.7932    -0.0000
 17 C      5.6767     6.0000     0.3233     3.8563     3.8563    -0.0000
 18 O      8.3577     8.0000    -0.3577     2.1171     2.1171    -0.0000
 19 C      6.2662     6.0000    -0.2662     3.8145     3.8145    -0.0000
 20 H      0.8737     1.0000     0.1263     0.9595     0.9595    -0.0000
 21 H      0.8757     1.0000     0.1243     0.9824     0.9824     0.0000
 22 H      0.9012     1.0000     0.0988     0.9732     0.9732    -0.0000
 23 H      0.8920     1.0000     0.1080     0.9754     0.9754     0.0000
 24 H      0.8876     1.0000     0.1124     0.9730     0.9730    -0.0000
 25 H      0.8817     1.0000     0.1183     0.9765     0.9765    -0.0000
 26 H      0.8653     1.0000     0.1347     0.9769     0.9769     0.0000
 27 H      0.8920     1.0000     0.1080     0.9864     0.9864    -0.0000
 28 H      0.8023     1.0000     0.1977     1.0218     1.0218    -0.0000
 29 H      0.7974     1.0000     0.2026     1.0125     1.0125     0.0000
 30 H      0.8371     1.0000     0.1629     0.9925     0.9925     0.0000
 31 H      0.8227     1.0000     0.1773     0.9846     0.9846     0.0000
 32 H      0.8361     1.0000     0.1639     0.9762     0.9762     0.0000
 33 H      0.8683     1.0000     0.1317     0.9911     0.9911    -0.0000
 34 H      0.7591     1.0000     0.2409     1.0105     1.0105    -0.0000
 35 H      0.8254     1.0000     0.1746     0.9860     0.9860     0.0000

  Mayer bond orders larger than 0.100000
B(  0-C ,  1-C ) :   0.9633 B(  0-C , 20-H ) :   0.9636 B(  0-C , 21-H ) :   0.9777 
B(  0-C , 22-H ) :   0.9730 B(  1-C ,  2-O ) :   0.9057 B(  1-C , 23-H ) :   0.9830 
B(  1-C , 24-H ) :   0.9815 B(  2-O ,  3-C ) :   1.0974 B(  3-C ,  4-O ) :   2.0713 
B(  3-C ,  5-C ) :   0.9664 B(  5-C ,  6-C ) :   1.7024 B(  5-C , 12-C ) :   0.9264 
B(  6-C ,  7-C ) :   0.9452 B(  6-C ,  8-N ) :   1.1169 B(  7-C , 25-H ) :   0.9668 
B(  7-C , 26-H ) :   0.9662 B(  7-C , 27-H ) :   0.9883 B(  8-N ,  9-C ) :   1.1906 
B(  8-N , 28-H ) :   0.9476 B(  9-C , 10-S ) :   1.6109 B(  9-C , 11-N ) :   1.2958 
B( 11-N , 12-C ) :   0.9757 B( 11-N , 29-H ) :   0.9478 B( 12-C , 13-C ) :   0.9701 
B( 12-C , 30-H ) :   0.9922 B( 13-C , 14-C ) :   1.3884 B( 13-C , 19-C ) :   1.3468 
B( 14-C , 15-C ) :   1.3967 B( 14-C , 31-H ) :   0.9571 B( 15-C , 16-C ) :   1.3599 
B( 15-C , 32-H ) :   0.9703 B( 16-C , 17-C ) :   1.3326 B( 16-C , 33-H ) :   0.9846 
B( 17-C , 18-O ) :   1.1074 B( 17-C , 19-C ) :   1.3606 B( 18-O , 34-H ) :   0.9798 
B( 19-C , 35-H ) :   0.9588 

-------
TIMINGS
-------

Total SCF time: 0 days 1 hours 35 min 7 sec 

Total time                  ....    5707.927 sec
Sum of individual times     ....    5700.148 sec  ( 99.9%)

Fock matrix formation       ....    5676.499 sec  ( 99.4%)
Diagonalization             ....       4.648 sec  (  0.1%)
Density matrix formation    ....       0.192 sec  (  0.0%)
Population analysis         ....       0.645 sec  (  0.0%)
Initial guess               ....       4.804 sec  (  0.1%)
Orbital Transformation      ....       0.000 sec  (  0.0%)
Orbital Orthonormalization  ....       0.000 sec  (  0.0%)
DIIS solution               ....       6.428 sec  (  0.1%)
SOSCF solution              ....       5.840 sec  (  0.1%)

------------------------------------------------------------------------------
                                ORCA  MP2 
------------------------------------------------------------------------------

Freezing NCore=48 chemical core electrons

-------------
RI-MP2 ENERGY
-------------
Dimension of the basis                    ...  828
Memory devoted to MP2                     ...  256 MB   
Data format for buffers                   ... DOUBLE
Compression type for matrix containers    ... UNCOMPRESSED
Overall scaling of the MP2 energy         ...   1.000e+00
Calculating two index integrals           ... done (    0.046 sec)
Cholesky decomposition of V**-1           ... done (    1.686 sec)

-----------------
RI-TRANSFORMATION (AUX index driven)
-----------------

Dimension of the orbital-basis         ... 828
Dimension of the aux-basis             ... 2141
Transformation of internal/external MOs...   24-  76 to   77- 827
Number Format for Storage              ... Double (8 Byte)
Integral mode                          ... Direct

First Phase: integral generation and transformation of MO indices
  Aux angular momentum 0               ... done (    8.194 sec)
  Aux angular momentum 1               ... done (   16.193 sec)
  Aux angular momentum 2               ... done (   22.580 sec)
  Aux angular momentum 3               ... done (   18.820 sec)
  Aux angular momentum 4               ... done (    6.265 sec)
Closing buffer VIA ( 0.63 GB; CompressionRatio= 1.00)
  Phase 1 completed in    72.322 sec
Second Phase: sorting and transformation of aux index

IA-Transformation
Memory available                       ... 167 MB 
Max. # MO pairs treated in a batch     ... 12    
# of internal orbitals                 ... 53
# batches for internal orbitals        ... 5
Closing buffer IAV ( 0.63 GB; CompressionRatio= 1.00)
(ia|v) transformation done in    75.866 sec

  Phase 2 completed in    75.902 sec
RI-Integral transformation completed in   148.235 sec
Opening buffers                              ... done

Starting loop over batches of integrals:

Operator 0  - window                       ... ( 24- 76)x( 77-827)
Operator 0  - Memory available             ...   256 MB
Operator 0  - Memory needed per MO         ...  12.3 MB
Operator 0  - Number of orbitals per batch ... 13
Operator 0  - Number of batches            ... 5

OPERATOR  0   PASS   0:  MOs    24 ...   36
  Reading integrals       ... ok
  Internal MO  26
  Internal MO  29
  Internal MO  32
  Internal MO  35
OPERATOR  0   PASS   1:  MOs    37 ...   49
  Reading integrals       ... ok
  Internal MO  38
  Internal MO  41
  Internal MO  44
  Internal MO  47
OPERATOR  0   PASS   2:  MOs    50 ...   62
  Reading integrals       ... ok
  Internal MO  50
  Internal MO  53
  Internal MO  56
  Internal MO  59
  Internal MO  62
OPERATOR  0   PASS   3:  MOs    63 ...   75
  Reading integrals       ... ok
  Internal MO  65
  Internal MO  68
  Internal MO  71
  Internal MO  74
OPERATOR  0   PASS   4:  MOs    76 ...   76
  Reading integrals       ... ok
Time spent in pair loops =   463.228 sec
Deleting buffer (Ka|jb)[aa] ...done

-----------------------------------------------
 RI-MP2 CORRELATION ENERGY:     -3.536381715 Eh
-----------------------------------------------


-------
TIMINGS
-------

Total time                :  613.399 sec
Integral trafo            :  148.245 sec ( 24.2%)
I/O of integrals          :    5.274 sec (  0.9%)
K(i,j) Operators          :  383.616 sec ( 62.5%)
T(i,j) pair energies      :    3.822 sec (  0.6%)
V-calculation             :    0.046 sec (  0.0%)
V**(-1/2)                 :    1.686 sec (  0.3%)
Gamma(ia|P)               :    0.000 sec (  0.0%)
Gamma-Trafo               :    0.000 sec (  0.0%)
D(virtual)                :    0.000 sec (  0.0%)
D(internal)               :    0.000 sec (  0.0%)
W(virtual)                :    0.000 sec (  0.0%)
W(internal)               :    0.000 sec (  0.0%)
L(virtual)                :    0.000 sec (  0.0%)
L(internal)               :    0.000 sec (  0.0%)
G(D)                      :    0.000 sec (  0.0%)
G(Z)                      :    0.000 sec (  0.0%)
Z-Vector Solution         :    0.000 sec (  0.0%)
3-Index Derivative        :    0.000 sec (  0.0%)
2-Index Derivative        :    0.000 sec (  0.0%)
Separable Gradient        :    0.000 sec (  0.0%)


---------------------------------------
MP2 TOTAL ENERGY:    -1274.320872841 Eh
---------------------------------------

-------------------------   --------------------
FINAL SINGLE POINT ENERGY     -1274.320872841263
-------------------------   --------------------


                            ***************************************
                            *     ORCA property calculations      *
                            ***************************************


  WARNING: The energy has been calculated at the MP2 level but the densities
           used in the property calculations are still SCF densities
           MP2 response densities have not been calculated 
           use %mp2 Density relaxed end
           or  %mp2 Density unrelaxed end

                                    ---------------------
                                    Active property flags
                                    ---------------------
   (+) Dipole Moment


------------------------------------------------------------------------------
                       ORCA ELECTRIC PROPERTIES CALCULATION
------------------------------------------------------------------------------

Dipole Moment Calculation                       ... on
Quadrupole Moment Calculation                   ... off
Polarizability Calculation                      ... off
GBWName                                         ... CONFS/Conf600.orca.gbw
Electron density file                           ... CONFS/Conf600.orca.scfp
The origin for moment calculation is the CENTER OF MASS  = (31.773698, 32.907917 33.362768)

-------------
DIPOLE MOMENT
-------------
                                X             Y             Z
Electronic contribution:      8.92987       6.80980       7.15276
Nuclear contribution   :    -10.42375      -8.11713      -7.73063
                        -----------------------------------------
Total Dipole Moment    :     -1.49388      -1.30732      -0.57787
                        -----------------------------------------
Magnitude (a.u.)       :      2.06753
Magnitude (Debye)      :      5.25526



--------------------
Rotational spectrum 
--------------------
 
Rotational constants in cm-1:     0.011279     0.009333     0.006439 
Rotational constants in MHz :   338.126612   279.805084   193.033915 

 Dipole components along the rotational axes: 
x,y,z [a.u.] :    -1.165447    -1.243734     1.170282 
x,y,z [Debye]:    -2.962332    -3.161319     2.974619 

 

Timings for individual modules:

Sum of individual times         ...     6323.654 sec (= 105.394 min)
GTO integral calculation        ...        1.162 sec (=   0.019 min)   0.0 %
SCF iterations                  ...     5708.068 sec (=  95.134 min)  90.3 %
MP2 module                      ...      614.424 sec (=  10.240 min)   9.7 %
                             ****ORCA TERMINATED NORMALLY****
TOTAL RUN TIME: 0 days 1 hours 45 minutes 25 seconds 90 msec
