
                                 *****************
                                 * O   R   C   A *
                                 *****************

           --- An Ab Initio, DFT and Semiempirical electronic structure package ---

                  #######################################################
                  #                        -***-                        #
                  #          Department of theory and spectroscopy      #
                  #               Directorship: Frank Neese             #
                  #        Max Planck Institute fuer Kohlenforschung    #
                  #                Kaiser Wilhelm Platz 1               #
                  #                 D-45470 Muelheim/Ruhr               #
                  #                      Germany                        #
                  #                                                     #
                  #                  All rights reserved                #
                  #                        -***-                        #
                  #######################################################


                         Program Version 4.2.0 -  RELEASE  -


 With contributions from (in alphabetic order):
   Daniel Aravena         : Magnetic Suceptibility
   Michael Atanasov       : Ab Initio Ligand Field Theory (pilot matlab implementation)
   Alexander A. Auer      : GIAO ZORA, VPT2
   Ute Becker             : Parallelization
   Giovanni Bistoni       : ED, misc. LED, open-shell LED, HFLED
   Martin Brehm           : Molecular dynamics
   Dmytro Bykov           : SCF Hessian
   Vijay G. Chilkuri      : MRCI spin determinant printing, contributions to CSF-ICE
   Dipayan Datta          : RHF DLPNO-CCSD density
   Achintya Kumar Dutta   : EOM-CC, STEOM-CC
   Dmitry Ganyushin       : Spin-Orbit,Spin-Spin,Magnetic field MRCI
   Miquel Garcia          : C-PCM Hessian, Gaussian charge scheme
   Yang Guo               : DLPNO-NEVPT2, CIM, IAO-localization
   Andreas Hansen         : Spin unrestricted coupled pair/coupled cluster methods
   Benjamin Helmich-Paris : CASSCF linear response (MC-RPA)
   Lee Huntington         : MR-EOM, pCC
   Robert Izsak           : Overlap fitted RIJCOSX, COSX-SCS-MP3, EOM
   Christian Kollmar      : KDIIS, OOCD, Brueckner-CCSD(T), CCSD density
   Simone Kossmann        : Meta GGA functionals, TD-DFT gradient, OOMP2, MP2 Hessian
   Martin Krupicka        : AUTO-CI
   Lucas Lang             : DCDCAS
   Dagmar Lenk            : GEPOL surface, SMD
   Dimitrios Liakos       : Extrapolation schemes; Compound Job, initial MDCI parallelization
   Dimitrios Manganas     : Further ROCIS development; embedding schemes
   Dimitrios Pantazis     : SARC Basis sets
   Taras Petrenko         : DFT Hessian,TD-DFT gradient, ASA, ECA, R-Raman, ABS, FL, XAS/XES, NRVS
   Peter Pinski           : DLPNO-MP2, DLPNO-MP2 Gradient
   Christoph Reimann      : Effective Core Potentials
   Marius Retegan         : Local ZFS, SOC
   Christoph Riplinger    : Optimizer, TS searches, QM/MM, DLPNO-CCSD(T), (RO)-DLPNO pert. Triples
   Tobias Risthaus        : Range-separated hybrids, TD-DFT gradient, RPA, STAB
   Michael Roemelt        : Original ROCIS implementation
   Masaaki Saitow         : Open-shell DLPNO-CCSD energy and density
   Barbara Sandhoefer     : DKH picture change effects
   Avijit Sen             : IP-ROCIS
   Kantharuban Sivalingam : CASSCF convergence, NEVPT2, FIC-MRCI
   Bernardo de Souza      : ESD, SOC TD-DFT
   Georgi Stoychev        : AutoAux, RI-MP2 NMR
   Willem Van den Heuvel  : Paramagnetic NMR
   Boris Wezisla          : Elementary symmetry handling
   Frank Wennmohs         : Technical directorship


 We gratefully acknowledge several colleagues who have allowed us to
 interface, adapt or use parts of their codes:
   Stefan Grimme, W. Hujo, H. Kruse,             : VdW corrections, initial TS optimization,
                  C. Bannwarth                     DFT functionals, gCP, sTDA/sTD-DF
   Ed Valeev, F. Pavosevic, A. Kumar             : LibInt (2-el integral package), F12 methods
   Garnet Chan, S. Sharma, J. Yang, R. Olivares  : DMRG
   Ulf Ekstrom                                   : XCFun DFT Library
   Mihaly Kallay                                 : mrcc  (arbitrary order and MRCC methods)
   Andreas Klamt, Michael Diedenhofen            : otool_cosmo (COSMO solvation model)
   Jiri Pittner, Ondrej Demel                    : Mk-CCSD
   Frank Weinhold                                : gennbo (NPA and NBO analysis)
   Christopher J. Cramer and Donald G. Truhlar   : smd solvation model
   Lars Goerigk                                  : TD-DFT with DH, B97 family of functionals
   V. Asgeirsson, H. Jonsson                     : NEB implementation
   FAccTs GmbH                                   : IRC, NEB, NEB-TS, Multilevel, MM, QM/MM, CI optimization
   S Lehtola, MJT Oliveira, MAL Marques          : LibXC Library


 Your calculation uses the libint2 library for the computation of 2-el integrals
 For citations please refer to: http://libint.valeyev.net

 Your ORCA version has been built with support for libXC version: 4.2.3
 For citations please refer to: https://tddft.org/programs/libxc/

 This ORCA versions uses:
   CBLAS   interface :  Fast vector & matrix operations
   LAPACKE interface :  Fast linear algebra routines
   SCALAPACK package :  Parallel linear algebra routines


----- Orbital basis set information -----
Your calculation utilizes the basis: cc-pVTZ 
       H, B-Ne : Obtained from the ccRepo (grant-hill.group.shef.ac.uk/ccrepo) Feb. 2017
                 T. H. Dunning, Jr., J. Chem. Phys. 90, 1007 (1989)
            He : Obtained from the ccRepo (grant-hill.group.shef.ac.uk/ccrepo) Feb. 2017
                 D. E. Woon, T. H. Dunning, Jr., J. Chem. Phys. 100, 2975 (1994)
  Li-Be, Na-Mg : Obtained from the ccRepo (grant-hill.group.shef.ac.uk/ccrepo) Feb. 2017
                 B. P. Prascher, D. E. Woon, K. A. Peterson, T. H. Dunning, Jr., A. K. Wilson, Theor. Chem. Acc. 128, 69 (2011)
         Al-Ar : Obtained from the ccRepo (grant-hill.group.shef.ac.uk/ccrepo) Feb. 2017
                 D. E. Woon, T. H. Dunning, Jr., J. Chem. Phys. 98, 1358 (1993)
            Ca : Obtained from the Peterson Research Group Website (tyr0.chem.wsu.edu/~kipeters) Feb. 2017
                 J. Koput, K. A. Peterson, J. Phys. Chem. 106, 9595 (2002)
         Sc-Zn : Obtained from the ccRepo (grant-hill.group.shef.ac.uk/ccrepo) Feb. 2017
                 N. B. Balabanov, K. A. Peterson, J. Chem. Phys. 123, 064107 (2005)
                 N. B. Balabanov, K. A. Peterson, J. Chem. Phys. 125, 074110 (2006)
         Ga-Kr : Obtained from the ccRepo (grant-hill.group.shef.ac.uk/ccrepo) Feb. 2017
                 A. K. Wilson, D. E. Woon, K. A. Peterson, T. H. Dunning, Jr., J. Chem. Phys. 110, 7667 (1999)
             Y : Obtained from the ccRepo (grant-hill.group.shef.ac.uk/ccrepo) Feb. 2017
                 K. A. Peterson, D. Figgen, M. Dolg, H. Stoll, J. Chem. Phys. 126, 124101 (2007)
        Ag, Au : Obtained from the Peterson Research Group Website (tyr0.chem.wsu.edu/~kipeters) Feb. 2017
                 K. A. Peterson, C. Puzzarini, Theor. Chem. Acc. 114, 283 (2005)

----- AuxC basis set information -----
Your calculation utilizes the auxiliary basis: cc-pVTZ/C 
  Obtained from the EMSL Basis Set Exchange (bse.pnl.gov) Feb. 2017
  H-He, B-F, Al-Ar, Ga-Kr : F. Weigend, A. Kohn, C. Hattig, J. Chem. Phys. 116, 3175 (2002)
             Li-Be, Na-Mg : C. Haettig, Phys. Chem. Chem. Phys. 7, 59 (2005)
                       Ne : C. Haettig, Phys. Chem. Chem. Phys. 7, 59 (2005)
                            F. Weigend, A. Kohn, C. Hattig, J. Chem. Phys. 116, 3175 (2002)
                    Sc-Zn : J. G. Hill, J. A. Platts, J. Chem. Phys. 128, 044104 (2008)

================================================================================
                                        WARNINGS
                       Please study these warnings very carefully!
================================================================================


WARNING: No MP2 level density has been requested!
         To caclulate MP2 level properties use
         %mp2 Density relaxed end
         or
         %mp2 Density unrelaxed end

WARNING: Post HF methods need fully converged wavefunctions
  ===> : Setting SCFConvForced true
         You can overwrite this default with %scf ConvForced false 


INFO   : the flag for use of LIBINT has been found!

================================================================================
                                       INPUT FILE
================================================================================
NAME = CONFS/Conf898.orca
|  1> ! ri-mp2 cc-pvtz cc-pvtz/c TightSCF NoKeepInts
|  2> 
|  3> %scf
|  4>   MaxCore 4096
|  5> end
|  6> *xyz  0  1
|  7>     C       15.5189247   14.0194074   14.8558000
|  8>     C       14.8451341   15.3629246   15.1811076
|  9>     O       15.8414191   16.2033407   15.7869362
| 10>     C       15.7159479   17.5627399   15.7217321
| 11>     O       14.9024586   18.1056771   14.9932689
| 12>     C       16.6441327   18.2745823   16.6698638
| 13>     C       16.8522803   19.6125084   16.5650699
| 14>     C       16.0554655   20.6023009   15.7403294
| 15>     N       17.9003530   20.2339047   17.2480268
| 16>     C       18.8999329   19.5676584   17.9036248
| 17>     S       20.1663758   20.3632793   18.6099360
| 18>     N       18.8087929   18.1990944   17.9259304
| 19>     C       17.6691944   17.4088968   17.4228435
| 20>     C       17.0621700   16.5104518   18.4926777
| 21>     C       17.2106058   15.1128842   18.4238824
| 22>     C       16.6508195   14.2863603   19.4126538
| 23>     C       15.9407467   14.8628586   20.4799114
| 24>     C       15.7957157   16.2553489   20.5525650
| 25>     O       15.1118153   16.8143901   21.5825392
| 26>     C       16.3536566   17.0752434   19.5666634
| 27>     H       14.8046080   13.3368543   14.3795571
| 28>     H       15.8912936   13.5432381   15.7713005
| 29>     H       16.3634159   14.1657659   14.1709204
| 30>     H       14.4749596   15.8021962   14.2444876
| 31>     H       13.9957454   15.2222270   15.8623676
| 32>     H       14.9847969   20.5204245   15.9677698
| 33>     H       16.1793692   20.4014151   14.6685649
| 34>     H       16.3470974   21.6440451   15.9183758
| 35>     H       17.9909279   21.2369011   17.2203214
| 36>     H       19.5435593   17.7365515   18.4461176
| 37>     H       18.1740596   16.8078849   16.6532651
| 38>     H       17.7543715   14.6666822   17.5955504
| 39>     H       16.7675338   13.2059157   19.3500064
| 40>     H       15.5068073   14.2289286   21.2461032
| 41>     H       14.8254843   16.0959035   22.1661140
| 42>     H       16.2370289   18.1512137   19.6418158
| 43> *
| 44> 
| 45>                          ****END OF INPUT****
================================================================================

                       ****************************
                       * Single Point Calculation *
                       ****************************

---------------------------------
CARTESIAN COORDINATES (ANGSTROEM)
---------------------------------
  C     15.518925   14.019407   14.855800
  C     14.845134   15.362925   15.181108
  O     15.841419   16.203341   15.786936
  C     15.715948   17.562740   15.721732
  O     14.902459   18.105677   14.993269
  C     16.644133   18.274582   16.669864
  C     16.852280   19.612508   16.565070
  C     16.055466   20.602301   15.740329
  N     17.900353   20.233905   17.248027
  C     18.899933   19.567658   17.903625
  S     20.166376   20.363279   18.609936
  N     18.808793   18.199094   17.925930
  C     17.669194   17.408897   17.422843
  C     17.062170   16.510452   18.492678
  C     17.210606   15.112884   18.423882
  C     16.650820   14.286360   19.412654
  C     15.940747   14.862859   20.479911
  C     15.795716   16.255349   20.552565
  O     15.111815   16.814390   21.582539
  C     16.353657   17.075243   19.566663
  H     14.804608   13.336854   14.379557
  H     15.891294   13.543238   15.771301
  H     16.363416   14.165766   14.170920
  H     14.474960   15.802196   14.244488
  H     13.995745   15.222227   15.862368
  H     14.984797   20.520424   15.967770
  H     16.179369   20.401415   14.668565
  H     16.347097   21.644045   15.918376
  H     17.990928   21.236901   17.220321
  H     19.543559   17.736552   18.446118
  H     18.174060   16.807885   16.653265
  H     17.754372   14.666682   17.595550
  H     16.767534   13.205916   19.350006
  H     15.506807   14.228929   21.246103
  H     14.825484   16.095903   22.166114
  H     16.237029   18.151214   19.641816

----------------------------
CARTESIAN COORDINATES (A.U.)
----------------------------
  NO LB      ZA    FRAG     MASS         X           Y           Z
   0 C     6.0000    0    12.011   29.326518   26.492841   28.073394
   1 C     6.0000    0    12.011   28.053238   29.031720   28.688136
   2 O     8.0000    0    15.999   29.935944   30.619876   29.832986
   3 C     6.0000    0    12.011   29.698837   33.188769   29.709768
   4 O     8.0000    0    15.999   28.161565   34.214771   28.333172
   5 C     6.0000    0    12.011   31.452853   34.533956   31.501477
   6 C     6.0000    0    12.011   31.846194   37.062270   31.303446
   7 C     6.0000    0    12.011   30.340433   38.932706   29.744912
   8 N     7.0000    0    14.007   33.826765   38.236539   32.594047
   9 C     6.0000    0    12.011   35.715697   36.977515   33.832948
  10 S    16.0000    0    32.060   38.108927   38.481021   35.167682
  11 N     7.0000    0    14.007   35.543467   34.391304   33.875099
  12 C     6.0000    0    12.011   33.389938   32.898047   32.924403
  13 C     6.0000    0    12.011   32.242829   31.200232   34.946096
  14 C     6.0000    0    12.011   32.523332   28.559212   34.816092
  15 C     6.0000    0    12.011   31.465489   26.997308   36.684599
  16 C     6.0000    0    12.011   30.123646   28.086732   38.701424
  17 C     6.0000    0    12.011   29.849577   30.718158   38.838719
  18 O     8.0000    0    15.999   28.557192   31.774592   40.785088
  19 C     6.0000    0    12.011   30.903932   32.267534   36.975635
  20 H     1.0000    0     1.008   27.976655   25.203002   27.173425
  21 H     1.0000    0     1.008   30.030193   25.593011   29.803439
  22 H     1.0000    0     1.008   30.922375   26.769418   26.779159
  23 H     1.0000    0     1.008   27.353709   29.861823   26.918180
  24 H     1.0000    0     1.008   26.448126   28.765840   29.975531
  25 H     1.0000    0     1.008   28.317162   38.777982   30.174712
  26 H     1.0000    0     1.008   30.574577   38.553087   27.719570
  27 H     1.0000    0     1.008   30.891537   40.901318   30.081371
  28 H     1.0000    0     1.008   33.997927   40.131927   32.541691
  29 H     1.0000    0     1.008   36.931975   33.517225   34.858110
  30 H     1.0000    0     1.008   34.343995   31.762299   31.470110
  31 H     1.0000    0     1.008   33.550900   27.716013   33.250771
  32 H     1.0000    0     1.008   31.686047   24.955564   36.566213
  33 H     1.0000    0     1.008   29.303619   26.888778   40.149316
  34 H     1.0000    0     1.008   28.016105   30.416849   41.887885
  35 H     1.0000    0     1.008   30.683538   34.300823   37.117653

--------------------------------
INTERNAL COORDINATES (ANGSTROEM)
--------------------------------
 C      0   0   0     0.000000000000     0.00000000     0.00000000
 C      1   0   0     1.537809244985     0.00000000     0.00000000
 O      2   1   0     1.437327838366   107.23507584     0.00000000
 C      3   2   1     1.366733617662   119.85633898   155.14318364
 O      4   3   2     1.219509851585   122.17837970   348.35790825
 C      4   3   2     1.505722532850   112.55615238   166.30396935
 C      6   4   3     1.358069745604   120.77290546   167.03012951
 C      7   6   4     1.514859700070   127.23529214    12.53322584
 N      7   6   4     1.396789129896   121.03424345   193.13019318
 C      9   7   6     1.368522139518   124.45157629     9.78793099
 S     10   9   7     1.654015038240   121.98166225   175.93577408
 N     10   9   7     1.371776753516   116.42064453   356.98215660
 C     12  10   9     1.475192671213   125.46336998   353.69207908
 C     13  12  10     1.523229219688   112.59890279   237.55668679
 C     14  13  12     1.407110932583   120.62729404   250.02112401
 C     15  14  13     1.405052077468   120.51923982   179.93877838
 C     16  15  14     1.405557702821   119.62657700   359.81556880
 C     17  16  15     1.401906477675   119.93490949   359.96637306
 O     18  17  16     1.356869069985   120.04786148   180.06430269
 C     18  17  16     1.398401588924   120.30192632     0.05490901
 H      1   2   3     1.096783653242   110.49899155   180.55972889
 H      1   2   3     1.097058323632   110.57245762    60.71907950
 H      1   2   3     1.097108136829   110.65676782   300.45283105
 H      2   1   3     1.098747342849   108.45571111   119.99100738
 H      2   1   3     1.097894423856   110.99448277   239.25872911
 H      8   7   6     1.097617479569   110.58103111    52.69801653
 H      8   7   6     1.097445385874   110.65287319   293.83795691
 H      8   7   6     1.096348787514   113.11097821   173.01807921
 H      9   7   6     1.007458773406   119.79625913   185.20091510
 H     12  10   9     1.012137500517   114.58550791   182.10785464
 H     13  12  10     1.099252058383   100.18482230   120.01248619
 H     15  14  13     1.086697411207   119.85927475   359.38081127
 H     16  15  14     1.088534546177   120.04371653   179.79494373
 H     17  16  15     1.084997936477   119.90804634   180.01577578
 H     19  18  17     0.968900398976   107.49525093     1.42266763
 H     20  18  17     1.084878790518   119.32501834   180.37566586

---------------------------
INTERNAL COORDINATES (A.U.)
---------------------------
 C      0   0   0     0.000000000000     0.00000000     0.00000000
 C      1   0   0     2.906038319234     0.00000000     0.00000000
 O      2   1   0     2.716155979173   107.23507584     0.00000000
 C      3   2   1     2.582752235404   119.85633898   155.14318364
 O      4   3   2     2.304539637114   122.17837970   348.35790825
 C      4   3   2     2.845403220762   112.55615238   166.30396935
 C      6   4   3     2.566379889955   120.77290546   167.03012951
 C      7   6   4     2.862669964446   127.23529214    12.53322584
 N      7   6   4     2.639548922342   121.03424345   193.13019318
 C      9   7   6     2.586132051898   124.45157629     9.78793099
 S     10   9   7     3.125635443660   121.98166225   175.93577408
 N     10   9   7     2.592282381025   116.42064453   356.98215660
 C     12  10   9     2.787710143360   125.46336998   353.69207908
 C     13  12  10     2.878486064396   112.59890279   237.55668679
 C     14  13  12     2.659054302628   120.62729404   250.02112401
 C     15  14  13     2.655163630311   120.51923982   179.93877838
 C     16  15  14     2.656119123756   119.62657700   359.81556880
 C     17  16  15     2.649219308177   119.93490949   359.96637306
 O     18  17  16     2.564110941861   120.04786148   180.06430269
 C     18  17  16     2.642596028307   120.30192632     0.05490901
 H      1   2   3     2.072620732789   110.49899155   180.55972889
 H      1   2   3     2.073139784603   110.57245762    60.71907950
 H      1   2   3     2.073233917903   110.65676782   300.45283105
 H      2   1   3     2.076331568357   108.45571111   119.99100738
 H      2   1   3     2.074719785047   110.99448277   239.25872911
 H      8   7   6     2.074196436190   110.58103111    52.69801653
 H      8   7   6     2.073871226237   110.65287319   293.83795691
 H      8   7   6     2.071798955659   113.11097821   173.01807921
 H      9   7   6     1.903821172953   119.79625913   185.20091510
 H     12  10   9     1.912662685849   114.58550791   182.10785464
 H     13  12  10     2.077285342493   100.18482230   120.01248619
 H     15  14  13     2.053560497623   119.85927475   359.38081127
 H     16  15  14     2.057032179586   120.04371653   179.79494373
 H     17  16  15     2.050348955811   119.90804634   180.01577578
 H     19  18  17     1.830956405111   107.49525093     1.42266763
 H     20  18  17     2.050123802578   119.32501834   180.37566586

---------------------
BASIS SET INFORMATION
---------------------
There are 5 groups of distinct atoms

 Group   1 Type C   : 18s5p2d1f contracted to 4s3p2d1f pattern {8811/311/11/1}
 Group   2 Type O   : 18s5p2d1f contracted to 4s3p2d1f pattern {8811/311/11/1}
 Group   3 Type N   : 18s5p2d1f contracted to 4s3p2d1f pattern {8811/311/11/1}
 Group   4 Type S   : 41s16p2d1f contracted to 5s4p2d1f pattern {13131311/7711/11/1}
 Group   5 Type H   : 5s2p1d contracted to 3s2p1d pattern {311/11/1}

Atom   0C    basis set group =>   1
Atom   1C    basis set group =>   1
Atom   2O    basis set group =>   2
Atom   3C    basis set group =>   1
Atom   4O    basis set group =>   2
Atom   5C    basis set group =>   1
Atom   6C    basis set group =>   1
Atom   7C    basis set group =>   1
Atom   8N    basis set group =>   3
Atom   9C    basis set group =>   1
Atom  10S    basis set group =>   4
Atom  11N    basis set group =>   3
Atom  12C    basis set group =>   1
Atom  13C    basis set group =>   1
Atom  14C    basis set group =>   1
Atom  15C    basis set group =>   1
Atom  16C    basis set group =>   1
Atom  17C    basis set group =>   1
Atom  18O    basis set group =>   2
Atom  19C    basis set group =>   1
Atom  20H    basis set group =>   5
Atom  21H    basis set group =>   5
Atom  22H    basis set group =>   5
Atom  23H    basis set group =>   5
Atom  24H    basis set group =>   5
Atom  25H    basis set group =>   5
Atom  26H    basis set group =>   5
Atom  27H    basis set group =>   5
Atom  28H    basis set group =>   5
Atom  29H    basis set group =>   5
Atom  30H    basis set group =>   5
Atom  31H    basis set group =>   5
Atom  32H    basis set group =>   5
Atom  33H    basis set group =>   5
Atom  34H    basis set group =>   5
Atom  35H    basis set group =>   5
---------------------------------
AUXILIARY/C BASIS SET INFORMATION
---------------------------------
There are 5 groups of distinct atoms

 Group   1 Type C   : 8s6p5d3f1g contracted to 8s6p5d3f1g pattern {11111111/111111/11111/111/1}
 Group   2 Type O   : 8s6p5d3f1g contracted to 8s6p5d3f1g pattern {11111111/111111/11111/111/1}
 Group   3 Type N   : 8s6p5d3f1g contracted to 8s6p5d3f1g pattern {11111111/111111/11111/111/1}
 Group   4 Type S   : 10s8p7d5f2g contracted to 10s8p7d5f2g pattern {1111111111/11111111/1111111/11111/11}
 Group   5 Type H   : 4s3p2d1f contracted to 4s3p2d1f pattern {1111/111/11/1}

Atom   0C    basis set group =>   1
Atom   1C    basis set group =>   1
Atom   2O    basis set group =>   2
Atom   3C    basis set group =>   1
Atom   4O    basis set group =>   2
Atom   5C    basis set group =>   1
Atom   6C    basis set group =>   1
Atom   7C    basis set group =>   1
Atom   8N    basis set group =>   3
Atom   9C    basis set group =>   1
Atom  10S    basis set group =>   4
Atom  11N    basis set group =>   3
Atom  12C    basis set group =>   1
Atom  13C    basis set group =>   1
Atom  14C    basis set group =>   1
Atom  15C    basis set group =>   1
Atom  16C    basis set group =>   1
Atom  17C    basis set group =>   1
Atom  18O    basis set group =>   2
Atom  19C    basis set group =>   1
Atom  20H    basis set group =>   5
Atom  21H    basis set group =>   5
Atom  22H    basis set group =>   5
Atom  23H    basis set group =>   5
Atom  24H    basis set group =>   5
Atom  25H    basis set group =>   5
Atom  26H    basis set group =>   5
Atom  27H    basis set group =>   5
Atom  28H    basis set group =>   5
Atom  29H    basis set group =>   5
Atom  30H    basis set group =>   5
Atom  31H    basis set group =>   5
Atom  32H    basis set group =>   5
Atom  33H    basis set group =>   5
Atom  34H    basis set group =>   5
Atom  35H    basis set group =>   5
------------------------------------------------------------------------------
                           ORCA GTO INTEGRAL CALCULATION
------------------------------------------------------------------------------

                         BASIS SET STATISTICS AND STARTUP INFO

 # of primitive gaussian shells          ...  682
 # of primitive gaussian functions       ... 1312
 # of contracted shells                  ...  298
 # of contracted basis functions         ...  828
 Highest angular momentum                ...    3
 Maximum contraction depth               ...   13
 Integral package used                   ... LIBINT
 Integral threshhold            Thresh   ...  2.500e-11
 Primitive cut-off              TCut     ...  2.500e-12


------------------------------ INTEGRAL EVALUATION ----------------------------


 * One electron integrals 
 Pre-screening matrix                    ... done
 Shell pair data                         ... done (   0.013 sec)

-------------------------------------------------------------------------------
                                 ORCA SCF
-------------------------------------------------------------------------------

------------
SCF SETTINGS
------------
Hamiltonian:
 Ab initio Hamiltonian  Method          .... Hartree-Fock(GTOs)


General Settings:
 Integral files         IntName         .... CONFS/Conf898.orca
 Hartree-Fock type      HFTyp           .... RHF
 Total Charge           Charge          ....    0
 Multiplicity           Mult            ....    1
 Number of Electrons    NEL             ....  154
 Basis Dimension        Dim             ....  828
 Nuclear Repulsion      ENuc            ....   1685.9417445983 Eh

Convergence Acceleration:
 DIIS                   CNVDIIS         .... on
   Start iteration      DIISMaxIt       ....    12
   Startup error        DIISStart       ....  0.200000
   # of expansion vecs  DIISMaxEq       ....     5
   Bias factor          DIISBfac        ....   1.050
   Max. coefficient     DIISMaxC        ....  10.000
 Newton-Raphson         CNVNR           .... off
 SOSCF                  CNVSOSCF        .... on
   Start iteration      SOSCFMaxIt      ....   150
   Startup grad/error   SOSCFStart      ....  0.003300
 Level Shifting         CNVShift        .... on
   Level shift para.    LevelShift      ....    0.2500
   Turn off err/grad.   ShiftErr        ....    0.0010
 Zerner damping         CNVZerner       .... off
 Static damping         CNVDamp         .... on
   Fraction old density DampFac         ....    0.7000
   Max. Damping (<1)    DampMax         ....    0.9800
   Min. Damping (>=0)   DampMin         ....    0.0000
   Turn off err/grad.   DampErr         ....    0.1000
 Fernandez-Rico         CNVRico         .... off

SCF Procedure:
 Maximum # iterations   MaxIter         ....   125
 SCF integral mode      SCFMode         .... Direct
   Integral package                     .... LIBINT
 Reset frequency        DirectResetFreq ....    20
 Integral Threshold     Thresh          ....  2.500e-11 Eh
 Primitive CutOff       TCut            ....  2.500e-12 Eh

Convergence Tolerance:
 Convergence Check Mode ConvCheckMode   .... Total+1el-Energy
 Convergence forced     ConvForced      .... 1
 Energy Change          TolE            ....  1.000e-08 Eh
 1-El. energy change                    ....  1.000e-05 Eh
 Orbital Gradient       TolG            ....  1.000e-05
 Orbital Rotation angle TolX            ....  1.000e-05
 DIIS Error             TolErr          ....  5.000e-07


Diagonalization of the overlap matrix:
Smallest eigenvalue                        ... 3.469e-05
Time for diagonalization                   ...    0.281 sec
Threshold for overlap eigenvalues          ... 1.000e-08
Number of eigenvalues below threshold      ... 0
Time for construction of square roots      ...    0.284 sec
Total time needed                          ...    0.566 sec

-------------------
DFT GRID GENERATION
-------------------

General Integration Accuracy     IntAcc      ...  4.340
Radial Grid Type                 RadialGrid  ... Gauss-Chebyshev
Angular Grid (max. acc.)         AngularGrid ... Lebedev-110
Angular grid pruning method      GridPruning ... 3 (G Style)
Weight generation scheme         WeightScheme... Becke
Basis function cutoff            BFCut       ...    1.0000e-11
Integration weight cutoff        WCut        ...    1.0000e-14
Grids for H and He will be reduced by one unit

# of grid points (after initial pruning)     ...  46246 (   0.0 sec)
# of grid points (after weights+screening)   ...  41421 (   0.3 sec)
nearest neighbour list constructed           ...    0.0 sec
Grid point re-assignment to atoms done       ...    0.0 sec
Grid point division into batches done        ...    0.0 sec
Reduced shell lists constructed in    1.3 sec

Total number of grid points                  ...    41421
Total number of batches                      ...      666
Average number of points per batch           ...       62
Average number of grid points per atom       ...     1151
Average number of shells per batch           ...   145.51 (48.83%)
Average number of basis functions per batch  ...   369.25 (44.60%)
Average number of large shells per batch     ...    92.65 (63.67%)
Average number of large basis fcns per batch ...   238.89 (64.70%)
Maximum spatial batch extension              ...  22.05, 20.95, 20.70 au
Average spatial batch extension              ...   3.56,  3.35,  3.47 au

Time for grid setup =    1.637 sec

------------------------------
INITIAL GUESS: MODEL POTENTIAL
------------------------------
Loading Hartree-Fock densities                     ... done
Calculating cut-offs                               ... done
Setting up the integral package                    ... done
Initializing the effective Hamiltonian             ... done
Starting the Coulomb interaction                   ... done (   4.0 sec)
Reading the grid                                   ... done
Mapping shells                                     ... done
Starting the XC term evaluation                    ... done (   1.0 sec)
Transforming the Hamiltonian                       ... done (   0.2 sec)
Diagonalizing the Hamiltonian                      ... done (   0.3 sec)
Back transforming the eigenvectors                 ... done (   0.1 sec)
Now organizing SCF variables                       ... done
                      ------------------
                      INITIAL GUESS DONE (   8.3 sec)
                      ------------------
--------------
SCF ITERATIONS
--------------
ITER       Energy         Delta-E        Max-DP      RMS-DP      [F,P]     Damp
               ***  Starting incremental Fock matrix formation  ***
  0  -1270.0184431065   0.000000000000 0.04931050  0.00042509  0.3043346 0.7000
  1  -1270.2856854688  -0.267242362343 0.03607609  0.00034165  0.1787271 0.7000
                               ***Turning on DIIS***
  2  -1270.4524227531  -0.166737284300 0.02583352  0.00023143  0.1096626 0.7000
  3  -1272.5832702287  -2.130847475515 0.06312323  0.00050955  0.0829503 0.0000
  4  -1270.7623480640   1.820922164621 0.00690178  0.00009197  0.0072201 0.0000
  5  -1270.8200183591  -0.057670295088 0.00299935  0.00004837  0.0046365 0.0000
                      *** Initiating the SOSCF procedure ***
                           *** Shutting down DIIS ***
                      *** Re-Reading the Fockian *** 
                      *** Removing any level shift *** 
ITER      Energy       Delta-E        Grad      Rot      Max-DP    RMS-DP
  6  -1270.79996973   0.0200486253  0.001806  0.001806  0.001618  0.000024
               *** Restarting incremental Fock matrix formation ***
  7  -1270.81480679  -0.0148370568  0.000876  0.002219  0.001265  0.000014
  8  -1270.81484893  -0.0000421403  0.000437  0.002425  0.001375  0.000015
  9  -1270.81486444  -0.0000155079  0.000184  0.000348  0.000344  0.000004
 10  -1270.81486631  -0.0000018742  0.000049  0.000131  0.000112  0.000001
 11  -1270.81486650  -0.0000001820  0.000025  0.000116  0.000054  0.000001
 12  -1270.81486655  -0.0000000576  0.000010  0.000041  0.000032  0.000000
 13  -1270.81486655  -0.0000000023  0.000003  0.000013  0.000007  0.000000
                  ***Gradient check signals convergence***
              ***Rediagonalizing the Fockian in SOSCF/NRSCF***

               *****************************************************
               *                     SUCCESS                       *
               *           SCF CONVERGED AFTER  14 CYCLES          *
               *****************************************************


----------------
TOTAL SCF ENERGY
----------------

Total Energy       :        -1270.81486654 Eh          -34580.63056 eV

Components:
Nuclear Repulsion  :         1685.94174460 Eh           45876.80720 eV
Electronic Energy  :        -2956.75661114 Eh          -80457.43777 eV
One Electron Energy:        -5093.14058036 Eh         -138591.40104 eV
Two Electron Energy:         2136.38396922 Eh           58133.96328 eV

Virial components:
Potential Energy   :        -2539.76899527 Eh          -69110.62788 eV
Kinetic Energy     :         1268.95412873 Eh           34529.99731 eV
Virial Ratio       :            2.00146636


---------------
SCF CONVERGENCE
---------------

  Last Energy change         ...    1.3464e-08  Tolerance :   1.0000e-08
  Last MAX-Density change    ...    2.0314e-06  Tolerance :   1.0000e-07
  Last RMS-Density change    ...    2.6621e-08  Tolerance :   5.0000e-09
  Last Orbital Gradient      ...    1.4471e-06  Tolerance :   1.0000e-05
  Last Orbital Rotation      ...    3.2048e-06  Tolerance :   1.0000e-05

             **** THE GBW FILE WAS UPDATED (CONFS/Conf898.orca.gbw) ****
             **** DENSITY FILE WAS UPDATED (CONFS/Conf898.orca.scfp) ****
             **** ENERGY FILE WAS UPDATED (CONFS/Conf898.orca.en.tmp) ****
             **** THE GBW FILE WAS UPDATED (CONFS/Conf898.orca.gbw) ****
             **** DENSITY FILE WAS UPDATED (CONFS/Conf898.orca.scfp) ****
----------------
ORBITAL ENERGIES
----------------

  NO   OCC          E(Eh)            E(eV) 
   0   2.0000     -91.888838     -2500.4224 
   1   2.0000     -20.601261      -560.5888 
   2   2.0000     -20.596100      -560.4484 
   3   2.0000     -20.540983      -558.9486 
   4   2.0000     -15.629143      -425.2906 
   5   2.0000     -15.606993      -424.6879 
   6   2.0000     -11.394586      -310.0625 
   7   2.0000     -11.383470      -309.7600 
   8   2.0000     -11.337320      -308.5042 
   9   2.0000     -11.313252      -307.8492 
  10   2.0000     -11.307558      -307.6943 
  11   2.0000     -11.295519      -307.3667 
  12   2.0000     -11.260411      -306.4114 
  13   2.0000     -11.259164      -306.3774 
  14   2.0000     -11.254770      -306.2579 
  15   2.0000     -11.251470      -306.1681 
  16   2.0000     -11.243217      -305.9435 
  17   2.0000     -11.238622      -305.8184 
  18   2.0000     -11.238386      -305.8120 
  19   2.0000     -11.231149      -305.6151 
  20   2.0000      -8.893908      -242.0155 
  21   2.0000      -6.575480      -178.9279 
  22   2.0000      -6.573482      -178.8735 
  23   2.0000      -6.572891      -178.8575 
  24   2.0000      -1.451781       -39.5050 
  25   2.0000      -1.415767       -38.5250 
  26   2.0000      -1.354443       -36.8563 
  27   2.0000      -1.340333       -36.4723 
  28   2.0000      -1.238221       -33.6937 
  29   2.0000      -1.157248       -31.4903 
  30   2.0000      -1.121042       -30.5051 
  31   2.0000      -1.043343       -28.3908 
  32   2.0000      -1.040372       -28.3100 
  33   2.0000      -1.014712       -27.6117 
  34   2.0000      -0.996368       -27.1125 
  35   2.0000      -0.984674       -26.7943 
  36   2.0000      -0.921662       -25.0797 
  37   2.0000      -0.888443       -24.1758 
  38   2.0000      -0.846172       -23.0255 
  39   2.0000      -0.837546       -22.7908 
  40   2.0000      -0.833817       -22.6893 
  41   2.0000      -0.817347       -22.2411 
  42   2.0000      -0.765601       -20.8330 
  43   2.0000      -0.733199       -19.9514 
  44   2.0000      -0.720551       -19.6072 
  45   2.0000      -0.694878       -18.9086 
  46   2.0000      -0.685600       -18.6561 
  47   2.0000      -0.679209       -18.4822 
  48   2.0000      -0.678305       -18.4576 
  49   2.0000      -0.663019       -18.0417 
  50   2.0000      -0.646730       -17.5984 
  51   2.0000      -0.640983       -17.4420 
  52   2.0000      -0.633724       -17.2445 
  53   2.0000      -0.606493       -16.5035 
  54   2.0000      -0.601275       -16.3615 
  55   2.0000      -0.598904       -16.2970 
  56   2.0000      -0.596916       -16.2429 
  57   2.0000      -0.577225       -15.7071 
  58   2.0000      -0.569567       -15.4987 
  59   2.0000      -0.567842       -15.4518 
  60   2.0000      -0.561647       -15.2832 
  61   2.0000      -0.548151       -14.9159 
  62   2.0000      -0.541402       -14.7323 
  63   2.0000      -0.524189       -14.2639 
  64   2.0000      -0.523748       -14.2519 
  65   2.0000      -0.513047       -13.9607 
  66   2.0000      -0.502359       -13.6699 
  67   2.0000      -0.497164       -13.5285 
  68   2.0000      -0.484276       -13.1778 
  69   2.0000      -0.464143       -12.6300 
  70   2.0000      -0.459109       -12.4930 
  71   2.0000      -0.446744       -12.1565 
  72   2.0000      -0.352985        -9.6052 
  73   2.0000      -0.349477        -9.5098 
  74   2.0000      -0.327967        -8.9244 
  75   2.0000      -0.320605        -8.7241 
  76   2.0000      -0.318023        -8.6539 
  77   0.0000       0.077319         2.1039 
  78   0.0000       0.104522         2.8442 
  79   0.0000       0.124861         3.3977 
  80   0.0000       0.132748         3.6123 
  81   0.0000       0.136031         3.7016 
  82   0.0000       0.140383         3.8200 
  83   0.0000       0.153461         4.1759 
  84   0.0000       0.156765         4.2658 
  85   0.0000       0.163783         4.4568 
  86   0.0000       0.171901         4.6777 
  87   0.0000       0.175341         4.7713 
  88   0.0000       0.190428         5.1818 
  89   0.0000       0.193230         5.2581 
  90   0.0000       0.200158         5.4466 
  91   0.0000       0.212228         5.7750 
  92   0.0000       0.213756         5.8166 
  93   0.0000       0.219629         5.9764 
  94   0.0000       0.222914         6.0658 
  95   0.0000       0.232371         6.3231 
  96   0.0000       0.246616         6.7108 
  97   0.0000       0.250676         6.8212 
  98   0.0000       0.271311         7.3828 
  99   0.0000       0.273936         7.4542 
 100   0.0000       0.294559         8.0154 
 101   0.0000       0.309992         8.4353 
 102   0.0000       0.311089         8.4652 
 103   0.0000       0.317030         8.6268 
 104   0.0000       0.324024         8.8171 
 105   0.0000       0.328766         8.9462 
 106   0.0000       0.343388         9.3441 
 107   0.0000       0.346434         9.4270 
 108   0.0000       0.359667         9.7870 
 109   0.0000       0.369697        10.0600 
 110   0.0000       0.371095        10.0980 
 111   0.0000       0.377805        10.2806 
 112   0.0000       0.387192        10.5360 
 113   0.0000       0.389004        10.5853 
 114   0.0000       0.393282        10.7017 
 115   0.0000       0.406049        11.0492 
 116   0.0000       0.410275        11.1641 
 117   0.0000       0.421639        11.4734 
 118   0.0000       0.429360        11.6835 
 119   0.0000       0.438212        11.9244 
 120   0.0000       0.443804        12.0765 
 121   0.0000       0.447146        12.1675 
 122   0.0000       0.451855        12.2956 
 123   0.0000       0.456945        12.4341 
 124   0.0000       0.460776        12.5384 
 125   0.0000       0.469823        12.7845 
 126   0.0000       0.474041        12.8993 
 127   0.0000       0.481175        13.0934 
 128   0.0000       0.485784        13.2189 
 129   0.0000       0.493422        13.4267 
 130   0.0000       0.498200        13.5567 
 131   0.0000       0.505329        13.7507 
 132   0.0000       0.515886        14.0380 
 133   0.0000       0.519457        14.1352 
 134   0.0000       0.524325        14.2676 
 135   0.0000       0.530323        14.4308 
 136   0.0000       0.534668        14.5491 
 137   0.0000       0.534953        14.5568 
 138   0.0000       0.541001        14.7214 
 139   0.0000       0.545239        14.8367 
 140   0.0000       0.553781        15.0691 
 141   0.0000       0.560828        15.2609 
 142   0.0000       0.564203        15.3527 
 143   0.0000       0.569536        15.4979 
 144   0.0000       0.570688        15.5292 
 145   0.0000       0.576488        15.6870 
 146   0.0000       0.579104        15.7582 
 147   0.0000       0.580041        15.7837 
 148   0.0000       0.589230        16.0338 
 149   0.0000       0.599521        16.3138 
 150   0.0000       0.605016        16.4633 
 151   0.0000       0.607201        16.5228 
 152   0.0000       0.610739        16.6190 
 153   0.0000       0.613283        16.6883 
 154   0.0000       0.615139        16.7388 
 155   0.0000       0.619258        16.8509 
 156   0.0000       0.627820        17.0839 
 157   0.0000       0.630251        17.1500 
 158   0.0000       0.632009        17.1978 
 159   0.0000       0.638686        17.3795 
 160   0.0000       0.645491        17.5647 
 161   0.0000       0.648483        17.6461 
 162   0.0000       0.655012        17.8238 
 163   0.0000       0.657968        17.9042 
 164   0.0000       0.661064        17.9885 
 165   0.0000       0.666073        18.1248 
 166   0.0000       0.673000        18.3133 
 167   0.0000       0.678099        18.4520 
 168   0.0000       0.685554        18.6549 
 169   0.0000       0.693654        18.8753 
 170   0.0000       0.700826        19.0704 
 171   0.0000       0.708577        19.2813 
 172   0.0000       0.713264        19.4089 
 173   0.0000       0.720845        19.6152 
 174   0.0000       0.725785        19.7496 
 175   0.0000       0.728107        19.8128 
 176   0.0000       0.735063        20.0021 
 177   0.0000       0.746135        20.3034 
 178   0.0000       0.750947        20.4343 
 179   0.0000       0.760285        20.6884 
 180   0.0000       0.763490        20.7756 
 181   0.0000       0.766382        20.8543 
 182   0.0000       0.778826        21.1929 
 183   0.0000       0.780877        21.2488 
 184   0.0000       0.789619        21.4866 
 185   0.0000       0.796108        21.6632 
 186   0.0000       0.804389        21.8885 
 187   0.0000       0.818905        22.2835 
 188   0.0000       0.826015        22.4770 
 189   0.0000       0.831091        22.6151 
 190   0.0000       0.837387        22.7865 
 191   0.0000       0.843836        22.9619 
 192   0.0000       0.848409        23.0864 
 193   0.0000       0.857627        23.3372 
 194   0.0000       0.861595        23.4452 
 195   0.0000       0.876191        23.8424 
 196   0.0000       0.883795        24.0493 
 197   0.0000       0.888082        24.1659 
 198   0.0000       0.898150        24.4399 
 199   0.0000       0.907758        24.7014 
 200   0.0000       0.912966        24.8431 
 201   0.0000       0.913999        24.8712 
 202   0.0000       0.922237        25.0953 
 203   0.0000       0.932107        25.3639 
 204   0.0000       0.939410        25.5626 
 205   0.0000       0.942665        25.6512 
 206   0.0000       0.948492        25.8098 
 207   0.0000       0.953788        25.9539 
 208   0.0000       0.960566        26.1383 
 209   0.0000       0.971023        26.4229 
 210   0.0000       0.978615        26.6295 
 211   0.0000       0.987973        26.8841 
 212   0.0000       0.991798        26.9882 
 213   0.0000       0.997303        27.1380 
 214   0.0000       1.004621        27.3371 
 215   0.0000       1.020338        27.7648 
 216   0.0000       1.023673        27.8556 
 217   0.0000       1.029954        28.0265 
 218   0.0000       1.034602        28.1529 
 219   0.0000       1.043898        28.4059 
 220   0.0000       1.050482        28.5851 
 221   0.0000       1.057989        28.7893 
 222   0.0000       1.065276        28.9876 
 223   0.0000       1.067660        29.0525 
 224   0.0000       1.078305        29.3422 
 225   0.0000       1.079780        29.3823 
 226   0.0000       1.088151        29.6101 
 227   0.0000       1.104220        30.0473 
 228   0.0000       1.105199        30.0740 
 229   0.0000       1.123935        30.5838 
 230   0.0000       1.128403        30.7054 
 231   0.0000       1.132288        30.8111 
 232   0.0000       1.142976        31.1019 
 233   0.0000       1.151731        31.3402 
 234   0.0000       1.155203        31.4347 
 235   0.0000       1.159874        31.5618 
 236   0.0000       1.167478        31.7687 
 237   0.0000       1.171948        31.8903 
 238   0.0000       1.176968        32.0269 
 239   0.0000       1.182334        32.1729 
 240   0.0000       1.190788        32.4030 
 241   0.0000       1.191448        32.4209 
 242   0.0000       1.202666        32.7262 
 243   0.0000       1.214995        33.0617 
 244   0.0000       1.223113        33.2826 
 245   0.0000       1.225994        33.3610 
 246   0.0000       1.232598        33.5407 
 247   0.0000       1.239466        33.7276 
 248   0.0000       1.242990        33.8235 
 249   0.0000       1.250785        34.0356 
 250   0.0000       1.256107        34.1804 
 251   0.0000       1.268740        34.5242 
 252   0.0000       1.272147        34.6169 
 253   0.0000       1.279454        34.8157 
 254   0.0000       1.287664        35.0391 
 255   0.0000       1.290239        35.1092 
 256   0.0000       1.293653        35.2021 
 257   0.0000       1.306233        35.5444 
 258   0.0000       1.320201        35.9245 
 259   0.0000       1.323500        36.0143 
 260   0.0000       1.337148        36.3856 
 261   0.0000       1.345391        36.6099 
 262   0.0000       1.349001        36.7082 
 263   0.0000       1.356069        36.9005 
 264   0.0000       1.363802        37.1109 
 265   0.0000       1.378491        37.5107 
 266   0.0000       1.383755        37.6539 
 267   0.0000       1.391388        37.8616 
 268   0.0000       1.398990        38.0685 
 269   0.0000       1.417041        38.5596 
 270   0.0000       1.418777        38.6069 
 271   0.0000       1.423962        38.7480 
 272   0.0000       1.434509        39.0350 
 273   0.0000       1.444040        39.2943 
 274   0.0000       1.454470        39.5782 
 275   0.0000       1.462446        39.7952 
 276   0.0000       1.466876        39.9157 
 277   0.0000       1.481589        40.3161 
 278   0.0000       1.484421        40.3931 
 279   0.0000       1.492402        40.6103 
 280   0.0000       1.498048        40.7640 
 281   0.0000       1.499978        40.8165 
 282   0.0000       1.500721        40.8367 
 283   0.0000       1.513145        41.1748 
 284   0.0000       1.520688        41.3800 
 285   0.0000       1.524857        41.4935 
 286   0.0000       1.529694        41.6251 
 287   0.0000       1.531701        41.6797 
 288   0.0000       1.537697        41.8429 
 289   0.0000       1.541157        41.9370 
 290   0.0000       1.551925        42.2300 
 291   0.0000       1.559799        42.4443 
 292   0.0000       1.564870        42.5823 
 293   0.0000       1.580065        42.9958 
 294   0.0000       1.580231        43.0003 
 295   0.0000       1.590847        43.2892 
 296   0.0000       1.594848        43.3980 
 297   0.0000       1.603615        43.6366 
 298   0.0000       1.616146        43.9776 
 299   0.0000       1.619908        44.0799 
 300   0.0000       1.631249        44.3885 
 301   0.0000       1.638135        44.5759 
 302   0.0000       1.640969        44.6530 
 303   0.0000       1.652698        44.9722 
 304   0.0000       1.659142        45.1475 
 305   0.0000       1.666975        45.3607 
 306   0.0000       1.674075        45.5539 
 307   0.0000       1.684653        45.8417 
 308   0.0000       1.690142        45.9911 
 309   0.0000       1.699650        46.2498 
 310   0.0000       1.705497        46.4089 
 311   0.0000       1.725968        46.9660 
 312   0.0000       1.727442        47.0061 
 313   0.0000       1.734729        47.2044 
 314   0.0000       1.740690        47.3666 
 315   0.0000       1.758414        47.8489 
 316   0.0000       1.777168        48.3592 
 317   0.0000       1.780267        48.4435 
 318   0.0000       1.785899        48.5968 
 319   0.0000       1.807531        49.1854 
 320   0.0000       1.814753        49.3819 
 321   0.0000       1.819264        49.5047 
 322   0.0000       1.834756        49.9263 
 323   0.0000       1.838097        50.0172 
 324   0.0000       1.851604        50.3847 
 325   0.0000       1.862180        50.6725 
 326   0.0000       1.871276        50.9200 
 327   0.0000       1.871507        50.9263 
 328   0.0000       1.902460        51.7686 
 329   0.0000       1.904594        51.8266 
 330   0.0000       1.918099        52.1941 
 331   0.0000       1.925864        52.4054 
 332   0.0000       1.936074        52.6832 
 333   0.0000       1.944244        52.9056 
 334   0.0000       1.955434        53.2101 
 335   0.0000       1.960623        53.3513 
 336   0.0000       1.980882        53.9025 
 337   0.0000       1.994058        54.2611 
 338   0.0000       2.003547        54.5193 
 339   0.0000       2.014558        54.8189 
 340   0.0000       2.021573        55.0098 
 341   0.0000       2.029732        55.2318 
 342   0.0000       2.037332        55.4386 
 343   0.0000       2.074657        56.4543 
 344   0.0000       2.094373        56.9908 
 345   0.0000       2.113623        57.5146 
 346   0.0000       2.129428        57.9447 
 347   0.0000       2.132923        58.0398 
 348   0.0000       2.155103        58.6433 
 349   0.0000       2.160891        58.8008 
 350   0.0000       2.184278        59.4372 
 351   0.0000       2.202861        59.9429 
 352   0.0000       2.208555        60.0978 
 353   0.0000       2.211948        60.1902 
 354   0.0000       2.226627        60.5896 
 355   0.0000       2.259835        61.4932 
 356   0.0000       2.278404        61.9985 
 357   0.0000       2.281973        62.0957 
 358   0.0000       2.290735        62.3341 
 359   0.0000       2.304392        62.7057 
 360   0.0000       2.317212        63.0545 
 361   0.0000       2.326399        63.3045 
 362   0.0000       2.340512        63.6886 
 363   0.0000       2.341152        63.7060 
 364   0.0000       2.364295        64.3357 
 365   0.0000       2.373904        64.5972 
 366   0.0000       2.377531        64.6959 
 367   0.0000       2.390404        65.0462 
 368   0.0000       2.406722        65.4902 
 369   0.0000       2.417607        65.7864 
 370   0.0000       2.436503        66.3006 
 371   0.0000       2.452956        66.7483 
 372   0.0000       2.468449        67.1699 
 373   0.0000       2.477686        67.4213 
 374   0.0000       2.480752        67.5047 
 375   0.0000       2.495475        67.9053 
 376   0.0000       2.501578        68.0714 
 377   0.0000       2.519332        68.5545 
 378   0.0000       2.538481        69.0756 
 379   0.0000       2.540215        69.1228 
 380   0.0000       2.553166        69.4752 
 381   0.0000       2.571819        69.9828 
 382   0.0000       2.576334        70.1056 
 383   0.0000       2.597708        70.6872 
 384   0.0000       2.609262        71.0016 
 385   0.0000       2.617335        71.2213 
 386   0.0000       2.625202        71.4354 
 387   0.0000       2.641823        71.8877 
 388   0.0000       2.648606        72.0722 
 389   0.0000       2.659530        72.3695 
 390   0.0000       2.674429        72.7749 
 391   0.0000       2.686907        73.1145 
 392   0.0000       2.706415        73.6453 
 393   0.0000       2.710877        73.7667 
 394   0.0000       2.720807        74.0369 
 395   0.0000       2.724962        74.1500 
 396   0.0000       2.735045        74.4244 
 397   0.0000       2.750411        74.8425 
 398   0.0000       2.752892        74.9100 
 399   0.0000       2.757461        75.0343 
 400   0.0000       2.771185        75.4078 
 401   0.0000       2.775181        75.5165 
 402   0.0000       2.784571        75.7720 
 403   0.0000       2.788439        75.8773 
 404   0.0000       2.800381        76.2022 
 405   0.0000       2.821054        76.7648 
 406   0.0000       2.832292        77.0706 
 407   0.0000       2.840431        77.2921 
 408   0.0000       2.848431        77.5097 
 409   0.0000       2.855334        77.6976 
 410   0.0000       2.866395        77.9986 
 411   0.0000       2.874255        78.2124 
 412   0.0000       2.881601        78.4123 
 413   0.0000       2.894630        78.7669 
 414   0.0000       2.899056        78.8873 
 415   0.0000       2.903107        78.9976 
 416   0.0000       2.928831        79.6976 
 417   0.0000       2.938227        79.9532 
 418   0.0000       2.944003        80.1104 
 419   0.0000       2.949921        80.2714 
 420   0.0000       2.963885        80.6514 
 421   0.0000       2.980046        81.0912 
 422   0.0000       2.981051        81.1185 
 423   0.0000       2.991895        81.4136 
 424   0.0000       2.997153        81.5567 
 425   0.0000       3.014106        82.0180 
 426   0.0000       3.025050        82.3158 
 427   0.0000       3.031791        82.4992 
 428   0.0000       3.036061        82.6154 
 429   0.0000       3.040181        82.7275 
 430   0.0000       3.045663        82.8767 
 431   0.0000       3.061879        83.3180 
 432   0.0000       3.074333        83.6569 
 433   0.0000       3.077007        83.7296 
 434   0.0000       3.079527        83.7982 
 435   0.0000       3.084734        83.9399 
 436   0.0000       3.089770        84.0769 
 437   0.0000       3.095602        84.2356 
 438   0.0000       3.103907        84.4616 
 439   0.0000       3.106396        84.5293 
 440   0.0000       3.114189        84.7414 
 441   0.0000       3.123581        84.9970 
 442   0.0000       3.125656        85.0534 
 443   0.0000       3.137738        85.3822 
 444   0.0000       3.140605        85.4602 
 445   0.0000       3.145222        85.5858 
 446   0.0000       3.150596        85.7321 
 447   0.0000       3.161275        86.0227 
 448   0.0000       3.173838        86.3645 
 449   0.0000       3.186623        86.7124 
 450   0.0000       3.190210        86.8100 
 451   0.0000       3.196742        86.9878 
 452   0.0000       3.209782        87.3426 
 453   0.0000       3.218491        87.5796 
 454   0.0000       3.227485        87.8243 
 455   0.0000       3.233057        87.9760 
 456   0.0000       3.245721        88.3206 
 457   0.0000       3.247956        88.3814 
 458   0.0000       3.253081        88.5208 
 459   0.0000       3.259363        88.6918 
 460   0.0000       3.265491        88.8585 
 461   0.0000       3.267581        88.9154 
 462   0.0000       3.285141        89.3932 
 463   0.0000       3.291436        89.5645 
 464   0.0000       3.294665        89.6524 
 465   0.0000       3.298046        89.7444 
 466   0.0000       3.304471        89.9192 
 467   0.0000       3.315169        90.2103 
 468   0.0000       3.315840        90.2286 
 469   0.0000       3.323802        90.4453 
 470   0.0000       3.333475        90.7085 
 471   0.0000       3.341370        90.9233 
 472   0.0000       3.348436        91.1156 
 473   0.0000       3.352411        91.2237 
 474   0.0000       3.360185        91.4353 
 475   0.0000       3.366371        91.6036 
 476   0.0000       3.375568        91.8539 
 477   0.0000       3.383257        92.0631 
 478   0.0000       3.385704        92.1297 
 479   0.0000       3.390948        92.2724 
 480   0.0000       3.392379        92.3113 
 481   0.0000       3.397001        92.4371 
 482   0.0000       3.405792        92.6763 
 483   0.0000       3.411652        92.8358 
 484   0.0000       3.412349        92.8547 
 485   0.0000       3.416417        92.9654 
 486   0.0000       3.421692        93.1090 
 487   0.0000       3.426384        93.2367 
 488   0.0000       3.437900        93.5500 
 489   0.0000       3.442094        93.6641 
 490   0.0000       3.444321        93.7247 
 491   0.0000       3.448888        93.8490 
 492   0.0000       3.452784        93.9550 
 493   0.0000       3.460341        94.1607 
 494   0.0000       3.461469        94.1914 
 495   0.0000       3.471907        94.4754 
 496   0.0000       3.475646        94.5771 
 497   0.0000       3.480866        94.7192 
 498   0.0000       3.487709        94.9054 
 499   0.0000       3.497460        95.1707 
 500   0.0000       3.505311        95.3844 
 501   0.0000       3.523521        95.8799 
 502   0.0000       3.530347        96.0656 
 503   0.0000       3.531979        96.1100 
 504   0.0000       3.537055        96.2482 
 505   0.0000       3.542656        96.4006 
 506   0.0000       3.546745        96.5118 
 507   0.0000       3.550362        96.6103 
 508   0.0000       3.558272        96.8255 
 509   0.0000       3.574832        97.2761 
 510   0.0000       3.582573        97.4868 
 511   0.0000       3.587574        97.6228 
 512   0.0000       3.606182        98.1292 
 513   0.0000       3.609787        98.2273 
 514   0.0000       3.616447        98.4085 
 515   0.0000       3.626251        98.6753 
 516   0.0000       3.628398        98.7337 
 517   0.0000       3.632967        98.8581 
 518   0.0000       3.634541        98.9009 
 519   0.0000       3.641892        99.1009 
 520   0.0000       3.647048        99.2412 
 521   0.0000       3.649240        99.3009 
 522   0.0000       3.657012        99.5123 
 523   0.0000       3.665366        99.7397 
 524   0.0000       3.669518        99.8527 
 525   0.0000       3.676504       100.0428 
 526   0.0000       3.687356       100.3381 
 527   0.0000       3.691666       100.4553 
 528   0.0000       3.701260       100.7164 
 529   0.0000       3.705558       100.8334 
 530   0.0000       3.709769       100.9479 
 531   0.0000       3.713898       101.0603 
 532   0.0000       3.731253       101.5326 
 533   0.0000       3.734491       101.6207 
 534   0.0000       3.739504       101.7571 
 535   0.0000       3.745816       101.9288 
 536   0.0000       3.747931       101.9864 
 537   0.0000       3.760664       102.3329 
 538   0.0000       3.766218       102.4840 
 539   0.0000       3.770114       102.5900 
 540   0.0000       3.771081       102.6163 
 541   0.0000       3.779849       102.8549 
 542   0.0000       3.786272       103.0297 
 543   0.0000       3.793677       103.2312 
 544   0.0000       3.801343       103.4398 
 545   0.0000       3.811052       103.7040 
 546   0.0000       3.817878       103.8897 
 547   0.0000       3.826382       104.1212 
 548   0.0000       3.832915       104.2989 
 549   0.0000       3.839896       104.4889 
 550   0.0000       3.844488       104.6138 
 551   0.0000       3.846468       104.6677 
 552   0.0000       3.856245       104.9338 
 553   0.0000       3.872835       105.3852 
 554   0.0000       3.881054       105.6089 
 555   0.0000       3.889101       105.8278 
 556   0.0000       3.903110       106.2090 
 557   0.0000       3.914650       106.5230 
 558   0.0000       3.918029       106.6150 
 559   0.0000       3.927302       106.8673 
 560   0.0000       3.934295       107.0576 
 561   0.0000       3.950867       107.5086 
 562   0.0000       3.952113       107.5425 
 563   0.0000       3.962051       107.8129 
 564   0.0000       3.970651       108.0469 
 565   0.0000       3.976666       108.2106 
 566   0.0000       3.989557       108.5614 
 567   0.0000       4.003683       108.9457 
 568   0.0000       4.005908       109.0063 
 569   0.0000       4.017238       109.3146 
 570   0.0000       4.028004       109.6076 
 571   0.0000       4.039201       109.9123 
 572   0.0000       4.048076       110.1537 
 573   0.0000       4.051918       110.2583 
 574   0.0000       4.057419       110.4080 
 575   0.0000       4.065989       110.6412 
 576   0.0000       4.071939       110.8031 
 577   0.0000       4.083217       111.1100 
 578   0.0000       4.103715       111.6678 
 579   0.0000       4.106493       111.7434 
 580   0.0000       4.116295       112.0101 
 581   0.0000       4.125299       112.2551 
 582   0.0000       4.128473       112.3415 
 583   0.0000       4.133617       112.4814 
 584   0.0000       4.138293       112.6087 
 585   0.0000       4.148304       112.8811 
 586   0.0000       4.151625       112.9715 
 587   0.0000       4.157980       113.1444 
 588   0.0000       4.165153       113.3396 
 589   0.0000       4.171214       113.5045 
 590   0.0000       4.174006       113.5805 
 591   0.0000       4.187462       113.9466 
 592   0.0000       4.188690       113.9800 
 593   0.0000       4.193198       114.1027 
 594   0.0000       4.198455       114.2458 
 595   0.0000       4.209215       114.5386 
 596   0.0000       4.212666       114.6325 
 597   0.0000       4.220032       114.8329 
 598   0.0000       4.224680       114.9594 
 599   0.0000       4.235841       115.2631 
 600   0.0000       4.242158       115.4350 
 601   0.0000       4.249190       115.6263 
 602   0.0000       4.271204       116.2254 
 603   0.0000       4.276257       116.3629 
 604   0.0000       4.283851       116.5695 
 605   0.0000       4.301583       117.0520 
 606   0.0000       4.311151       117.3124 
 607   0.0000       4.318341       117.5080 
 608   0.0000       4.326676       117.7348 
 609   0.0000       4.336068       117.9904 
 610   0.0000       4.340598       118.1137 
 611   0.0000       4.342763       118.1726 
 612   0.0000       4.353330       118.4601 
 613   0.0000       4.357792       118.5816 
 614   0.0000       4.359633       118.6316 
 615   0.0000       4.373497       119.0089 
 616   0.0000       4.385947       119.3477 
 617   0.0000       4.388321       119.4123 
 618   0.0000       4.388474       119.4165 
 619   0.0000       4.402319       119.7932 
 620   0.0000       4.411100       120.0321 
 621   0.0000       4.418683       120.2385 
 622   0.0000       4.422945       120.3545 
 623   0.0000       4.424416       120.3945 
 624   0.0000       4.434807       120.6772 
 625   0.0000       4.440196       120.8239 
 626   0.0000       4.448445       121.0483 
 627   0.0000       4.466539       121.5407 
 628   0.0000       4.480674       121.9253 
 629   0.0000       4.484220       122.0218 
 630   0.0000       4.495760       122.3358 
 631   0.0000       4.500656       122.4691 
 632   0.0000       4.514644       122.8497 
 633   0.0000       4.516499       122.9002 
 634   0.0000       4.525434       123.1433 
 635   0.0000       4.543195       123.6266 
 636   0.0000       4.546641       123.7204 
 637   0.0000       4.555623       123.9648 
 638   0.0000       4.568183       124.3066 
 639   0.0000       4.581364       124.6653 
 640   0.0000       4.582151       124.6867 
 641   0.0000       4.589395       124.8838 
 642   0.0000       4.595526       125.0506 
 643   0.0000       4.609734       125.4372 
 644   0.0000       4.615088       125.5829 
 645   0.0000       4.623077       125.8003 
 646   0.0000       4.627875       125.9309 
 647   0.0000       4.634661       126.1155 
 648   0.0000       4.639196       126.2389 
 649   0.0000       4.645179       126.4018 
 650   0.0000       4.655900       126.6935 
 651   0.0000       4.661771       126.8532 
 652   0.0000       4.672178       127.1364 
 653   0.0000       4.678486       127.3081 
 654   0.0000       4.688543       127.5817 
 655   0.0000       4.691012       127.6489 
 656   0.0000       4.703190       127.9803 
 657   0.0000       4.719238       128.4170 
 658   0.0000       4.733142       128.7953 
 659   0.0000       4.744766       129.1116 
 660   0.0000       4.747591       129.1885 
 661   0.0000       4.761250       129.5602 
 662   0.0000       4.769818       129.7933 
 663   0.0000       4.783001       130.1521 
 664   0.0000       4.795245       130.4852 
 665   0.0000       4.812920       130.9662 
 666   0.0000       4.836618       131.6111 
 667   0.0000       4.850789       131.9967 
 668   0.0000       4.862591       132.3178 
 669   0.0000       4.879611       132.7810 
 670   0.0000       4.907240       133.5328 
 671   0.0000       4.918763       133.8464 
 672   0.0000       4.933425       134.2453 
 673   0.0000       4.962231       135.0292 
 674   0.0000       4.976399       135.4147 
 675   0.0000       4.981436       135.5518 
 676   0.0000       5.013682       136.4292 
 677   0.0000       5.023891       136.7070 
 678   0.0000       5.031597       136.9167 
 679   0.0000       5.049160       137.3946 
 680   0.0000       5.054976       137.5529 
 681   0.0000       5.065753       137.8462 
 682   0.0000       5.079081       138.2088 
 683   0.0000       5.097560       138.7117 
 684   0.0000       5.104579       138.9026 
 685   0.0000       5.112449       139.1168 
 686   0.0000       5.128081       139.5422 
 687   0.0000       5.135856       139.7537 
 688   0.0000       5.141691       139.9125 
 689   0.0000       5.153880       140.2442 
 690   0.0000       5.157246       140.3358 
 691   0.0000       5.171066       140.7119 
 692   0.0000       5.184458       141.0763 
 693   0.0000       5.189360       141.2097 
 694   0.0000       5.209492       141.7575 
 695   0.0000       5.210979       141.7980 
 696   0.0000       5.218056       141.9905 
 697   0.0000       5.227935       142.2593 
 698   0.0000       5.235911       142.4764 
 699   0.0000       5.246860       142.7743 
 700   0.0000       5.268894       143.3739 
 701   0.0000       5.282182       143.7355 
 702   0.0000       5.296466       144.1242 
 703   0.0000       5.309040       144.4663 
 704   0.0000       5.321310       144.8002 
 705   0.0000       5.331340       145.0731 
 706   0.0000       5.347780       145.5205 
 707   0.0000       5.355189       145.7221 
 708   0.0000       5.365317       145.9977 
 709   0.0000       5.386849       146.5836 
 710   0.0000       5.398712       146.9064 
 711   0.0000       5.421210       147.5186 
 712   0.0000       5.427876       147.7000 
 713   0.0000       5.448795       148.2693 
 714   0.0000       5.474235       148.9615 
 715   0.0000       5.490812       149.4126 
 716   0.0000       5.505769       149.8196 
 717   0.0000       5.508035       149.8813 
 718   0.0000       5.519073       150.1816 
 719   0.0000       5.528923       150.4496 
 720   0.0000       5.535465       150.6277 
 721   0.0000       5.552711       151.0969 
 722   0.0000       5.562100       151.3524 
 723   0.0000       5.566281       151.4662 
 724   0.0000       5.588952       152.0831 
 725   0.0000       5.608953       152.6274 
 726   0.0000       5.615504       152.8056 
 727   0.0000       5.617801       152.8681 
 728   0.0000       5.642087       153.5290 
 729   0.0000       5.643059       153.5554 
 730   0.0000       5.659653       154.0070 
 731   0.0000       5.664942       154.1509 
 732   0.0000       5.676263       154.4590 
 733   0.0000       5.695885       154.9929 
 734   0.0000       5.697998       155.0504 
 735   0.0000       5.714197       155.4912 
 736   0.0000       5.721208       155.6820 
 737   0.0000       5.741419       156.2320 
 738   0.0000       5.745048       156.3307 
 739   0.0000       5.764435       156.8583 
 740   0.0000       5.772312       157.0726 
 741   0.0000       5.797264       157.7516 
 742   0.0000       5.803785       157.9290 
 743   0.0000       5.806789       158.0108 
 744   0.0000       5.826776       158.5546 
 745   0.0000       5.846074       159.0798 
 746   0.0000       5.860128       159.4622 
 747   0.0000       5.866957       159.6480 
 748   0.0000       5.907479       160.7507 
 749   0.0000       5.922407       161.1569 
 750   0.0000       5.935159       161.5039 
 751   0.0000       5.973262       162.5407 
 752   0.0000       5.977069       162.6443 
 753   0.0000       5.985143       162.8640 
 754   0.0000       6.001544       163.3103 
 755   0.0000       6.017304       163.7392 
 756   0.0000       6.052776       164.7044 
 757   0.0000       6.059729       164.8936 
 758   0.0000       6.075691       165.3280 
 759   0.0000       6.097984       165.9346 
 760   0.0000       6.103974       166.0976 
 761   0.0000       6.162136       167.6802 
 762   0.0000       6.202765       168.7858 
 763   0.0000       6.220321       169.2635 
 764   0.0000       6.228709       169.4918 
 765   0.0000       6.260087       170.3456 
 766   0.0000       6.285094       171.0261 
 767   0.0000       6.302392       171.4968 
 768   0.0000       6.350638       172.8097 
 769   0.0000       6.353364       172.8838 
 770   0.0000       6.366356       173.2374 
 771   0.0000       6.388919       173.8513 
 772   0.0000       6.407846       174.3664 
 773   0.0000       6.457368       175.7139 
 774   0.0000       6.463087       175.8695 
 775   0.0000       6.498442       176.8316 
 776   0.0000       6.511864       177.1968 
 777   0.0000       6.552259       178.2960 
 778   0.0000       6.559718       178.4990 
 779   0.0000       6.600400       179.6060 
 780   0.0000       6.649949       180.9543 
 781   0.0000       6.672679       181.5728 
 782   0.0000       6.717190       182.7840 
 783   0.0000       6.743777       183.5075 
 784   0.0000       6.818108       185.5301 
 785   0.0000       6.883449       187.3082 
 786   0.0000       6.913048       188.1136 
 787   0.0000       6.917704       188.2403 
 788   0.0000       6.920997       188.3299 
 789   0.0000       7.039857       191.5642 
 790   0.0000       7.057000       192.0307 
 791   0.0000       7.065765       192.2692 
 792   0.0000       7.081512       192.6977 
 793   0.0000       7.120391       193.7557 
 794   0.0000       7.207357       196.1221 
 795   0.0000       7.259648       197.5451 
 796   0.0000       7.281680       198.1446 
 797   0.0000       7.297255       198.5684 
 798   0.0000       7.340316       199.7402 
 799   0.0000       7.362060       200.3318 
 800   0.0000       7.442423       202.5186 
 801   0.0000       7.507547       204.2907 
 802   0.0000       7.576353       206.1631 
 803   0.0000       7.581145       206.2934 
 804   0.0000       7.699131       209.5040 
 805   0.0000       7.815922       212.6821 
 806   0.0000       7.857577       213.8155 
 807   0.0000       7.934414       215.9064 
 808   0.0000       7.975664       217.0289 
 809   0.0000       9.338046       254.1012 
 810   0.0000       9.439194       256.8535 
 811   0.0000      10.701034       291.1899 
 812   0.0000      11.355987       309.0121 
 813   0.0000      11.891452       323.5829 
 814   0.0000      12.548143       341.4523 
 815   0.0000      12.900581       351.0427 
 816   0.0000      13.049485       355.0945 
 817   0.0000      13.090613       356.2137 
 818   0.0000      13.261226       360.8563 
 819   0.0000      13.370825       363.8386 
 820   0.0000      13.549476       368.7000 
 821   0.0000      13.676726       372.1626 
 822   0.0000      13.889862       377.9624 
 823   0.0000      13.933630       379.1533 
 824   0.0000      14.079029       383.1098 
 825   0.0000      14.558502       396.1570 
 826   0.0000      14.651977       398.7006 
 827   0.0000      15.974960       434.7008 

                    ********************************
                    * MULLIKEN POPULATION ANALYSIS *
                    ********************************

-----------------------
MULLIKEN ATOMIC CHARGES
-----------------------
   0 C :   -0.272348
   1 C :    0.030342
   2 O :   -0.339682
   3 C :    0.436833
   4 O :   -0.435001
   5 C :   -0.223019
   6 C :    0.172205
   7 C :   -0.268819
   8 N :   -0.126398
   9 C :    0.209971
  10 S :   -0.441881
  11 N :   -0.214708
  12 C :    0.054475
  13 C :    0.045473
  14 C :   -0.180632
  15 C :   -0.133015
  16 C :   -0.275767
  17 C :    0.316206
  18 O :   -0.356892
  19 C :   -0.248781
  20 H :    0.097209
  21 H :    0.092209
  22 H :    0.096262
  23 H :    0.116149
  24 H :    0.092813
  25 H :    0.133784
  26 H :    0.128935
  27 H :    0.094400
  28 H :    0.199878
  29 H :    0.200475
  30 H :    0.152651
  31 H :    0.153792
  32 H :    0.160095
  33 H :    0.129777
  34 H :    0.240475
  35 H :    0.162535
Sum of atomic charges:   -0.0000000

--------------------------------
MULLIKEN REDUCED ORBITAL CHARGES
--------------------------------
  0 C s       :     3.257530  s :     3.257530
      pz      :     1.008676  p :     2.937710
      px      :     0.996310
      py      :     0.932725
      dz2     :     0.007948  d :     0.072635
      dxz     :     0.022205
      dyz     :     0.016150
      dx2y2   :     0.010342
      dxy     :     0.015990
      f0      :     0.000558  f :     0.004473
      f+1     :     0.000441
      f-1     :     0.000507
      f+2     :     0.000539
      f-2     :     0.001129
      f+3     :     0.000955
      f-3     :     0.000345
  1 C s       :     3.175017  s :     3.175017
      pz      :     0.952099  p :     2.631968
      px      :     0.836898
      py      :     0.842972
      dz2     :     0.020311  d :     0.150973
      dxz     :     0.034074
      dyz     :     0.031352
      dx2y2   :     0.032015
      dxy     :     0.033222
      f0      :     0.001025  f :     0.011700
      f+1     :     0.001828
      f-1     :     0.001388
      f+2     :     0.001312
      f-2     :     0.002165
      f+3     :     0.002161
      f-3     :     0.001821
  2 O s       :     3.712407  s :     3.712407
      pz      :     1.745851  p :     4.590446
      px      :     1.601934
      py      :     1.242660
      dz2     :     0.004083  d :     0.034559
      dxz     :     0.004568
      dyz     :     0.006199
      dx2y2   :     0.011498
      dxy     :     0.008211
      f0      :     0.000268  f :     0.002270
      f+1     :     0.000130
      f-1     :     0.000404
      f+2     :     0.000262
      f-2     :     0.000280
      f+3     :     0.000371
      f-3     :     0.000555
  3 C s       :     3.069062  s :     3.069062
      pz      :     0.738283  p :     2.169359
      px      :     0.733665
      py      :     0.697410
      dz2     :     0.061491  d :     0.298228
      dxz     :     0.031330
      dyz     :     0.061929
      dx2y2   :     0.079511
      dxy     :     0.063966
      f0      :     0.002768  f :     0.026518
      f+1     :     0.003519
      f-1     :     0.002916
      f+2     :     0.005667
      f-2     :     0.002592
      f+3     :     0.005418
      f-3     :     0.003637
  4 O s       :     3.768197  s :     3.768197
      pz      :     1.460312  p :     4.629487
      px      :     1.442933
      py      :     1.726242
      dz2     :     0.007716  d :     0.034922
      dxz     :     0.008163
      dyz     :     0.006125
      dx2y2   :     0.006078
      dxy     :     0.006841
      f0      :     0.000238  f :     0.002396
      f+1     :     0.000389
      f-1     :     0.000264
      f+2     :     0.000343
      f-2     :     0.000588
      f+3     :     0.000242
      f-3     :     0.000332
  5 C s       :     3.193317  s :     3.193317
      pz      :     1.063443  p :     2.936286
      px      :     1.003086
      py      :     0.869757
      dz2     :     0.011145  d :     0.083243
      dxz     :     0.008111
      dyz     :     0.026690
      dx2y2   :     0.011328
      dxy     :     0.025970
      f0      :     0.001013  f :     0.010173
      f+1     :     0.001015
      f-1     :     0.001001
      f+2     :     0.001784
      f-2     :     0.001977
      f+3     :     0.001745
      f-3     :     0.001639
  6 C s       :     3.179326  s :     3.179326
      pz      :     0.780887  p :     2.457079
      px      :     0.811641
      py      :     0.864551
      dz2     :     0.025789  d :     0.176970
      dxz     :     0.022972
      dyz     :     0.042911
      dx2y2   :     0.034955
      dxy     :     0.050342
      f0      :     0.001568  f :     0.014420
      f+1     :     0.002001
      f-1     :     0.001409
      f+2     :     0.002268
      f-2     :     0.002095
      f+3     :     0.002708
      f-3     :     0.002371
  7 C s       :     3.270220  s :     3.270220
      pz      :     0.991452  p :     2.924967
      px      :     1.003394
      py      :     0.930120
      dz2     :     0.020131  d :     0.068974
      dxz     :     0.007424
      dyz     :     0.011055
      dx2y2   :     0.017958
      dxy     :     0.012406
      f0      :     0.001028  f :     0.004658
      f+1     :     0.000328
      f-1     :     0.000612
      f+2     :     0.000310
      f-2     :     0.000819
      f+3     :     0.001053
      f-3     :     0.000508
  8 N s       :     3.344021  s :     3.344021
      pz      :     1.451718  p :     3.718162
      px      :     1.192019
      py      :     1.074425
      dz2     :     0.008049  d :     0.059268
      dxz     :     0.010826
      dyz     :     0.007660
      dx2y2   :     0.018744
      dxy     :     0.013988
      f0      :     0.000634  f :     0.004948
      f+1     :     0.000896
      f-1     :     0.000373
      f+2     :     0.000794
      f-2     :     0.000946
      f+3     :     0.000618
      f-3     :     0.000688
  9 C s       :     3.156625  s :     3.156625
      pz      :     0.719616  p :     2.353614
      px      :     0.833459
      py      :     0.800539
      dz2     :     0.038456  d :     0.262204
      dxz     :     0.032582
      dyz     :     0.060984
      dx2y2   :     0.069807
      dxy     :     0.060374
      f0      :     0.001765  f :     0.017586
      f+1     :     0.002681
      f-1     :     0.001865
      f+2     :     0.003059
      f-2     :     0.001864
      f+3     :     0.003352
      f-3     :     0.002999
 10 S s       :     5.856038  s :     5.856038
      pz      :     3.524360  p :    10.490918
      px      :     3.276487
      py      :     3.690071
      dz2     :     0.011152  d :     0.084799
      dxz     :     0.021425
      dyz     :     0.012403
      dx2y2   :     0.013502
      dxy     :     0.026318
      f0      :     0.001078  f :     0.010125
      f+1     :     0.001352
      f-1     :     0.000556
      f+2     :     0.000897
      f-2     :     0.002703
      f+3     :     0.000916
      f-3     :     0.002622
 11 N s       :     3.384907  s :     3.384907
      pz      :     1.521296  p :     3.767246
      px      :     1.230391
      py      :     1.015560
      dz2     :     0.004080  d :     0.058119
      dxz     :     0.007251
      dyz     :     0.012530
      dx2y2   :     0.016185
      dxy     :     0.018073
      f0      :     0.000678  f :     0.004436
      f+1     :     0.000370
      f-1     :     0.000651
      f+2     :     0.000600
      f-2     :     0.000511
      f+3     :     0.000738
      f-3     :     0.000887
 12 C s       :     3.126852  s :     3.126852
      pz      :     0.916853  p :     2.622838
      px      :     0.807740
      py      :     0.898245
      dz2     :     0.029842  d :     0.184481
      dxz     :     0.037298
      dyz     :     0.045439
      dx2y2   :     0.026005
      dxy     :     0.045896
      f0      :     0.001056  f :     0.011355
      f+1     :     0.001758
      f-1     :     0.001438
      f+2     :     0.001217
      f-2     :     0.002857
      f+3     :     0.001283
      f-3     :     0.001745
 13 C s       :     3.104713  s :     3.104713
      pz      :     0.886295  p :     2.727541
      px      :     0.910810
      py      :     0.930436
      dz2     :     0.020720  d :     0.110941
      dxz     :     0.010955
      dyz     :     0.035912
      dx2y2   :     0.014930
      dxy     :     0.028423
      f0      :     0.001534  f :     0.011332
      f+1     :     0.001381
      f-1     :     0.001645
[...]
      f-1     :     0.006630
      f+2     :     0.007365
      f-2     :     0.004524
      f+3     :     0.006325
      f-3     :     0.005798
 15 C s       :     2.705627  s :     2.705627
      pz      :     0.953143  p :     2.798459
      px      :     0.871830
      py      :     0.973487
      dz2     :     0.122109  d :     0.416389
      dxz     :     0.071483
      dyz     :     0.086997
      dx2y2   :     0.089307
      dxy     :     0.046492
      f0      :     0.005815  f :     0.041011
      f+1     :     0.005281
      f-1     :     0.008188
      f+2     :     0.007231
      f-2     :     0.006888
      f+3     :     0.003022
      f-3     :     0.004585
 16 C s       :     2.701945  s :     2.701945
      pz      :     0.959099  p :     2.867967
      px      :     0.929989
      py      :     0.978880
      dz2     :     0.070404  d :     0.390270
      dxz     :     0.046593
      dyz     :     0.119363
      dx2y2   :     0.073837
      dxy     :     0.080073
      f0      :     0.006652  f :     0.040248
      f+1     :     0.004470
      f-1     :     0.005826
      f+2     :     0.006953
      f-2     :     0.004595
      f+3     :     0.006798
      f-3     :     0.004954
 17 C s       :     2.701790  s :     2.701790
      pz      :     0.847048  p :     2.681361
      px      :     0.816497
      py      :     1.017816
      dz2     :     0.159989  d :     0.707338
      dxz     :     0.105518
      dyz     :     0.190190
      dx2y2   :     0.117523
      dxy     :     0.134118
      f0      :     0.018309  f :     0.099122
      f+1     :     0.012050
      f-1     :     0.015962
      f+2     :     0.018507
      f-2     :     0.014526
      f+3     :     0.010831
      f-3     :     0.008936
 18 O s       :     3.177272  s :     3.177272
      pz      :     1.323913  p :     4.347171
      px      :     1.526444
      py      :     1.496814
      dz2     :     0.014038  d :     0.075508
      dxz     :     0.015549
      dyz     :     0.026751
      dx2y2   :     0.008258
      dxy     :     0.010912
      f0      :     0.000809  f :     0.005067
      f+1     :     0.000558
      f-1     :     0.000902
      f+2     :     0.001040
      f-2     :     0.000970
      f+3     :     0.000425
      f-3     :     0.000362
 19 C s       :     2.695397  s :     2.695397
      pz      :     0.959353  p :     2.842483
      px      :     0.914274
      py      :     0.968856
      dz2     :     0.102397  d :     0.387827
      dxz     :     0.066629
      dyz     :     0.091851
      dx2y2   :     0.078706
      dxy     :     0.048244
      f0      :     0.005679  f :     0.040807
      f+1     :     0.005973
      f-1     :     0.007929
      f+2     :     0.006996
      f-2     :     0.007132
      f+3     :     0.002930
      f-3     :     0.004167
 20 H s       :     0.846455  s :     0.846455
      pz      :     0.046086  p :     0.150641
      px      :     0.052427
      py      :     0.052128
      dz2     :     0.004582  d :     0.027377
      dxz     :     0.005194
      dyz     :     0.004502
      dx2y2   :     0.007112
      dxy     :     0.005987
 21 H s       :     0.851457  s :     0.851457
      pz      :     0.062584  p :     0.151500
      px      :     0.043403
      py      :     0.045512
      dz2     :     0.007869  d :     0.027492
      dxz     :     0.007220
      dyz     :     0.006987
      dx2y2   :     0.002537
      dxy     :     0.002879
 22 H s       :     0.848905  s :     0.848905
      pz      :     0.052354  p :     0.150318
      px      :     0.060060
      py      :     0.037903
      dz2     :     0.006660  d :     0.027502
      dxz     :     0.006996
      dyz     :     0.003467
      dx2y2   :     0.004650
      dxy     :     0.005730
 23 H s       :     0.850884  s :     0.850884
      pz      :     0.068461  p :     0.149361
      px      :     0.037463
      py      :     0.043437
      dz2     :     0.009219  d :     0.027272
      dxz     :     0.007226
      dyz     :     0.006153
      dx2y2   :     0.001782
      dxy     :     0.002892
 24 H s       :     0.857984  s :     0.857984
      pz      :     0.050295  p :     0.144809
      px      :     0.059631
      py      :     0.034883
      dz2     :     0.005454  d :     0.026789
      dxz     :     0.007439
      dyz     :     0.003557
      dx2y2   :     0.004925
      dxy     :     0.005415
 25 H s       :     0.825504  s :     0.825504
      pz      :     0.039811  p :     0.150861
      px      :     0.073872
      py      :     0.037178
      dz2     :     0.003210  d :     0.027767
      dxz     :     0.008706
      dyz     :     0.000246
      dx2y2   :     0.007137
      dxy     :     0.008467
 26 H s       :     0.825922  s :     0.825922
      pz      :     0.073346  p :     0.151433
      px      :     0.039840
      py      :     0.038248
      dz2     :     0.009513  d :     0.027770
      dxz     :     0.008937
      dyz     :     0.008275
      dx2y2   :     0.000734
      dxy     :     0.000311
 27 H s       :     0.845501  s :     0.845501
      pz      :     0.040173  p :     0.150474
      px      :     0.041625
      py      :     0.068676
      dz2     :     0.002950  d :     0.027724
      dxz     :     0.000616
      dyz     :     0.008276
      dx2y2   :     0.007744
      dxy     :     0.008137
 28 H s       :     0.741635  s :     0.741635
      pz      :     0.076171  p :     0.253680
      px      :     0.056736
      py      :     0.120773
      dz2     :     0.005113  d :     0.061824
      dxz     :     0.000459
      dyz     :     0.021744
      dx2y2   :     0.016258
      dxy     :     0.018249
 29 H s       :     0.748595  s :     0.748595
      pz      :     0.100963  p :     0.254294
      px      :     0.097506
      py      :     0.055825
      dz2     :     0.014343  d :     0.061421
      dxz     :     0.013301
      dyz     :     0.008450
      dx2y2   :     0.012489
      dxy     :     0.012839
 30 H s       :     0.830994  s :     0.830994
      pz      :     0.058691  p :     0.153738
      px      :     0.043753
      py      :     0.051294
      dz2     :     0.007240  d :     0.029293
      dxz     :     0.006145
      dyz     :     0.006806
      dx2y2   :     0.003664
      dxy     :     0.005438
 31 H s       :     0.845909  s :     0.845909
      pz      :     0.063556  p :     0.156798
      px      :     0.054254
      py      :     0.038988
      dz2     :     0.007579  d :     0.027545
      dxz     :     0.006502
      dyz     :     0.006394
      dx2y2   :     0.003548
      dxy     :     0.003522
 32 H s       :     0.843642  s :     0.843642
      pz      :     0.034995  p :     0.151566
      px      :     0.038685
      py      :     0.077887
      dz2     :     0.002736  d :     0.026479
      dxz     :     0.000174
      dyz     :     0.008231
      dx2y2   :     0.007654
      dxy     :     0.007684
 33 H s       :     0.848640  s :     0.848640
      pz      :     0.059179  p :     0.159070
      px      :     0.051182
      py      :     0.048710
      dz2     :     0.007199  d :     0.027762
      dxz     :     0.005298
      dyz     :     0.006676
      dx2y2   :     0.004412
      dxy     :     0.004178
 34 H s       :     0.706593  s :     0.706593
      pz      :     0.103024  p :     0.347880
      px      :     0.099700
      py      :     0.145156
      dz2     :     0.022719  d :     0.099591
      dxz     :     0.013264
      dyz     :     0.023895
      dx2y2   :     0.019044
      dxy     :     0.020669
 35 H s       :     0.838537  s :     0.838537
      pz      :     0.035218  p :     0.156293
      px      :     0.041914
      py      :     0.079162
      dz2     :     0.002774  d :     0.027911
      dxz     :     0.000176
      dyz     :     0.008690
      dx2y2   :     0.007729
      dxy     :     0.008543


                      *****************************
                      * MAYER POPULATION ANALYSIS *
                      *****************************

  NA   - Mulliken gross atomic population
  ZA   - Total nuclear charge
  QA   - Mulliken gross atomic charge
  VA   - Mayer's total valence
  BVA  - Mayer's bonded valence
  FA   - Mayer's free valence

  ATOM       NA         ZA         QA         VA         BVA        FA
  0 C      6.2723     6.0000    -0.2723     3.8943     3.8943    -0.0000
  1 C      5.9697     6.0000     0.0303     3.8573     3.8573    -0.0000
  2 O      8.3397     8.0000    -0.3397     2.0758     2.0758    -0.0000
  3 C      5.5632     6.0000     0.4368     4.2513     4.2513    -0.0000
  4 O      8.4350     8.0000    -0.4350     2.0779     2.0779     0.0000
  5 C      6.2230     6.0000    -0.2230     3.6556     3.6556    -0.0000
  6 C      5.8278     6.0000     0.1722     3.8558     3.8558    -0.0000
  7 C      6.2688     6.0000    -0.2688     3.9027     3.9027    -0.0000
  8 N      7.1264     7.0000    -0.1264     3.3079     3.3079    -0.0000
  9 C      5.7900     6.0000     0.2100     4.1550     4.1550    -0.0000
 10 S     16.4419    16.0000    -0.4419     1.7539     1.7539    -0.0000
 11 N      7.2147     7.0000    -0.2147     3.2398     3.2398    -0.0000
 12 C      5.9455     6.0000     0.0545     3.9162     3.9162     0.0000
 13 C      5.9545     6.0000     0.0455     3.7511     3.7511    -0.0000
 14 C      6.1806     6.0000    -0.1806     3.8531     3.8531    -0.0000
 15 C      6.1330     6.0000    -0.1330     3.8019     3.8019     0.0000
 16 C      6.2758     6.0000    -0.2758     3.8007     3.8007    -0.0000
 17 C      5.6838     6.0000     0.3162     3.8602     3.8602     0.0000
 18 O      8.3569     8.0000    -0.3569     2.1179     2.1179    -0.0000
 19 C      6.2488     6.0000    -0.2488     3.8566     3.8566    -0.0000
 20 H      0.9028     1.0000     0.0972     0.9839     0.9839    -0.0000
 21 H      0.9078     1.0000     0.0922     0.9840     0.9840    -0.0000
 22 H      0.9037     1.0000     0.0963     0.9852     0.9852    -0.0000
 23 H      0.8839     1.0000     0.1161     0.9839     0.9839    -0.0000
 24 H      0.9072     1.0000     0.0928     0.9782     0.9782    -0.0000
 25 H      0.8662     1.0000     0.1338     0.9801     0.9801     0.0000
 26 H      0.8711     1.0000     0.1289     0.9815     0.9815    -0.0000
 27 H      0.9056     1.0000     0.0944     0.9855     0.9855    -0.0000
 28 H      0.8001     1.0000     0.1999     1.0209     1.0209    -0.0000
 29 H      0.7995     1.0000     0.2005     1.0152     1.0152    -0.0000
 30 H      0.8473     1.0000     0.1527     0.9891     0.9891    -0.0000
 31 H      0.8462     1.0000     0.1538     0.9843     0.9843    -0.0000
 32 H      0.8399     1.0000     0.1601     0.9773     0.9773     0.0000
 33 H      0.8702     1.0000     0.1298     0.9921     0.9921    -0.0000
 34 H      0.7595     1.0000     0.2405     1.0107     1.0107    -0.0000
 35 H      0.8375     1.0000     0.1625     0.9902     0.9902    -0.0000

  Mayer bond orders larger than 0.100000
B(  0-C ,  1-C ) :   0.9716 B(  0-C , 20-H ) :   0.9779 B(  0-C , 21-H ) :   0.9784 
B(  0-C , 22-H ) :   0.9771 B(  1-C ,  2-O ) :   0.8977 B(  1-C , 23-H ) :   0.9782 
B(  1-C , 24-H ) :   0.9761 B(  2-O ,  3-C ) :   1.1745 B(  3-C ,  4-O ) :   1.9675 
B(  3-C ,  5-C ) :   1.0658 B(  5-C ,  6-C ) :   1.6424 B(  5-C , 12-C ) :   0.9561 
B(  6-C ,  7-C ) :   0.9656 B(  6-C ,  8-N ) :   1.1529 B(  7-C , 25-H ) :   0.9612 
B(  7-C , 26-H ) :   0.9588 B(  7-C , 27-H ) :   0.9904 B(  8-N ,  9-C ) :   1.1877 
B(  8-N , 28-H ) :   0.9464 B(  9-C , 10-S ) :   1.6062 B(  9-C , 11-N ) :   1.3091 
B( 11-N , 12-C ) :   0.9688 B( 11-N , 29-H ) :   0.9484 B( 12-C , 13-C ) :   0.9640 
B( 12-C , 30-H ) :   1.0015 B( 13-C , 14-C ) :   1.3588 B( 13-C , 19-C ) :   1.3801 
B( 14-C , 15-C ) :   1.3918 B( 14-C , 31-H ) :   0.9700 B( 15-C , 16-C ) :   1.3612 
B( 15-C , 32-H ) :   0.9706 B( 16-C , 17-C ) :   1.3345 B( 16-C , 33-H ) :   0.9851 
B( 17-C , 18-O ) :   1.1042 B( 17-C , 19-C ) :   1.3647 B( 18-O , 34-H ) :   0.9800 
B( 19-C , 35-H ) :   0.9596 

-------
TIMINGS
-------

Total SCF time: 0 days 1 hours 33 min 42 sec 

Total time                  ....    5622.714 sec
Sum of individual times     ....    5611.798 sec  ( 99.8%)

Fock matrix formation       ....    5585.761 sec  ( 99.3%)
Diagonalization             ....       4.491 sec  (  0.1%)
Density matrix formation    ....       0.191 sec  (  0.0%)
Population analysis         ....       0.808 sec  (  0.0%)
Initial guess               ....       6.613 sec  (  0.1%)
Orbital Transformation      ....       0.000 sec  (  0.0%)
Orbital Orthonormalization  ....       0.000 sec  (  0.0%)
DIIS solution               ....       5.368 sec  (  0.1%)
SOSCF solution              ....       6.929 sec  (  0.1%)

------------------------------------------------------------------------------
                                ORCA  MP2 
------------------------------------------------------------------------------

Freezing NCore=48 chemical core electrons

-------------
RI-MP2 ENERGY
-------------
Dimension of the basis                    ...  828
Memory devoted to MP2                     ...  256 MB   
Data format for buffers                   ... DOUBLE
Compression type for matrix containers    ... UNCOMPRESSED
Overall scaling of the MP2 energy         ...   1.000e+00
Calculating two index integrals           ... done (    0.077 sec)
Cholesky decomposition of V**-1           ... done (    2.018 sec)

-----------------
RI-TRANSFORMATION (AUX index driven)
-----------------

Dimension of the orbital-basis         ... 828
Dimension of the aux-basis             ... 2141
Transformation of internal/external MOs...   24-  76 to   77- 827
Number Format for Storage              ... Double (8 Byte)
Integral mode                          ... Direct

First Phase: integral generation and transformation of MO indices
  Aux angular momentum 0               ... done (   10.887 sec)
  Aux angular momentum 1               ... done (   19.325 sec)
  Aux angular momentum 2               ... done (   26.217 sec)
  Aux angular momentum 3               ... done (   22.971 sec)
  Aux angular momentum 4               ... done (    7.441 sec)
Closing buffer VIA ( 0.63 GB; CompressionRatio= 1.00)
  Phase 1 completed in    87.106 sec
Second Phase: sorting and transformation of aux index

IA-Transformation
Memory available                       ... 167 MB 
Max. # MO pairs treated in a batch     ... 12    
# of internal orbitals                 ... 53
# batches for internal orbitals        ... 5
Closing buffer IAV ( 0.63 GB; CompressionRatio= 1.00)
(ia|v) transformation done in   140.159 sec

  Phase 2 completed in   140.192 sec
RI-Integral transformation completed in   227.329 sec
Opening buffers                              ... done

Starting loop over batches of integrals:

Operator 0  - window                       ... ( 24- 76)x( 77-827)
Operator 0  - Memory available             ...   256 MB
Operator 0  - Memory needed per MO         ...  12.3 MB
Operator 0  - Number of orbitals per batch ... 13
Operator 0  - Number of batches            ... 5

OPERATOR  0   PASS   0:  MOs    24 ...   36
  Reading integrals       ... ok
  Internal MO  26
  Internal MO  29
  Internal MO  32
  Internal MO  35
OPERATOR  0   PASS   1:  MOs    37 ...   49
  Reading integrals       ... ok
  Internal MO  38
  Internal MO  41
  Internal MO  44
  Internal MO  47
OPERATOR  0   PASS   2:  MOs    50 ...   62
  Reading integrals       ... ok
  Internal MO  50
  Internal MO  53
  Internal MO  56
  Internal MO  59
  Internal MO  62
OPERATOR  0   PASS   3:  MOs    63 ...   75
  Reading integrals       ... ok
  Internal MO  65
  Internal MO  68
  Internal MO  71
  Internal MO  74
OPERATOR  0   PASS   4:  MOs    76 ...   76
  Reading integrals       ... ok
Time spent in pair loops =   557.759 sec
Deleting buffer (Ka|jb)[aa] ...done

-----------------------------------------------
 RI-MP2 CORRELATION ENERGY:     -3.529001222 Eh
-----------------------------------------------


-------
TIMINGS
-------

Total time                :  787.316 sec
Integral trafo            :  227.338 sec ( 28.9%)
I/O of integrals          :   11.849 sec (  1.5%)
K(i,j) Operators          :  478.591 sec ( 60.8%)
T(i,j) pair energies      :    3.713 sec (  0.5%)
V-calculation             :    0.077 sec (  0.0%)
V**(-1/2)                 :    2.018 sec (  0.3%)
Gamma(ia|P)               :    0.000 sec (  0.0%)
Gamma-Trafo               :    0.000 sec (  0.0%)
D(virtual)                :    0.000 sec (  0.0%)
D(internal)               :    0.000 sec (  0.0%)
W(virtual)                :    0.000 sec (  0.0%)
W(internal)               :    0.000 sec (  0.0%)
L(virtual)                :    0.000 sec (  0.0%)
L(internal)               :    0.000 sec (  0.0%)
G(D)                      :    0.000 sec (  0.0%)
G(Z)                      :    0.000 sec (  0.0%)
Z-Vector Solution         :    0.000 sec (  0.0%)
3-Index Derivative        :    0.000 sec (  0.0%)
2-Index Derivative        :    0.000 sec (  0.0%)
Separable Gradient        :    0.000 sec (  0.0%)


---------------------------------------
MP2 TOTAL ENERGY:    -1274.343867764 Eh
---------------------------------------

-------------------------   --------------------
FINAL SINGLE POINT ENERGY     -1274.343867763946
-------------------------   --------------------


                            ***************************************
                            *     ORCA property calculations      *
                            ***************************************


  WARNING: The energy has been calculated at the MP2 level but the densities
           used in the property calculations are still SCF densities
           MP2 response densities have not been calculated 
           use %mp2 Density relaxed end
           or  %mp2 Density unrelaxed end

                                    ---------------------
                                    Active property flags
                                    ---------------------
   (+) Dipole Moment


------------------------------------------------------------------------------
                       ORCA ELECTRIC PROPERTIES CALCULATION
------------------------------------------------------------------------------

Dipole Moment Calculation                       ... on
Quadrupole Moment Calculation                   ... off
Polarizability Calculation                      ... off
GBWName                                         ... CONFS/Conf898.orca.gbw
Electron density file                           ... CONFS/Conf898.orca.scfp
The origin for moment calculation is the CENTER OF MASS  = (31.888787, 33.086985 33.412538)

-------------
DIPOLE MOMENT
-------------
                                X             Y             Z
Electronic contribution:      8.48336      11.02129       8.70557
Nuclear contribution   :     -9.67769     -12.63354      -9.04057
                        -----------------------------------------
Total Dipole Moment    :     -1.19433      -1.61225      -0.33500
                        -----------------------------------------
Magnitude (a.u.)       :      2.03421
Magnitude (Debye)      :      5.17054



--------------------
Rotational spectrum 
--------------------
 
Rotational constants in cm-1:     0.011070     0.008458     0.005902 
Rotational constants in MHz :   331.875058   253.564556   176.934232 

 Dipole components along the rotational axes: 
x,y,z [a.u.] :    -2.004486     0.344750     0.034326 
x,y,z [Debye]:    -5.094998     0.876286     0.087249 

 

Timings for individual modules:

Sum of individual times         ...     6412.503 sec (= 106.875 min)
GTO integral calculation        ...        1.318 sec (=   0.022 min)   0.0 %
SCF iterations                  ...     5622.855 sec (=  93.714 min)  87.7 %
MP2 module                      ...      788.331 sec (=  13.139 min)  12.3 %
                             ****ORCA TERMINATED NORMALLY****
TOTAL RUN TIME: 0 days 1 hours 46 minutes 53 seconds 910 msec
