
                                 *****************
                                 * O   R   C   A *
                                 *****************

           --- An Ab Initio, DFT and Semiempirical electronic structure package ---

                  #######################################################
                  #                        -***-                        #
                  #          Department of theory and spectroscopy      #
                  #               Directorship: Frank Neese             #
                  #        Max Planck Institute fuer Kohlenforschung    #
                  #                Kaiser Wilhelm Platz 1               #
                  #                 D-45470 Muelheim/Ruhr               #
                  #                      Germany                        #
                  #                                                     #
                  #                  All rights reserved                #
                  #                        -***-                        #
                  #######################################################


                         Program Version 4.2.0 -  RELEASE  -


 With contributions from (in alphabetic order):
   Daniel Aravena         : Magnetic Suceptibility
   Michael Atanasov       : Ab Initio Ligand Field Theory (pilot matlab implementation)
   Alexander A. Auer      : GIAO ZORA, VPT2
   Ute Becker             : Parallelization
   Giovanni Bistoni       : ED, misc. LED, open-shell LED, HFLED
   Martin Brehm           : Molecular dynamics
   Dmytro Bykov           : SCF Hessian
   Vijay G. Chilkuri      : MRCI spin determinant printing, contributions to CSF-ICE
   Dipayan Datta          : RHF DLPNO-CCSD density
   Achintya Kumar Dutta   : EOM-CC, STEOM-CC
   Dmitry Ganyushin       : Spin-Orbit,Spin-Spin,Magnetic field MRCI
   Miquel Garcia          : C-PCM Hessian, Gaussian charge scheme
   Yang Guo               : DLPNO-NEVPT2, CIM, IAO-localization
   Andreas Hansen         : Spin unrestricted coupled pair/coupled cluster methods
   Benjamin Helmich-Paris : CASSCF linear response (MC-RPA)
   Lee Huntington         : MR-EOM, pCC
   Robert Izsak           : Overlap fitted RIJCOSX, COSX-SCS-MP3, EOM
   Christian Kollmar      : KDIIS, OOCD, Brueckner-CCSD(T), CCSD density
   Simone Kossmann        : Meta GGA functionals, TD-DFT gradient, OOMP2, MP2 Hessian
   Martin Krupicka        : AUTO-CI
   Lucas Lang             : DCDCAS
   Dagmar Lenk            : GEPOL surface, SMD
   Dimitrios Liakos       : Extrapolation schemes; Compound Job, initial MDCI parallelization
   Dimitrios Manganas     : Further ROCIS development; embedding schemes
   Dimitrios Pantazis     : SARC Basis sets
   Taras Petrenko         : DFT Hessian,TD-DFT gradient, ASA, ECA, R-Raman, ABS, FL, XAS/XES, NRVS
   Peter Pinski           : DLPNO-MP2, DLPNO-MP2 Gradient
   Christoph Reimann      : Effective Core Potentials
   Marius Retegan         : Local ZFS, SOC
   Christoph Riplinger    : Optimizer, TS searches, QM/MM, DLPNO-CCSD(T), (RO)-DLPNO pert. Triples
   Tobias Risthaus        : Range-separated hybrids, TD-DFT gradient, RPA, STAB
   Michael Roemelt        : Original ROCIS implementation
   Masaaki Saitow         : Open-shell DLPNO-CCSD energy and density
   Barbara Sandhoefer     : DKH picture change effects
   Avijit Sen             : IP-ROCIS
   Kantharuban Sivalingam : CASSCF convergence, NEVPT2, FIC-MRCI
   Bernardo de Souza      : ESD, SOC TD-DFT
   Georgi Stoychev        : AutoAux, RI-MP2 NMR
   Willem Van den Heuvel  : Paramagnetic NMR
   Boris Wezisla          : Elementary symmetry handling
   Frank Wennmohs         : Technical directorship


 We gratefully acknowledge several colleagues who have allowed us to
 interface, adapt or use parts of their codes:
   Stefan Grimme, W. Hujo, H. Kruse,             : VdW corrections, initial TS optimization,
                  C. Bannwarth                     DFT functionals, gCP, sTDA/sTD-DF
   Ed Valeev, F. Pavosevic, A. Kumar             : LibInt (2-el integral package), F12 methods
   Garnet Chan, S. Sharma, J. Yang, R. Olivares  : DMRG
   Ulf Ekstrom                                   : XCFun DFT Library
   Mihaly Kallay                                 : mrcc  (arbitrary order and MRCC methods)
   Andreas Klamt, Michael Diedenhofen            : otool_cosmo (COSMO solvation model)
   Jiri Pittner, Ondrej Demel                    : Mk-CCSD
   Frank Weinhold                                : gennbo (NPA and NBO analysis)
   Christopher J. Cramer and Donald G. Truhlar   : smd solvation model
   Lars Goerigk                                  : TD-DFT with DH, B97 family of functionals
   V. Asgeirsson, H. Jonsson                     : NEB implementation
   FAccTs GmbH                                   : IRC, NEB, NEB-TS, Multilevel, MM, QM/MM, CI optimization
   S Lehtola, MJT Oliveira, MAL Marques          : LibXC Library


 Your calculation uses the libint2 library for the computation of 2-el integrals
 For citations please refer to: http://libint.valeyev.net

 Your ORCA version has been built with support for libXC version: 4.2.3
 For citations please refer to: https://tddft.org/programs/libxc/

 This ORCA versions uses:
   CBLAS   interface :  Fast vector & matrix operations
   LAPACKE interface :  Fast linear algebra routines
   SCALAPACK package :  Parallel linear algebra routines


----- Orbital basis set information -----
Your calculation utilizes the basis: cc-pVTZ 
       H, B-Ne : Obtained from the ccRepo (grant-hill.group.shef.ac.uk/ccrepo) Feb. 2017
                 T. H. Dunning, Jr., J. Chem. Phys. 90, 1007 (1989)
            He : Obtained from the ccRepo (grant-hill.group.shef.ac.uk/ccrepo) Feb. 2017
                 D. E. Woon, T. H. Dunning, Jr., J. Chem. Phys. 100, 2975 (1994)
  Li-Be, Na-Mg : Obtained from the ccRepo (grant-hill.group.shef.ac.uk/ccrepo) Feb. 2017
                 B. P. Prascher, D. E. Woon, K. A. Peterson, T. H. Dunning, Jr., A. K. Wilson, Theor. Chem. Acc. 128, 69 (2011)
         Al-Ar : Obtained from the ccRepo (grant-hill.group.shef.ac.uk/ccrepo) Feb. 2017
                 D. E. Woon, T. H. Dunning, Jr., J. Chem. Phys. 98, 1358 (1993)
            Ca : Obtained from the Peterson Research Group Website (tyr0.chem.wsu.edu/~kipeters) Feb. 2017
                 J. Koput, K. A. Peterson, J. Phys. Chem. 106, 9595 (2002)
         Sc-Zn : Obtained from the ccRepo (grant-hill.group.shef.ac.uk/ccrepo) Feb. 2017
                 N. B. Balabanov, K. A. Peterson, J. Chem. Phys. 123, 064107 (2005)
                 N. B. Balabanov, K. A. Peterson, J. Chem. Phys. 125, 074110 (2006)
         Ga-Kr : Obtained from the ccRepo (grant-hill.group.shef.ac.uk/ccrepo) Feb. 2017
                 A. K. Wilson, D. E. Woon, K. A. Peterson, T. H. Dunning, Jr., J. Chem. Phys. 110, 7667 (1999)
             Y : Obtained from the ccRepo (grant-hill.group.shef.ac.uk/ccrepo) Feb. 2017
                 K. A. Peterson, D. Figgen, M. Dolg, H. Stoll, J. Chem. Phys. 126, 124101 (2007)
        Ag, Au : Obtained from the Peterson Research Group Website (tyr0.chem.wsu.edu/~kipeters) Feb. 2017
                 K. A. Peterson, C. Puzzarini, Theor. Chem. Acc. 114, 283 (2005)

----- AuxC basis set information -----
Your calculation utilizes the auxiliary basis: cc-pVTZ/C 
  Obtained from the EMSL Basis Set Exchange (bse.pnl.gov) Feb. 2017
  H-He, B-F, Al-Ar, Ga-Kr : F. Weigend, A. Kohn, C. Hattig, J. Chem. Phys. 116, 3175 (2002)
             Li-Be, Na-Mg : C. Haettig, Phys. Chem. Chem. Phys. 7, 59 (2005)
                       Ne : C. Haettig, Phys. Chem. Chem. Phys. 7, 59 (2005)
                            F. Weigend, A. Kohn, C. Hattig, J. Chem. Phys. 116, 3175 (2002)
                    Sc-Zn : J. G. Hill, J. A. Platts, J. Chem. Phys. 128, 044104 (2008)

================================================================================
                                        WARNINGS
                       Please study these warnings very carefully!
================================================================================


WARNING: No MP2 level density has been requested!
         To caclulate MP2 level properties use
         %mp2 Density relaxed end
         or
         %mp2 Density unrelaxed end

WARNING: Post HF methods need fully converged wavefunctions
  ===> : Setting SCFConvForced true
         You can overwrite this default with %scf ConvForced false 


INFO   : the flag for use of LIBINT has been found!

================================================================================
                                       INPUT FILE
================================================================================
NAME = CONFS/Conf855.orca
|  1> ! ri-mp2 cc-pvtz cc-pvtz/c TightSCF NoKeepInts
|  2> 
|  3> %scf
|  4>   MaxCore 4096
|  5> end
|  6> *xyz  0  1
|  7>     C       14.0774268   15.0695413   15.4584805
|  8>     C       15.1806714   15.8259327   16.2158887
|  9>     O       16.2977977   15.9506329   15.3158596
| 10>     C       17.0667369   17.0803526   15.2256407
| 11>     O       17.6998196   17.3278981   14.2163627
| 12>     C       17.0782246   17.9869168   16.4150736
| 13>     C       16.8947053   19.3096967   16.1963490
| 14>     C       16.2891483   19.9201736   14.9506596
| 15>     N       17.2816862   20.2637396   17.1384960
| 16>     C       18.0879476   19.9925030   18.2117535
| 17>     S       18.6153128   21.1808455   19.2336252
| 18>     N       18.4569937   18.6806144   18.3826742
| 19>     C       17.9284426   17.5377598   17.6115855
| 20>     C       17.3328848   16.4434984   18.4805736
| 21>     C       17.8347267   15.1305358   18.4199686
| 22>     C       17.2776425   14.1183572   19.2194838
| 23>     C       16.2147859   14.4231980   20.0874301
| 24>     C       15.7185400   15.7324111   20.1538610
| 25>     O       14.6891479   16.0286048   20.9858649
| 26>     C       16.2728990   16.7378592   19.3553009
| 27>     H       13.1947446   14.9352234   16.0954457
| 28>     H       14.4323134   14.0782963   15.1493932
| 29>     H       13.7742261   15.6228239   14.5608057
| 30>     H       14.7910431   16.8062248   16.5203100
| 31>     H       15.4600848   15.2558226   17.1086653
| 32>     H       15.4895982   19.2873546   14.5459024
| 33>     H       17.0523777   20.0224128   14.1675156
| 34>     H       15.8588569   20.9116343   15.1358735
| 35>     H       17.0578139   21.2355996   16.9935398
| 36>     H       19.0448047   18.5093382   19.1891347
| 37>     H       18.8658948   17.1780248   17.1622897
| 38>     H       18.6528295   14.8912700   17.7446434
| 39>     H       17.6692047   13.1036389   19.1642822
| 40>     H       15.7818112   13.6436320   20.7060889
| 41>     H       14.4862208   15.2302958   21.4971248
| 42>     H       15.8796354   17.7473365   19.4220536
| 43> *
| 44> 
| 45>                          ****END OF INPUT****
================================================================================

                       ****************************
                       * Single Point Calculation *
                       ****************************

---------------------------------
CARTESIAN COORDINATES (ANGSTROEM)
---------------------------------
  C     14.077427   15.069541   15.458480
  C     15.180671   15.825933   16.215889
  O     16.297798   15.950633   15.315860
  C     17.066737   17.080353   15.225641
  O     17.699820   17.327898   14.216363
  C     17.078225   17.986917   16.415074
  C     16.894705   19.309697   16.196349
  C     16.289148   19.920174   14.950660
  N     17.281686   20.263740   17.138496
  C     18.087948   19.992503   18.211753
  S     18.615313   21.180846   19.233625
  N     18.456994   18.680614   18.382674
  C     17.928443   17.537760   17.611586
  C     17.332885   16.443498   18.480574
  C     17.834727   15.130536   18.419969
  C     17.277642   14.118357   19.219484
  C     16.214786   14.423198   20.087430
  C     15.718540   15.732411   20.153861
  O     14.689148   16.028605   20.985865
  C     16.272899   16.737859   19.355301
  H     13.194745   14.935223   16.095446
  H     14.432313   14.078296   15.149393
  H     13.774226   15.622824   14.560806
  H     14.791043   16.806225   16.520310
  H     15.460085   15.255823   17.108665
  H     15.489598   19.287355   14.545902
  H     17.052378   20.022413   14.167516
  H     15.858857   20.911634   15.135873
  H     17.057814   21.235600   16.993540
  H     19.044805   18.509338   19.189135
  H     18.865895   17.178025   17.162290
  H     18.652829   14.891270   17.744643
  H     17.669205   13.103639   19.164282
  H     15.781811   13.643632   20.706089
  H     14.486221   15.230296   21.497125
  H     15.879635   17.747336   19.422054

----------------------------
CARTESIAN COORDINATES (A.U.)
----------------------------
  NO LB      ZA    FRAG     MASS         X           Y           Z
   0 C     6.0000    0    12.011   26.602481   28.477306   29.212295
   1 C     6.0000    0    12.011   28.687311   29.906679   30.643589
   2 O     8.0000    0    15.999   30.798374   30.142328   28.942780
   3 C     6.0000    0    12.011   32.251459   32.277189   28.772291
   4 O     8.0000    0    15.999   33.447812   32.744982   26.865032
   5 C     6.0000    0    12.011   32.273167   33.990347   31.019994
   6 C     6.0000    0    12.011   31.926366   36.490038   30.606664
   7 C     6.0000    0    12.011   30.782029   37.643673   28.252652
   8 N     7.0000    0    14.007   32.657654   38.292918   32.387064
   9 C     6.0000    0    12.011   34.181267   37.780355   34.415227
  10 S    16.0000    0    32.060   35.177843   40.025997   36.346284
  11 N     7.0000    0    14.007   34.878663   35.301245   34.738220
  12 C     6.0000    0    12.011   33.879847   33.141563   33.281073
  13 C     6.0000    0    12.011   32.754405   31.073709   34.923223
  14 C     6.0000    0    12.011   33.702749   28.592569   34.808696
  15 C     6.0000    0    12.011   32.650013   26.679829   36.319561
  16 C     6.0000    0    12.011   30.641505   27.255894   37.959742
  17 C     6.0000    0    12.011   29.703736   29.729948   38.085278
  18 O     8.0000    0    15.999   27.758467   30.289673   39.657537
  19 C     6.0000    0    12.011   30.751323   31.629970   36.576218
  20 H     1.0000    0     1.008   24.934454   28.223482   30.415984
  21 H     1.0000    0     1.008   27.273120   26.604124   28.628204
  22 H     1.0000    0     1.008   26.029515   29.522859   27.515935
  23 H     1.0000    0     1.008   27.951021   31.759162   31.218862
  24 H     1.0000    0     1.008   29.215326   28.829327   32.330692
  25 H     1.0000    0     1.008   29.271099   36.447818   27.487772
  26 H     1.0000    0     1.008   32.224324   37.836877   26.772724
  27 H     1.0000    0     1.008   29.968896   39.517262   28.602656
  28 H     1.0000    0     1.008   32.234597   40.129468   32.113136
  29 H     1.0000    0     1.008   35.989465   34.977580   36.262209
  30 H     1.0000    0     1.008   35.651374   32.461762   32.432027
  31 H     1.0000    0     1.008   35.248739   28.140422   33.532516
  32 H     1.0000    0     1.008   33.389958   24.762289   36.215245
  33 H     1.0000    0     1.008   29.823301   25.782728   39.128837
  34 H     1.0000    0     1.008   27.374990   28.781088   40.623679
  35 H     1.0000    0     1.008   30.008162   33.537606   36.702362

--------------------------------
INTERNAL COORDINATES (ANGSTROEM)
--------------------------------
 C      0   0   0     0.000000000000     0.00000000     0.00000000
 C      1   0   0     1.537186969386     0.00000000     0.00000000
 O      2   1   0     1.439990864859   106.94374262     0.00000000
 C      3   2   1     1.369552315095   123.24185573   140.42028098
 O      4   3   2     1.216846153338   120.96737205   203.51838011
 C      4   3   2     1.495573883021   116.86802653    23.07793159
 C      6   4   3     1.353242937525   117.57653187   227.75411730
 C      7   6   4     1.513645733636   125.55669015    18.88270873
 N      7   6   4     1.395561908915   121.43395166   199.70852449
 C      9   7   6     1.369492022472   123.84346482    12.98414944
 S     10   9   7     1.653630467407   121.98599870   175.08919385
 N     10   9   7     1.373484840988   116.41610062   356.21508656
 C     12  10   9     1.476502856523   125.31988455   352.17097089
 C     13  12  10     1.518959322238   113.52796960   235.55437245
 C     14  13  12     1.406907618722   120.51730046   238.35189988
 C     15  14  13     1.405017038765   120.42144694   180.33891012
 C     16  15  14     1.405675227495   119.66506644   359.81223160
 C     17  16  15     1.401681846552   119.96788859   359.85316506
 O     18  17  16     1.356321972497   120.11550271   179.70411105
 C     18  17  16     1.398548539017   120.27166092     0.26738301
 H      1   2   3     1.096765166509   110.59227139   179.64841189
 H      1   2   3     1.097290348042   110.55944165    59.75979792
 H      1   2   3     1.097211167688   110.69038783   299.71716031
 H      2   1   3     1.097932211649   108.73918377   120.87822065
 H      2   1   3     1.095512406013   109.17901176   239.95976614
 H      8   7   6     1.097072759721   111.25726936    35.63670626
 H      8   7   6     1.098310746454   110.26419782   276.72737720
 H      8   7   6     1.096562445696   112.49739078   156.10516861
 H      9   7   6     1.007791132242   120.03643120   185.72995400
 H     12  10   9     1.012539306135   114.62450112   180.59642049
 H     13  12  10     1.100042096198    99.28573499   119.55698568
 H     15  14  13     1.087476179129   120.02785758   359.77000568
 H     16  15  14     1.089046097035   119.98894703   179.77774137
 H     17  16  15     1.085324352447   119.85709673   179.97150222
 H     19  18  17     0.969465498480   107.61002505     4.59781404
 H     20  18  17     1.085429224435   119.33319096   180.25740927

---------------------------
INTERNAL COORDINATES (A.U.)
---------------------------
 C      0   0   0     0.000000000000     0.00000000     0.00000000
 C      1   0   0     2.904862388772     0.00000000     0.00000000
 O      2   1   0     2.721188369933   106.94374262     0.00000000
 C      3   2   1     2.588078801607   123.24185573   140.42028098
 O      4   3   2     2.299505976924   120.96737205   203.51838011
 C      4   3   2     2.826225051955   116.86802653    23.07793159
 C      6   4   3     2.557258544586   117.57653187   227.75411730
 C      7   6   4     2.860375900351   125.55669015    18.88270873
 N      7   6   4     2.637229810782   121.43395166   199.70852449
 C      9   7   6     2.587964865063   123.84346482    12.98414944
 S     10   9   7     3.124908710108   121.98599870   175.08919385
 N     10   9   7     2.595510198560   116.41610062   356.21508656
 C     12  10   9     2.790186034781   125.31988455   352.17097089
 C     13  12  10     2.870417127596   113.52796960   235.55437245
 C     14  13  12     2.658670095113   120.51730046   238.35189988
 C     15  14  13     2.655097416758   120.42144694   180.33891012
 C     16  15  14     2.656341213202   119.66506644   359.81223160
 C     17  16  15     2.648794816872   119.96788859   359.85316506
 O     18  17  16     2.563077077439   120.11550271   179.70411105
 C     18  17  16     2.642873723738   120.27166092     0.26738301
 H      1   2   3     2.072585797927   110.59227139   179.64841189
 H      1   2   3     2.073578247194   110.55944165    59.75979792
 H      1   2   3     2.073428618009   110.69038783   299.71716031
 H      2   1   3     2.074791193628   108.73918377   120.87822065
 H      2   1   3     2.070218423678   109.17901176   239.95976614
 H      8   7   6     2.073167064859   111.25726936    35.63670626
 H      8   7   6     2.075506520741   110.26419782   276.72737720
 H      8   7   6     2.072202711109   112.49739078   156.10516861
 H      9   7   6     1.904449240132   120.03643120   185.72995400
 H     12  10   9     1.913421988425   114.62450112   180.59642049
 H     13  12  10     2.078778297599    99.28573499   119.55698568
 H     15  14  13     2.055032155716   120.02785758   359.77000568
 H     16  15  14     2.057998870611   119.98894703   179.77774137
 H     17  16  15     2.050965792599   119.85709673   179.97150222
 H     19  18  17     1.832024288413   107.61002505     4.59781404
 H     20  18  17     2.051163971937   119.33319096   180.25740927

---------------------
BASIS SET INFORMATION
---------------------
There are 5 groups of distinct atoms

 Group   1 Type C   : 18s5p2d1f contracted to 4s3p2d1f pattern {8811/311/11/1}
 Group   2 Type O   : 18s5p2d1f contracted to 4s3p2d1f pattern {8811/311/11/1}
 Group   3 Type N   : 18s5p2d1f contracted to 4s3p2d1f pattern {8811/311/11/1}
 Group   4 Type S   : 41s16p2d1f contracted to 5s4p2d1f pattern {13131311/7711/11/1}
 Group   5 Type H   : 5s2p1d contracted to 3s2p1d pattern {311/11/1}

Atom   0C    basis set group =>   1
Atom   1C    basis set group =>   1
Atom   2O    basis set group =>   2
Atom   3C    basis set group =>   1
Atom   4O    basis set group =>   2
Atom   5C    basis set group =>   1
Atom   6C    basis set group =>   1
Atom   7C    basis set group =>   1
Atom   8N    basis set group =>   3
Atom   9C    basis set group =>   1
Atom  10S    basis set group =>   4
Atom  11N    basis set group =>   3
Atom  12C    basis set group =>   1
Atom  13C    basis set group =>   1
Atom  14C    basis set group =>   1
Atom  15C    basis set group =>   1
Atom  16C    basis set group =>   1
Atom  17C    basis set group =>   1
Atom  18O    basis set group =>   2
Atom  19C    basis set group =>   1
Atom  20H    basis set group =>   5
Atom  21H    basis set group =>   5
Atom  22H    basis set group =>   5
Atom  23H    basis set group =>   5
Atom  24H    basis set group =>   5
Atom  25H    basis set group =>   5
Atom  26H    basis set group =>   5
Atom  27H    basis set group =>   5
Atom  28H    basis set group =>   5
Atom  29H    basis set group =>   5
Atom  30H    basis set group =>   5
Atom  31H    basis set group =>   5
Atom  32H    basis set group =>   5
Atom  33H    basis set group =>   5
Atom  34H    basis set group =>   5
Atom  35H    basis set group =>   5
---------------------------------
AUXILIARY/C BASIS SET INFORMATION
---------------------------------
There are 5 groups of distinct atoms

 Group   1 Type C   : 8s6p5d3f1g contracted to 8s6p5d3f1g pattern {11111111/111111/11111/111/1}
 Group   2 Type O   : 8s6p5d3f1g contracted to 8s6p5d3f1g pattern {11111111/111111/11111/111/1}
 Group   3 Type N   : 8s6p5d3f1g contracted to 8s6p5d3f1g pattern {11111111/111111/11111/111/1}
 Group   4 Type S   : 10s8p7d5f2g contracted to 10s8p7d5f2g pattern {1111111111/11111111/1111111/11111/11}
 Group   5 Type H   : 4s3p2d1f contracted to 4s3p2d1f pattern {1111/111/11/1}

Atom   0C    basis set group =>   1
Atom   1C    basis set group =>   1
Atom   2O    basis set group =>   2
Atom   3C    basis set group =>   1
Atom   4O    basis set group =>   2
Atom   5C    basis set group =>   1
Atom   6C    basis set group =>   1
Atom   7C    basis set group =>   1
Atom   8N    basis set group =>   3
Atom   9C    basis set group =>   1
Atom  10S    basis set group =>   4
Atom  11N    basis set group =>   3
Atom  12C    basis set group =>   1
Atom  13C    basis set group =>   1
Atom  14C    basis set group =>   1
Atom  15C    basis set group =>   1
Atom  16C    basis set group =>   1
Atom  17C    basis set group =>   1
Atom  18O    basis set group =>   2
Atom  19C    basis set group =>   1
Atom  20H    basis set group =>   5
Atom  21H    basis set group =>   5
Atom  22H    basis set group =>   5
Atom  23H    basis set group =>   5
Atom  24H    basis set group =>   5
Atom  25H    basis set group =>   5
Atom  26H    basis set group =>   5
Atom  27H    basis set group =>   5
Atom  28H    basis set group =>   5
Atom  29H    basis set group =>   5
Atom  30H    basis set group =>   5
Atom  31H    basis set group =>   5
Atom  32H    basis set group =>   5
Atom  33H    basis set group =>   5
Atom  34H    basis set group =>   5
Atom  35H    basis set group =>   5
------------------------------------------------------------------------------
                           ORCA GTO INTEGRAL CALCULATION
------------------------------------------------------------------------------

                         BASIS SET STATISTICS AND STARTUP INFO

 # of primitive gaussian shells          ...  682
 # of primitive gaussian functions       ... 1312
 # of contracted shells                  ...  298
 # of contracted basis functions         ...  828
 Highest angular momentum                ...    3
 Maximum contraction depth               ...   13
 Integral package used                   ... LIBINT
 Integral threshhold            Thresh   ...  2.500e-11
 Primitive cut-off              TCut     ...  2.500e-12


------------------------------ INTEGRAL EVALUATION ----------------------------


 * One electron integrals 
 Pre-screening matrix                    ... done
 Shell pair data                         ... done (   0.013 sec)

-------------------------------------------------------------------------------
                                 ORCA SCF
-------------------------------------------------------------------------------

------------
SCF SETTINGS
------------
Hamiltonian:
 Ab initio Hamiltonian  Method          .... Hartree-Fock(GTOs)


General Settings:
 Integral files         IntName         .... CONFS/Conf855.orca
 Hartree-Fock type      HFTyp           .... RHF
 Total Charge           Charge          ....    0
 Multiplicity           Mult            ....    1
 Number of Electrons    NEL             ....  154
 Basis Dimension        Dim             ....  828
 Nuclear Repulsion      ENuc            ....   1706.3866356194 Eh

Convergence Acceleration:
 DIIS                   CNVDIIS         .... on
   Start iteration      DIISMaxIt       ....    12
   Startup error        DIISStart       ....  0.200000
   # of expansion vecs  DIISMaxEq       ....     5
   Bias factor          DIISBfac        ....   1.050
   Max. coefficient     DIISMaxC        ....  10.000
 Newton-Raphson         CNVNR           .... off
 SOSCF                  CNVSOSCF        .... on
   Start iteration      SOSCFMaxIt      ....   150
   Startup grad/error   SOSCFStart      ....  0.003300
 Level Shifting         CNVShift        .... on
   Level shift para.    LevelShift      ....    0.2500
   Turn off err/grad.   ShiftErr        ....    0.0010
 Zerner damping         CNVZerner       .... off
 Static damping         CNVDamp         .... on
   Fraction old density DampFac         ....    0.7000
   Max. Damping (<1)    DampMax         ....    0.9800
   Min. Damping (>=0)   DampMin         ....    0.0000
   Turn off err/grad.   DampErr         ....    0.1000
 Fernandez-Rico         CNVRico         .... off

SCF Procedure:
 Maximum # iterations   MaxIter         ....   125
 SCF integral mode      SCFMode         .... Direct
   Integral package                     .... LIBINT
 Reset frequency        DirectResetFreq ....    20
 Integral Threshold     Thresh          ....  2.500e-11 Eh
 Primitive CutOff       TCut            ....  2.500e-12 Eh

Convergence Tolerance:
 Convergence Check Mode ConvCheckMode   .... Total+1el-Energy
 Convergence forced     ConvForced      .... 1
 Energy Change          TolE            ....  1.000e-08 Eh
 1-El. energy change                    ....  1.000e-05 Eh
 Orbital Gradient       TolG            ....  1.000e-05
 Orbital Rotation angle TolX            ....  1.000e-05
 DIIS Error             TolErr          ....  5.000e-07


Diagonalization of the overlap matrix:
Smallest eigenvalue                        ... 3.302e-05
Time for diagonalization                   ...    0.298 sec
Threshold for overlap eigenvalues          ... 1.000e-08
Number of eigenvalues below threshold      ... 0
Time for construction of square roots      ...    0.426 sec
Total time needed                          ...    0.726 sec

-------------------
DFT GRID GENERATION
-------------------

General Integration Accuracy     IntAcc      ...  4.340
Radial Grid Type                 RadialGrid  ... Gauss-Chebyshev
Angular Grid (max. acc.)         AngularGrid ... Lebedev-110
Angular grid pruning method      GridPruning ... 3 (G Style)
Weight generation scheme         WeightScheme... Becke
Basis function cutoff            BFCut       ...    1.0000e-11
Integration weight cutoff        WCut        ...    1.0000e-14
Grids for H and He will be reduced by one unit

# of grid points (after initial pruning)     ...  46246 (   0.0 sec)
# of grid points (after weights+screening)   ...  41270 (   0.3 sec)
nearest neighbour list constructed           ...    0.0 sec
Grid point re-assignment to atoms done       ...    0.0 sec
Grid point division into batches done        ...    0.0 sec
Reduced shell lists constructed in    0.9 sec

Total number of grid points                  ...    41270
Total number of batches                      ...      665
Average number of points per batch           ...       62
Average number of grid points per atom       ...     1146
Average number of shells per batch           ...   149.91 (50.30%)
Average number of basis functions per batch  ...   381.47 (46.07%)
Average number of large shells per batch     ...    96.50 (64.37%)
Average number of large basis fcns per batch ...   247.23 (64.81%)
Maximum spatial batch extension              ...  25.60, 23.14, 21.42 au
Average spatial batch extension              ...   3.64,  3.38,  3.43 au

Time for grid setup =    1.158 sec

------------------------------
INITIAL GUESS: MODEL POTENTIAL
------------------------------
Loading Hartree-Fock densities                     ... done
Calculating cut-offs                               ... done
Setting up the integral package                    ... done
Initializing the effective Hamiltonian             ... done
Starting the Coulomb interaction                   ... done (   2.9 sec)
Reading the grid                                   ... done
Mapping shells                                     ... done
Starting the XC term evaluation                    ... done (   1.2 sec)
Transforming the Hamiltonian                       ... done (   0.2 sec)
Diagonalizing the Hamiltonian                      ... done (   0.3 sec)
Back transforming the eigenvectors                 ... done (   0.1 sec)
Now organizing SCF variables                       ... done
                      ------------------
                      INITIAL GUESS DONE (   6.4 sec)
                      ------------------
--------------
SCF ITERATIONS
--------------
ITER       Energy         Delta-E        Max-DP      RMS-DP      [F,P]     Damp
               ***  Starting incremental Fock matrix formation  ***
  0  -1269.9952643644   0.000000000000 0.04929978  0.00043646  0.3039344 0.7000
  1  -1270.2615103120  -0.266245947569 0.03607735  0.00035345  0.1786165 0.7000
                               ***Turning on DIIS***
  2  -1270.4276198413  -0.166109529367 0.02584172  0.00023642  0.1097711 0.7000
  3  -1272.5337572161  -2.106137374778 0.06318437  0.00050742  0.0829034 0.0000
  4  -1270.7384820445   1.795275171557 0.01265781  0.00009694  0.0069183 0.0000
  5  -1270.7939099032  -0.055427858638 0.00404921  0.00005079  0.0037947 0.0000
                      *** Initiating the SOSCF procedure ***
                           *** Shutting down DIIS ***
                      *** Re-Reading the Fockian *** 
                      *** Removing any level shift *** 
ITER      Energy       Delta-E        Grad      Rot      Max-DP    RMS-DP
  6  -1270.77250278   0.0214071279  0.002171  0.002171  0.001953  0.000025
               *** Restarting incremental Fock matrix formation ***
  7  -1270.78866122  -0.0161584405  0.000710  0.001765  0.001337  0.000016
  8  -1270.78870311  -0.0000418952  0.000633  0.002105  0.001426  0.000016
  9  -1270.78871837  -0.0000152624  0.000185  0.000291  0.000388  0.000004
 10  -1270.78872044  -0.0000020670  0.000046  0.000118  0.000111  0.000001
 11  -1270.78872060  -0.0000001571  0.000021  0.000080  0.000054  0.000001
 12  -1270.78872064  -0.0000000462  0.000009  0.000033  0.000027  0.000000
 13  -1270.78872065  -0.0000000050  0.000003  0.000012  0.000007  0.000000
                  ***Gradient check signals convergence***
              ***Rediagonalizing the Fockian in SOSCF/NRSCF***

               *****************************************************
               *                     SUCCESS                       *
               *           SCF CONVERGED AFTER  14 CYCLES          *
               *****************************************************


----------------
TOTAL SCF ENERGY
----------------

Total Energy       :        -1270.78872063 Eh          -34579.91910 eV

Components:
Nuclear Repulsion  :         1706.38663562 Eh           46433.14097 eV
Electronic Energy  :        -2977.17535625 Eh          -81013.06007 eV
One Electron Energy:        -5133.31769948 Eh         -139684.67603 eV
Two Electron Energy:         2156.14234322 Eh           58671.61597 eV

Virial components:
Potential Energy   :        -2539.80835079 Eh          -69111.69880 eV
Kinetic Energy     :         1269.01963016 Eh           34531.77970 eV
Virial Ratio       :            2.00139406


---------------
SCF CONVERGENCE
---------------

  Last Energy change         ...    1.4923e-08  Tolerance :   1.0000e-08
  Last MAX-Density change    ...    1.5228e-06  Tolerance :   1.0000e-07
  Last RMS-Density change    ...    2.9233e-08  Tolerance :   5.0000e-09
  Last Orbital Gradient      ...    1.3144e-06  Tolerance :   1.0000e-05
  Last Orbital Rotation      ...    2.5899e-06  Tolerance :   1.0000e-05

             **** THE GBW FILE WAS UPDATED (CONFS/Conf855.orca.gbw) ****
             **** DENSITY FILE WAS UPDATED (CONFS/Conf855.orca.scfp) ****
             **** ENERGY FILE WAS UPDATED (CONFS/Conf855.orca.en.tmp) ****
             **** THE GBW FILE WAS UPDATED (CONFS/Conf855.orca.gbw) ****
             **** DENSITY FILE WAS UPDATED (CONFS/Conf855.orca.scfp) ****
----------------
ORBITAL ENERGIES
----------------

  NO   OCC          E(Eh)            E(eV) 
   0   2.0000     -91.890066     -2500.4558 
   1   2.0000     -20.605773      -560.7116 
   2   2.0000     -20.598700      -560.5191 
   3   2.0000     -20.549442      -559.1788 
   4   2.0000     -15.626973      -425.2316 
   5   2.0000     -15.610877      -424.7936 
   6   2.0000     -11.395408      -310.0848 
   7   2.0000     -11.385408      -309.8127 
   8   2.0000     -11.329028      -308.2785 
   9   2.0000     -11.324280      -308.1493 
  10   2.0000     -11.316988      -307.9509 
  11   2.0000     -11.296845      -307.4028 
  12   2.0000     -11.270281      -306.6799 
  13   2.0000     -11.265585      -306.5521 
  14   2.0000     -11.257095      -306.3211 
  15   2.0000     -11.256846      -306.3143 
  16   2.0000     -11.254599      -306.2532 
  17   2.0000     -11.249130      -306.1044 
  18   2.0000     -11.248388      -306.0842 
  19   2.0000     -11.228929      -305.5547 
  20   2.0000      -8.895143      -242.0492 
  21   2.0000      -6.576717      -178.9616 
  22   2.0000      -6.574715      -178.9071 
  23   2.0000      -6.574127      -178.8911 
  24   2.0000      -1.446574       -39.3633 
  25   2.0000      -1.425548       -38.7911 
  26   2.0000      -1.359816       -37.0025 
  27   2.0000      -1.340209       -36.4689 
  28   2.0000      -1.240061       -33.7438 
  29   2.0000      -1.167631       -31.7728 
  30   2.0000      -1.125621       -30.6297 
  31   2.0000      -1.052013       -28.6267 
  32   2.0000      -1.036151       -28.1951 
  33   2.0000      -1.025583       -27.9075 
  34   2.0000      -1.003431       -27.3047 
  35   2.0000      -0.989315       -26.9206 
  36   2.0000      -0.927629       -25.2421 
  37   2.0000      -0.878678       -23.9100 
  38   2.0000      -0.852975       -23.2106 
  39   2.0000      -0.844867       -22.9900 
  40   2.0000      -0.844418       -22.9778 
  41   2.0000      -0.837858       -22.7993 
  42   2.0000      -0.759858       -20.6768 
  43   2.0000      -0.740460       -20.1489 
  44   2.0000      -0.726287       -19.7633 
  45   2.0000      -0.704513       -19.1708 
  46   2.0000      -0.693281       -18.8651 
  47   2.0000      -0.677576       -18.4378 
  48   2.0000      -0.676276       -18.4024 
  49   2.0000      -0.670673       -18.2499 
  50   2.0000      -0.651411       -17.7258 
  51   2.0000      -0.649202       -17.6657 
  52   2.0000      -0.637156       -17.3379 
  53   2.0000      -0.615429       -16.7467 
  54   2.0000      -0.609751       -16.5922 
  55   2.0000      -0.604755       -16.4562 
  56   2.0000      -0.589442       -16.0395 
  57   2.0000      -0.583208       -15.8699 
  58   2.0000      -0.575972       -15.6730 
  59   2.0000      -0.570546       -15.5253 
  60   2.0000      -0.563041       -15.3211 
  61   2.0000      -0.556399       -15.1404 
  62   2.0000      -0.547473       -14.8975 
  63   2.0000      -0.531417       -14.4606 
  64   2.0000      -0.524179       -14.2636 
  65   2.0000      -0.516977       -14.0677 
  66   2.0000      -0.505915       -13.7667 
  67   2.0000      -0.503343       -13.6967 
  68   2.0000      -0.488238       -13.2856 
  69   2.0000      -0.469444       -12.7742 
  70   2.0000      -0.453704       -12.3459 
  71   2.0000      -0.447252       -12.1703 
  72   2.0000      -0.359103        -9.7717 
  73   2.0000      -0.352529        -9.5928 
  74   2.0000      -0.333661        -9.0794 
  75   2.0000      -0.328772        -8.9463 
  76   2.0000      -0.319553        -8.6955 
  77   0.0000       0.083569         2.2740 
  78   0.0000       0.094650         2.5755 
  79   0.0000       0.117083         3.1860 
  80   0.0000       0.125765         3.4222 
  81   0.0000       0.129637         3.5276 
  82   0.0000       0.140128         3.8131 
  83   0.0000       0.143274         3.8987 
  84   0.0000       0.155753         4.2382 
  85   0.0000       0.157765         4.2930 
  86   0.0000       0.168185         4.5766 
  87   0.0000       0.171099         4.6558 
  88   0.0000       0.180002         4.8981 
  89   0.0000       0.193786         5.2732 
  90   0.0000       0.200549         5.4572 
  91   0.0000       0.204317         5.5597 
  92   0.0000       0.210672         5.7327 
  93   0.0000       0.216120         5.8809 
  94   0.0000       0.218156         5.9363 
  95   0.0000       0.231357         6.2956 
  96   0.0000       0.240018         6.5312 
  97   0.0000       0.245361         6.6766 
  98   0.0000       0.251600         6.8464 
  99   0.0000       0.267395         7.2762 
 100   0.0000       0.298850         8.1321 
 101   0.0000       0.299246         8.1429 
 102   0.0000       0.307011         8.3542 
 103   0.0000       0.311207         8.4684 
 104   0.0000       0.317155         8.6302 
 105   0.0000       0.318592         8.6693 
 106   0.0000       0.335280         9.1234 
 107   0.0000       0.339322         9.2334 
 108   0.0000       0.352272         9.5858 
 109   0.0000       0.362684         9.8691 
 110   0.0000       0.370499        10.0818 
 111   0.0000       0.375866        10.2278 
 112   0.0000       0.380762        10.3611 
 113   0.0000       0.388931        10.5834 
 114   0.0000       0.401657        10.9296 
 115   0.0000       0.406739        11.0679 
 116   0.0000       0.413713        11.2577 
 117   0.0000       0.419018        11.4021 
 118   0.0000       0.426622        11.6090 
 119   0.0000       0.434210        11.8155 
 120   0.0000       0.440084        11.9753 
 121   0.0000       0.445876        12.1329 
 122   0.0000       0.453266        12.3340 
 123   0.0000       0.456040        12.4095 
 124   0.0000       0.460007        12.5174 
 125   0.0000       0.463535        12.6134 
 126   0.0000       0.469647        12.7797 
 127   0.0000       0.476807        12.9746 
 128   0.0000       0.481732        13.1086 
 129   0.0000       0.493959        13.4413 
 130   0.0000       0.498054        13.5527 
 131   0.0000       0.503392        13.6980 
 132   0.0000       0.510798        13.8995 
 133   0.0000       0.515451        14.0261 
 134   0.0000       0.518844        14.1185 
 135   0.0000       0.524811        14.2808 
 136   0.0000       0.531814        14.4714 
 137   0.0000       0.535410        14.5693 
 138   0.0000       0.542303        14.7568 
 139   0.0000       0.547715        14.9041 
 140   0.0000       0.550363        14.9761 
 141   0.0000       0.556581        15.1454 
 142   0.0000       0.560096        15.2410 
 143   0.0000       0.563769        15.3409 
 144   0.0000       0.570993        15.5375 
 145   0.0000       0.577545        15.7158 
 146   0.0000       0.581656        15.8277 
 147   0.0000       0.586684        15.9645 
 148   0.0000       0.594147        16.1676 
 149   0.0000       0.598807        16.2944 
 150   0.0000       0.603692        16.4273 
 151   0.0000       0.607442        16.5293 
 152   0.0000       0.608280        16.5521 
 153   0.0000       0.612723        16.6730 
 154   0.0000       0.619775        16.8649 
 155   0.0000       0.627203        17.0671 
 156   0.0000       0.628838        17.1116 
 157   0.0000       0.632291        17.2055 
 158   0.0000       0.635484        17.2924 
 159   0.0000       0.642156        17.4740 
 160   0.0000       0.645508        17.5652 
 161   0.0000       0.648881        17.6570 
 162   0.0000       0.650684        17.7060 
 163   0.0000       0.658404        17.9161 
 164   0.0000       0.668181        18.1821 
 165   0.0000       0.674962        18.3666 
 166   0.0000       0.676331        18.4039 
 167   0.0000       0.685813        18.6619 
 168   0.0000       0.693673        18.8758 
 169   0.0000       0.703595        19.1458 
 170   0.0000       0.705818        19.2063 
 171   0.0000       0.707386        19.2490 
 172   0.0000       0.711950        19.3731 
 173   0.0000       0.717201        19.5160 
 174   0.0000       0.724340        19.7103 
 175   0.0000       0.730889        19.8885 
 176   0.0000       0.735339        20.0096 
 177   0.0000       0.744845        20.2683 
 178   0.0000       0.752621        20.4799 
 179   0.0000       0.765311        20.8252 
 180   0.0000       0.767823        20.8935 
 181   0.0000       0.776439        21.1280 
 182   0.0000       0.782196        21.2846 
 183   0.0000       0.794701        21.6249 
 184   0.0000       0.801539        21.8110 
 185   0.0000       0.807476        21.9725 
 186   0.0000       0.815721        22.1969 
 187   0.0000       0.825908        22.4741 
 188   0.0000       0.828577        22.5467 
 189   0.0000       0.833986        22.6939 
 190   0.0000       0.841681        22.9033 
 191   0.0000       0.856600        23.3093 
 192   0.0000       0.858775        23.3684 
 193   0.0000       0.867449        23.6045 
 194   0.0000       0.872031        23.7292 
 195   0.0000       0.875595        23.8261 
 196   0.0000       0.881349        23.9827 
 197   0.0000       0.886058        24.1109 
 198   0.0000       0.898685        24.4545 
 199   0.0000       0.905799        24.6480 
 200   0.0000       0.913982        24.8707 
 201   0.0000       0.917655        24.9707 
 202   0.0000       0.923672        25.1344 
 203   0.0000       0.932974        25.3875 
 204   0.0000       0.937739        25.5172 
 205   0.0000       0.943157        25.6646 
 206   0.0000       0.956487        26.0273 
 207   0.0000       0.958105        26.0714 
 208   0.0000       0.959496        26.1092 
 209   0.0000       0.972512        26.4634 
 210   0.0000       0.975247        26.5378 
 211   0.0000       0.982986        26.7484 
 212   0.0000       0.986488        26.8437 
 213   0.0000       0.998474        27.1699 
 214   0.0000       1.011245        27.5174 
 215   0.0000       1.013588        27.5811 
 216   0.0000       1.017134        27.6776 
 217   0.0000       1.029436        28.0124 
 218   0.0000       1.034701        28.1557 
 219   0.0000       1.041044        28.3282 
 220   0.0000       1.048073        28.5195 
 221   0.0000       1.056218        28.7411 
 222   0.0000       1.062541        28.9132 
 223   0.0000       1.077771        29.3276 
 224   0.0000       1.083834        29.4926 
 225   0.0000       1.090118        29.6636 
 226   0.0000       1.092738        29.7349 
 227   0.0000       1.103978        30.0408 
 228   0.0000       1.115306        30.3490 
 229   0.0000       1.116962        30.3941 
 230   0.0000       1.129610        30.7382 
 231   0.0000       1.132218        30.8092 
 232   0.0000       1.138341        30.9758 
 233   0.0000       1.146180        31.1891 
 234   0.0000       1.161898        31.6168 
 235   0.0000       1.164827        31.6966 
 236   0.0000       1.166538        31.7431 
 237   0.0000       1.170181        31.8422 
 238   0.0000       1.177965        32.0541 
 239   0.0000       1.179533        32.0967 
 240   0.0000       1.196690        32.5636 
 241   0.0000       1.201883        32.7049 
 242   0.0000       1.203896        32.7597 
 243   0.0000       1.208783        32.8927 
 244   0.0000       1.212417        32.9915 
 245   0.0000       1.229807        33.4648 
 246   0.0000       1.237074        33.6625 
 247   0.0000       1.239571        33.7305 
 248   0.0000       1.245138        33.8819 
 249   0.0000       1.250611        34.0308 
 250   0.0000       1.261836        34.3363 
 251   0.0000       1.271084        34.5880 
 252   0.0000       1.277764        34.7697 
 253   0.0000       1.281915        34.8827 
 254   0.0000       1.300973        35.4013 
 255   0.0000       1.307054        35.5668 
 256   0.0000       1.314973        35.7822 
 257   0.0000       1.326996        36.1094 
 258   0.0000       1.327540        36.1242 
 259   0.0000       1.338790        36.4303 
 260   0.0000       1.342560        36.5329 
 261   0.0000       1.351726        36.7823 
 262   0.0000       1.365037        37.1446 
 263   0.0000       1.367365        37.2079 
 264   0.0000       1.371975        37.3333 
 265   0.0000       1.377084        37.4724 
 266   0.0000       1.385302        37.6960 
 267   0.0000       1.394111        37.9357 
 268   0.0000       1.409169        38.3454 
 269   0.0000       1.411053        38.3967 
 270   0.0000       1.424117        38.7522 
 271   0.0000       1.434687        39.0398 
 272   0.0000       1.439794        39.1788 
 273   0.0000       1.444237        39.2997 
 274   0.0000       1.456666        39.6379 
 275   0.0000       1.460147        39.7326 
 276   0.0000       1.464104        39.8403 
 277   0.0000       1.465285        39.8724 
 278   0.0000       1.486008        40.4363 
 279   0.0000       1.488683        40.5091 
 280   0.0000       1.497106        40.7383 
 281   0.0000       1.499071        40.7918 
 282   0.0000       1.508810        41.0568 
 283   0.0000       1.520353        41.3709 
 284   0.0000       1.523827        41.4655 
 285   0.0000       1.527063        41.5535 
 286   0.0000       1.533195        41.7204 
 287   0.0000       1.539127        41.8818 
 288   0.0000       1.543933        42.0126 
 289   0.0000       1.552909        42.2568 
 290   0.0000       1.556106        42.3438 
 291   0.0000       1.558327        42.4042 
 292   0.0000       1.566811        42.6351 
 293   0.0000       1.573628        42.8206 
 294   0.0000       1.579539        42.9814 
 295   0.0000       1.594917        43.3999 
 296   0.0000       1.602565        43.6080 
 297   0.0000       1.604295        43.6551 
 298   0.0000       1.619559        44.0704 
 299   0.0000       1.622643        44.1543 
 300   0.0000       1.636601        44.5342 
 301   0.0000       1.641248        44.6606 
 302   0.0000       1.650520        44.9129 
 303   0.0000       1.656077        45.0641 
 304   0.0000       1.665372        45.3171 
 305   0.0000       1.674767        45.5727 
 306   0.0000       1.677000        45.6335 
 307   0.0000       1.695368        46.1333 
 308   0.0000       1.702794        46.3354 
 309   0.0000       1.712699        46.6049 
 310   0.0000       1.726696        46.9858 
 311   0.0000       1.729395        47.0592 
 312   0.0000       1.746075        47.5131 
 313   0.0000       1.748944        47.5912 
 314   0.0000       1.759962        47.8910 
 315   0.0000       1.766655        48.0731 
 316   0.0000       1.772278        48.2261 
 317   0.0000       1.781953        48.4894 
 318   0.0000       1.788833        48.6766 
 319   0.0000       1.804017        49.0898 
 320   0.0000       1.808782        49.2195 
 321   0.0000       1.821866        49.5755 
 322   0.0000       1.826638        49.7053 
 323   0.0000       1.844185        50.1828 
 324   0.0000       1.850281        50.3487 
 325   0.0000       1.868379        50.8412 
 326   0.0000       1.875035        51.0223 
 327   0.0000       1.888993        51.4021 
 328   0.0000       1.905745        51.8580 
 329   0.0000       1.916090        52.1395 
 330   0.0000       1.929353        52.5004 
 331   0.0000       1.935145        52.6580 
 332   0.0000       1.950538        53.0768 
 333   0.0000       1.955984        53.2250 
 334   0.0000       1.958661        53.2979 
 335   0.0000       1.967339        53.5340 
 336   0.0000       1.989600        54.1398 
 337   0.0000       2.000271        54.4301 
 338   0.0000       2.002341        54.4865 
 339   0.0000       2.011893        54.7464 
 340   0.0000       2.019305        54.9481 
 341   0.0000       2.027667        55.1756 
 342   0.0000       2.033136        55.3244 
 343   0.0000       2.064830        56.1869 
 344   0.0000       2.078165        56.5497 
 345   0.0000       2.106661        57.3251 
 346   0.0000       2.117729        57.6263 
 347   0.0000       2.134212        58.0749 
 348   0.0000       2.148364        58.4600 
 349   0.0000       2.158932        58.7475 
 350   0.0000       2.173091        59.1328 
 351   0.0000       2.200500        59.8786 
 352   0.0000       2.202414        59.9307 
 353   0.0000       2.217776        60.3487 
 354   0.0000       2.221780        60.4577 
 355   0.0000       2.265912        61.6586 
 356   0.0000       2.280242        62.0485 
 357   0.0000       2.294119        62.4262 
 358   0.0000       2.298264        62.5389 
 359   0.0000       2.304497        62.7085 
 360   0.0000       2.314002        62.9672 
 361   0.0000       2.330769        63.4235 
 362   0.0000       2.346528        63.8523 
 363   0.0000       2.357328        64.1461 
 364   0.0000       2.367064        64.4111 
 365   0.0000       2.369884        64.4878 
 366   0.0000       2.384414        64.8832 
 367   0.0000       2.389147        65.0120 
 368   0.0000       2.399868        65.3037 
 369   0.0000       2.418547        65.8120 
 370   0.0000       2.451277        66.7026 
 371   0.0000       2.454882        66.8007 
 372   0.0000       2.474729        67.3408 
 373   0.0000       2.475523        67.3624 
 374   0.0000       2.483761        67.5866 
 375   0.0000       2.495858        67.9158 
 376   0.0000       2.501143        68.0596 
 377   0.0000       2.515003        68.4367 
 378   0.0000       2.531114        68.8751 
 379   0.0000       2.551961        69.4424 
 380   0.0000       2.567074        69.8536 
 381   0.0000       2.570485        69.9464 
 382   0.0000       2.581343        70.2419 
 383   0.0000       2.600287        70.7574 
 384   0.0000       2.601505        70.7906 
 385   0.0000       2.617352        71.2218 
 386   0.0000       2.627984        71.5111 
 387   0.0000       2.646583        72.0172 
 388   0.0000       2.655935        72.2717 
 389   0.0000       2.674649        72.7809 
 390   0.0000       2.677060        72.8465 
 391   0.0000       2.699241        73.4501 
 392   0.0000       2.707969        73.6876 
 393   0.0000       2.710929        73.7681 
 394   0.0000       2.717255        73.9403 
 395   0.0000       2.728225        74.2388 
 396   0.0000       2.738854        74.5280 
 397   0.0000       2.740374        74.5694 
 398   0.0000       2.747818        74.7719 
 399   0.0000       2.768248        75.3279 
 400   0.0000       2.779501        75.6341 
 401   0.0000       2.783801        75.7511 
 402   0.0000       2.796206        76.0886 
 403   0.0000       2.809966        76.4631 
 404   0.0000       2.818346        76.6911 
 405   0.0000       2.827005        76.9267 
 406   0.0000       2.827609        76.9432 
 407   0.0000       2.831418        77.0468 
 408   0.0000       2.851269        77.5870 
 409   0.0000       2.853039        77.6351 
 410   0.0000       2.870921        78.1217 
 411   0.0000       2.877296        78.2952 
 412   0.0000       2.884319        78.4863 
 413   0.0000       2.895004        78.7771 
 414   0.0000       2.910673        79.2034 
 415   0.0000       2.921060        79.4861 
 416   0.0000       2.926129        79.6240 
 417   0.0000       2.940022        80.0021 
 418   0.0000       2.949141        80.2502 
 419   0.0000       2.954371        80.3925 
 420   0.0000       2.965251        80.6886 
 421   0.0000       2.968527        80.7777 
 422   0.0000       2.984213        81.2046 
 423   0.0000       2.990531        81.3765 
 424   0.0000       3.005919        81.7952 
 425   0.0000       3.011081        81.9357 
 426   0.0000       3.012702        81.9798 
 427   0.0000       3.019477        82.1641 
 428   0.0000       3.027140        82.3727 
 429   0.0000       3.033303        82.5404 
 430   0.0000       3.037735        82.6610 
 431   0.0000       3.054304        83.1118 
 432   0.0000       3.065597        83.4191 
 433   0.0000       3.067845        83.4803 
 434   0.0000       3.076593        83.7183 
 435   0.0000       3.079388        83.7944 
 436   0.0000       3.082464        83.8781 
 437   0.0000       3.095952        84.2451 
 438   0.0000       3.096549        84.2614 
 439   0.0000       3.099487        84.3413 
 440   0.0000       3.105530        84.5058 
 441   0.0000       3.106968        84.5449 
 442   0.0000       3.116723        84.8104 
 443   0.0000       3.124634        85.0256 
 444   0.0000       3.133290        85.2612 
 445   0.0000       3.136027        85.3356 
 446   0.0000       3.154415        85.8360 
 447   0.0000       3.164023        86.0974 
 448   0.0000       3.167337        86.1876 
 449   0.0000       3.200295        87.0845 
 450   0.0000       3.205377        87.2228 
 451   0.0000       3.207236        87.2733 
 452   0.0000       3.216725        87.5315 
 453   0.0000       3.219222        87.5995 
 454   0.0000       3.224961        87.7556 
 455   0.0000       3.236777        88.0772 
 456   0.0000       3.245268        88.3082 
 457   0.0000       3.247618        88.3722 
 458   0.0000       3.255185        88.5781 
 459   0.0000       3.264130        88.8215 
 460   0.0000       3.277502        89.1854 
 461   0.0000       3.281255        89.2875 
 462   0.0000       3.285676        89.4078 
 463   0.0000       3.290218        89.5314 
 464   0.0000       3.292027        89.5806 
 465   0.0000       3.303692        89.8980 
 466   0.0000       3.310030        90.0705 
 467   0.0000       3.313807        90.1733 
 468   0.0000       3.323387        90.4340 
 469   0.0000       3.326389        90.5157 
 470   0.0000       3.331665        90.6592 
 471   0.0000       3.339891        90.8831 
 472   0.0000       3.347171        91.0812 
 473   0.0000       3.354084        91.2693 
 474   0.0000       3.361295        91.4655 
 475   0.0000       3.365060        91.5679 
 476   0.0000       3.371074        91.7316 
 477   0.0000       3.372389        91.7674 
 478   0.0000       3.377465        91.9055 
 479   0.0000       3.391893        92.2981 
 480   0.0000       3.394456        92.3678 
 481   0.0000       3.398569        92.4798 
 482   0.0000       3.403364        92.6102 
 483   0.0000       3.408805        92.7583 
 484   0.0000       3.414684        92.9183 
 485   0.0000       3.420967        93.0892 
 486   0.0000       3.427729        93.2732 
 487   0.0000       3.432598        93.4057 
 488   0.0000       3.436841        93.5212 
 489   0.0000       3.439379        93.5903 
 490   0.0000       3.446407        93.7815 
 491   0.0000       3.450837        93.9020 
 492   0.0000       3.455397        94.0261 
 493   0.0000       3.466133        94.3183 
 494   0.0000       3.472475        94.4908 
 495   0.0000       3.480155        94.6998 
 496   0.0000       3.485483        94.8448 
 497   0.0000       3.495121        95.1071 
 498   0.0000       3.507725        95.4501 
 499   0.0000       3.512766        95.5872 
 500   0.0000       3.516489        95.6885 
 501   0.0000       3.518599        95.7459 
 502   0.0000       3.522318        95.8472 
 503   0.0000       3.530639        96.0736 
 504   0.0000       3.535550        96.2072 
 505   0.0000       3.540400        96.3392 
 506   0.0000       3.551287        96.6354 
 507   0.0000       3.570818        97.1669 
 508   0.0000       3.572167        97.2036 
 509   0.0000       3.582231        97.4775 
 510   0.0000       3.590837        97.7116 
 511   0.0000       3.600380        97.9713 
 512   0.0000       3.610357        98.2428 
 513   0.0000       3.619707        98.4972 
 514   0.0000       3.622233        98.5660 
 515   0.0000       3.627647        98.7133 
 516   0.0000       3.631739        98.8246 
 517   0.0000       3.638685        99.0137 
 518   0.0000       3.641824        99.0991 
 519   0.0000       3.645489        99.1988 
 520   0.0000       3.652771        99.3970 
 521   0.0000       3.658762        99.5600 
 522   0.0000       3.660103        99.5965 
 523   0.0000       3.665422        99.7412 
 524   0.0000       3.667023        99.7848 
 525   0.0000       3.676366       100.0390 
 526   0.0000       3.681898       100.1895 
 527   0.0000       3.688807       100.3775 
 528   0.0000       3.700197       100.6875 
 529   0.0000       3.708764       100.9206 
 530   0.0000       3.711159       100.9858 
 531   0.0000       3.716702       101.1366 
 532   0.0000       3.734013       101.6076 
 533   0.0000       3.740583       101.7864 
 534   0.0000       3.743462       101.8648 
 535   0.0000       3.749369       102.0255 
 536   0.0000       3.754519       102.1656 
 537   0.0000       3.764347       102.4331 
 538   0.0000       3.768038       102.5335 
 539   0.0000       3.770687       102.6056 
 540   0.0000       3.777115       102.7805 
 541   0.0000       3.783432       102.9524 
 542   0.0000       3.791191       103.1635 
 543   0.0000       3.798936       103.3743 
 544   0.0000       3.810305       103.6837 
 545   0.0000       3.815211       103.8172 
 546   0.0000       3.827809       104.1600 
 547   0.0000       3.832621       104.2909 
 548   0.0000       3.841170       104.5235 
 549   0.0000       3.847637       104.6995 
 550   0.0000       3.851202       104.7965 
 551   0.0000       3.861824       105.0856 
 552   0.0000       3.870538       105.3227 
 553   0.0000       3.881962       105.6336 
 554   0.0000       3.887218       105.7766 
 555   0.0000       3.898018       106.0704 
 556   0.0000       3.902586       106.1948 
 557   0.0000       3.907641       106.3323 
 558   0.0000       3.921801       106.7176 
 559   0.0000       3.931802       106.9898 
 560   0.0000       3.947632       107.4205 
 561   0.0000       3.953312       107.5751 
 562   0.0000       3.968887       107.9989 
 563   0.0000       3.972105       108.0865 
 564   0.0000       3.981521       108.3427 
 565   0.0000       3.989053       108.5477 
 566   0.0000       4.001059       108.8743 
 567   0.0000       4.010600       109.1340 
 568   0.0000       4.013656       109.2171 
 569   0.0000       4.017529       109.3225 
 570   0.0000       4.019181       109.3675 
 571   0.0000       4.039461       109.9193 
 572   0.0000       4.048651       110.1694 
 573   0.0000       4.055638       110.3595 
 574   0.0000       4.063328       110.5688 
 575   0.0000       4.066003       110.6416 
 576   0.0000       4.070224       110.7564 
 577   0.0000       4.085359       111.1683 
 578   0.0000       4.091465       111.3344 
 579   0.0000       4.103827       111.6708 
 580   0.0000       4.109381       111.8219 
 581   0.0000       4.125236       112.2534 
 582   0.0000       4.128776       112.3497 
 583   0.0000       4.135202       112.5246 
 584   0.0000       4.142232       112.7159 
 585   0.0000       4.143274       112.7442 
 586   0.0000       4.159687       113.1908 
 587   0.0000       4.160179       113.2042 
 588   0.0000       4.171641       113.5161 
 589   0.0000       4.173496       113.5666 
 590   0.0000       4.180815       113.7658 
 591   0.0000       4.184595       113.8686 
 592   0.0000       4.188774       113.9823 
 593   0.0000       4.199114       114.2637 
 594   0.0000       4.204636       114.4140 
 595   0.0000       4.219312       114.8133 
 596   0.0000       4.224741       114.9611 
 597   0.0000       4.228459       115.0622 
 598   0.0000       4.242620       115.4476 
 599   0.0000       4.244431       115.4968 
 600   0.0000       4.251110       115.6786 
 601   0.0000       4.260703       115.9396 
 602   0.0000       4.263219       116.0081 
 603   0.0000       4.270601       116.2090 
 604   0.0000       4.293669       116.8367 
 605   0.0000       4.297431       116.9391 
 606   0.0000       4.304845       117.1408 
 607   0.0000       4.310510       117.2949 
 608   0.0000       4.312762       117.3562 
 609   0.0000       4.319466       117.5386 
 610   0.0000       4.330897       117.8497 
 611   0.0000       4.349409       118.3534 
 612   0.0000       4.358120       118.5905 
 613   0.0000       4.360105       118.6445 
 614   0.0000       4.374542       119.0373 
 615   0.0000       4.378268       119.1387 
 616   0.0000       4.382186       119.2454 
 617   0.0000       4.384728       119.3145 
 618   0.0000       4.395603       119.6104 
 619   0.0000       4.408767       119.9686 
 620   0.0000       4.412841       120.0795 
 621   0.0000       4.418999       120.2471 
 622   0.0000       4.424080       120.3853 
 623   0.0000       4.437506       120.7507 
 624   0.0000       4.439211       120.7971 
 625   0.0000       4.460375       121.3730 
 626   0.0000       4.467266       121.5605 
 627   0.0000       4.478786       121.8740 
 628   0.0000       4.485764       122.0638 
 629   0.0000       4.491589       122.2223 
 630   0.0000       4.500567       122.4667 
 631   0.0000       4.514252       122.8391 
 632   0.0000       4.520323       123.0042 
 633   0.0000       4.522641       123.0673 
 634   0.0000       4.535516       123.4177 
 635   0.0000       4.549453       123.7969 
 636   0.0000       4.553852       123.9166 
 637   0.0000       4.568685       124.3203 
 638   0.0000       4.574961       124.4910 
 639   0.0000       4.579522       124.6151 
 640   0.0000       4.592294       124.9627 
 641   0.0000       4.603496       125.2675 
 642   0.0000       4.609467       125.4300 
 643   0.0000       4.614746       125.5736 
 644   0.0000       4.621195       125.7491 
 645   0.0000       4.631033       126.0168 
 646   0.0000       4.631900       126.0404 
 647   0.0000       4.639298       126.2417 
 648   0.0000       4.649983       126.5325 
 649   0.0000       4.654476       126.6547 
 650   0.0000       4.667807       127.0175 
 651   0.0000       4.674594       127.2022 
 652   0.0000       4.681962       127.4027 
 653   0.0000       4.693052       127.7044 
 654   0.0000       4.698988       127.8660 
 655   0.0000       4.707382       128.0944 
 656   0.0000       4.714029       128.2752 
 657   0.0000       4.730508       128.7237 
 658   0.0000       4.735234       128.8523 
 659   0.0000       4.749109       129.2298 
 660   0.0000       4.763440       129.6198 
 661   0.0000       4.768085       129.7462 
 662   0.0000       4.777825       130.0112 
 663   0.0000       4.817832       131.0999 
 664   0.0000       4.820498       131.1724 
 665   0.0000       4.843132       131.7883 
 666   0.0000       4.856199       132.1439 
 667   0.0000       4.875063       132.6572 
 668   0.0000       4.888485       133.0224 
 669   0.0000       4.893777       133.1664 
 670   0.0000       4.898000       133.2814 
 671   0.0000       4.912845       133.6853 
 672   0.0000       4.931303       134.1876 
 673   0.0000       4.954550       134.8202 
 674   0.0000       4.996775       135.9692 
 675   0.0000       5.006106       136.2231 
 676   0.0000       5.010912       136.3539 
 677   0.0000       5.023893       136.7071 
 678   0.0000       5.029554       136.8611 
 679   0.0000       5.043387       137.2375 
 680   0.0000       5.056297       137.5888 
 681   0.0000       5.072891       138.0404 
 682   0.0000       5.079974       138.2331 
 683   0.0000       5.085843       138.3928 
 684   0.0000       5.104613       138.9036 
 685   0.0000       5.114020       139.1596 
 686   0.0000       5.127323       139.5216 
 687   0.0000       5.140293       139.8745 
 688   0.0000       5.142434       139.9327 
 689   0.0000       5.154443       140.2595 
 690   0.0000       5.165495       140.5603 
 691   0.0000       5.170505       140.6966 
 692   0.0000       5.177568       140.8888 
 693   0.0000       5.189576       141.2156 
 694   0.0000       5.195787       141.3845 
 695   0.0000       5.204632       141.6252 
 696   0.0000       5.218430       142.0007 
 697   0.0000       5.224485       142.1655 
 698   0.0000       5.232498       142.3835 
 699   0.0000       5.245997       142.7508 
 700   0.0000       5.257284       143.0580 
 701   0.0000       5.273381       143.4960 
 702   0.0000       5.292556       144.0178 
 703   0.0000       5.308520       144.4522 
 704   0.0000       5.315217       144.6344 
 705   0.0000       5.336917       145.2249 
 706   0.0000       5.354761       145.7105 
 707   0.0000       5.362864       145.9310 
 708   0.0000       5.370223       146.1312 
 709   0.0000       5.378489       146.3561 
 710   0.0000       5.397713       146.8792 
 711   0.0000       5.403883       147.0471 
 712   0.0000       5.415518       147.3637 
 713   0.0000       5.453242       148.3903 
 714   0.0000       5.465613       148.7269 
 715   0.0000       5.479341       149.1005 
 716   0.0000       5.487622       149.3258 
 717   0.0000       5.501651       149.7075 
 718   0.0000       5.511701       149.9810 
 719   0.0000       5.517878       150.1491 
 720   0.0000       5.535981       150.6417 
 721   0.0000       5.555167       151.1638 
 722   0.0000       5.560996       151.3224 
 723   0.0000       5.571414       151.6059 
 724   0.0000       5.583376       151.9314 
 725   0.0000       5.617935       152.8718 
 726   0.0000       5.627710       153.1378 
 727   0.0000       5.640289       153.4801 
 728   0.0000       5.643802       153.5757 
 729   0.0000       5.648459       153.7024 
 730   0.0000       5.654582       153.8690 
 731   0.0000       5.663350       154.1076 
 732   0.0000       5.664172       154.1300 
 733   0.0000       5.678561       154.5215 
 734   0.0000       5.692812       154.9093 
 735   0.0000       5.706366       155.2781 
 736   0.0000       5.716149       155.5443 
 737   0.0000       5.721645       155.6939 
 738   0.0000       5.746547       156.3715 
 739   0.0000       5.753134       156.5507 
 740   0.0000       5.764976       156.8730 
 741   0.0000       5.786020       157.4456 
 742   0.0000       5.800305       157.8343 
 743   0.0000       5.813816       158.2020 
 744   0.0000       5.836370       158.8157 
 745   0.0000       5.847212       159.1107 
 746   0.0000       5.859103       159.4343 
 747   0.0000       5.890780       160.2963 
 748   0.0000       5.894888       160.4080 
 749   0.0000       5.915682       160.9739 
 750   0.0000       5.923254       161.1799 
 751   0.0000       5.958738       162.1455 
 752   0.0000       5.968780       162.4188 
 753   0.0000       5.995391       163.1429 
 754   0.0000       5.996555       163.1745 
 755   0.0000       6.034251       164.2003 
 756   0.0000       6.043708       164.4576 
 757   0.0000       6.051164       164.6605 
 758   0.0000       6.061668       164.9464 
 759   0.0000       6.083215       165.5327 
 760   0.0000       6.088191       165.6681 
 761   0.0000       6.144435       167.1986 
 762   0.0000       6.210595       168.9989 
 763   0.0000       6.232444       169.5934 
 764   0.0000       6.245148       169.9391 
 765   0.0000       6.277856       170.8291 
 766   0.0000       6.284818       171.0186 
 767   0.0000       6.308946       171.6751 
 768   0.0000       6.337102       172.4413 
 769   0.0000       6.344201       172.6345 
 770   0.0000       6.357605       172.9992 
 771   0.0000       6.369843       173.3322 
 772   0.0000       6.397183       174.0762 
 773   0.0000       6.446553       175.4196 
 774   0.0000       6.456067       175.6785 
 775   0.0000       6.486478       176.5060 
 776   0.0000       6.508599       177.1080 
 777   0.0000       6.545578       178.1142 
 778   0.0000       6.570970       178.8052 
 779   0.0000       6.599360       179.5777 
 780   0.0000       6.650675       180.9741 
 781   0.0000       6.676631       181.6804 
 782   0.0000       6.706671       182.4978 
 783   0.0000       6.735074       183.2707 
 784   0.0000       6.813340       185.4004 
 785   0.0000       6.868878       186.9117 
 786   0.0000       6.901629       187.8029 
 787   0.0000       6.916042       188.1951 
 788   0.0000       6.956858       189.3057 
 789   0.0000       6.962003       189.4457 
 790   0.0000       7.041041       191.5965 
 791   0.0000       7.066179       192.2805 
 792   0.0000       7.074556       192.5085 
 793   0.0000       7.111755       193.5207 
 794   0.0000       7.229399       196.7219 
 795   0.0000       7.249501       197.2689 
 796   0.0000       7.273075       197.9104 
 797   0.0000       7.275029       197.9636 
 798   0.0000       7.336120       199.6260 
 799   0.0000       7.375354       200.6936 
 800   0.0000       7.409644       201.6267 
 801   0.0000       7.533981       205.0101 
 802   0.0000       7.565384       205.8646 
 803   0.0000       7.572836       206.0673 
 804   0.0000       7.590290       206.5423 
 805   0.0000       7.782053       211.7604 
 806   0.0000       7.810952       212.5468 
 807   0.0000       7.925916       215.6751 
 808   0.0000       8.012240       218.0241 
 809   0.0000       9.438753       256.8415 
 810   0.0000       9.660313       262.8705 
 811   0.0000      10.610313       288.7213 
 812   0.0000      11.074363       301.3487 
 813   0.0000      12.055518       328.0473 
 814   0.0000      12.641700       343.9981 
 815   0.0000      12.940882       352.1393 
 816   0.0000      13.061323       355.4167 
 817   0.0000      13.190678       358.9366 
 818   0.0000      13.373268       363.9051 
 819   0.0000      13.480364       366.8194 
 820   0.0000      13.603473       370.1693 
 821   0.0000      13.784768       375.1026 
 822   0.0000      13.934668       379.1816 
 823   0.0000      14.044545       382.1715 
 824   0.0000      14.112758       384.0277 
 825   0.0000      14.408908       392.0863 
 826   0.0000      14.544925       395.7875 
 827   0.0000      15.984284       434.9545 

                    ********************************
                    * MULLIKEN POPULATION ANALYSIS *
                    ********************************

-----------------------
MULLIKEN ATOMIC CHARGES
-----------------------
   0 C :   -0.254169
   1 C :    0.017885
   2 O :   -0.303301
   3 C :    0.400929
   4 O :   -0.377209
   5 C :   -0.232534
   6 C :    0.159731
   7 C :   -0.282665
   8 N :   -0.132253
   9 C :    0.212354
  10 S :   -0.440660
  11 N :   -0.210800
  12 C :    0.021239
  13 C :   -0.020667
  14 C :   -0.169694
  15 C :   -0.136972
  16 C :   -0.269360
  17 C :    0.297449
  18 O :   -0.354607
  19 C :   -0.203243
  20 H :    0.088404
  21 H :    0.101097
  22 H :    0.096889
  23 H :    0.095807
  24 H :    0.109409
  25 H :    0.113089
  26 H :    0.145242
  27 H :    0.098500
  28 H :    0.197992
  29 H :    0.199430
  30 H :    0.161348
  31 H :    0.157856
  32 H :    0.164985
  33 H :    0.135750
  34 H :    0.242133
  35 H :    0.170615
Sum of atomic charges:   -0.0000000

--------------------------------
MULLIKEN REDUCED ORBITAL CHARGES
--------------------------------
  0 C s       :     3.260791  s :     3.260791
      pz      :     0.982550  p :     2.916778
      px      :     0.938136
      py      :     0.996091
      dz2     :     0.009411  d :     0.072128
      dxz     :     0.020502
      dyz     :     0.016463
      dx2y2   :     0.015245
      dxy     :     0.010507
      f0      :     0.000338  f :     0.004474
      f+1     :     0.000471
      f-1     :     0.000431
      f+2     :     0.001093
      f-2     :     0.001049
      f+3     :     0.000601
      f-3     :     0.000491
  1 C s       :     3.173570  s :     3.173570
      pz      :     0.895148  p :     2.639158
      px      :     0.743970
      py      :     1.000041
      dz2     :     0.031591  d :     0.157593
      dxz     :     0.037915
      dyz     :     0.026024
      dx2y2   :     0.035489
      dxy     :     0.026573
      f0      :     0.001164  f :     0.011794
      f+1     :     0.002839
      f-1     :     0.000742
      f+2     :     0.002121
      f-2     :     0.002400
      f+3     :     0.001256
      f-3     :     0.001271
  2 O s       :     3.712748  s :     3.712748
      pz      :     1.638292  p :     4.554054
      px      :     1.413844
      py      :     1.501917
      dz2     :     0.006321  d :     0.034225
      dxz     :     0.007557
      dyz     :     0.003708
      dx2y2   :     0.007982
      dxy     :     0.008657
      f0      :     0.000233  f :     0.002275
      f+1     :     0.000343
      f-1     :     0.000227
      f+2     :     0.000315
      f-2     :     0.000301
      f+3     :     0.000529
      f-3     :     0.000327
  3 C s       :     3.076104  s :     3.076104
      pz      :     0.818713  p :     2.204569
      px      :     0.673099
      py      :     0.712757
      dz2     :     0.064943  d :     0.292076
      dxz     :     0.046509
      dyz     :     0.072656
      dx2y2   :     0.054989
      dxy     :     0.052978
      f0      :     0.005783  f :     0.026323
      f+1     :     0.002742
      f-1     :     0.004117
      f+2     :     0.002858
      f-2     :     0.004959
      f+3     :     0.002147
      f-3     :     0.003716
  4 O s       :     3.762626  s :     3.762626
      pz      :     1.436883  p :     4.576095
      px      :     1.455537
      py      :     1.683675
      dz2     :     0.010456  d :     0.036004
      dxz     :     0.011704
      dyz     :     0.007634
      dx2y2   :     0.003980
      dxy     :     0.002230
      f0      :     0.000468  f :     0.002484
      f+1     :     0.000680
      f-1     :     0.000405
      f+2     :     0.000458
      f-2     :     0.000351
      f+3     :     0.000069
      f-3     :     0.000051
  5 C s       :     3.158593  s :     3.158593
      pz      :     0.923974  p :     2.978203
      px      :     1.160294
      py      :     0.893935
      dz2     :     0.012413  d :     0.085483
      dxz     :     0.011400
      dyz     :     0.031658
      dx2y2   :     0.009311
      dxy     :     0.020702
      f0      :     0.000971  f :     0.010255
      f+1     :     0.001292
      f-1     :     0.002020
      f+2     :     0.002187
      f-2     :     0.000774
      f+3     :     0.001661
      f-3     :     0.001349
  6 C s       :     3.187554  s :     3.187554
      pz      :     0.830323  p :     2.461117
      px      :     0.834886
      py      :     0.795909
      dz2     :     0.033425  d :     0.177003
      dxz     :     0.019962
      dyz     :     0.047143
      dx2y2   :     0.017967
      dxy     :     0.058507
      f0      :     0.001946  f :     0.014595
      f+1     :     0.001215
      f-1     :     0.002863
      f+2     :     0.002730
      f-2     :     0.002167
      f+3     :     0.002361
      f-3     :     0.001313
  7 C s       :     3.276956  s :     3.276956
      pz      :     0.919767  p :     2.929838
      px      :     1.016967
      py      :     0.993104
      dz2     :     0.015178  d :     0.071176
      dxz     :     0.020732
      dyz     :     0.010698
      dx2y2   :     0.009940
      dxy     :     0.014628
      f0      :     0.000451  f :     0.004696
      f+1     :     0.001092
      f-1     :     0.000662
      f+2     :     0.000619
      f-2     :     0.001006
      f+3     :     0.000579
      f-3     :     0.000286
  8 N s       :     3.345853  s :     3.345853
      pz      :     1.202286  p :     3.722647
      px      :     1.440254
      py      :     1.080106
      dz2     :     0.014237  d :     0.058809
      dxz     :     0.010065
      dyz     :     0.014559
      dx2y2   :     0.011479
      dxy     :     0.008469
      f0      :     0.000625  f :     0.004944
      f+1     :     0.001058
      f-1     :     0.000656
      f+2     :     0.000950
      f-2     :     0.000883
      f+3     :     0.000327
      f-3     :     0.000444
  9 C s       :     3.158803  s :     3.158803
      pz      :     0.784763  p :     2.349326
      px      :     0.712683
      py      :     0.851881
      dz2     :     0.063299  d :     0.261956
      dxz     :     0.034569
      dyz     :     0.053316
      dx2y2   :     0.055698
      dxy     :     0.055075
      f0      :     0.002873  f :     0.017561
      f+1     :     0.002203
      f-1     :     0.002507
      f+2     :     0.003241
      f-2     :     0.001747
      f+3     :     0.002482
      f-3     :     0.002508
 10 S s       :     5.854271  s :     5.854271
      pz      :     3.450809  p :    10.491437
      px      :     3.623173
      py      :     3.417455
      dz2     :     0.010666  d :     0.084830
      dxz     :     0.008829
      dyz     :     0.037351
      dx2y2   :     0.009717
      dxy     :     0.018268
      f0      :     0.001081  f :     0.010123
      f+1     :     0.000338
      f-1     :     0.002326
      f+2     :     0.002148
      f-2     :     0.002340
      f+3     :     0.001264
      f-3     :     0.000626
 11 N s       :     3.381737  s :     3.381737
      pz      :     1.317091  p :     3.767615
      px      :     1.435703
      py      :     1.014821
      dz2     :     0.008522  d :     0.057027
      dxz     :     0.007459
      dyz     :     0.014889
      dx2y2   :     0.011662
      dxy     :     0.014495
      f0      :     0.000352  f :     0.004422
      f+1     :     0.000581
      f-1     :     0.000584
      f+2     :     0.000679
      f-2     :     0.000653
      f+3     :     0.000826
      f-3     :     0.000747
 12 C s       :     3.151780  s :     3.151780
      pz      :     0.838719  p :     2.627516
      px      :     0.964051
      py      :     0.824746
      dz2     :     0.033798  d :     0.188066
      dxz     :     0.034599
      dyz     :     0.042482
      dx2y2   :     0.034806
      dxy     :     0.042382
      f0      :     0.001215  f :     0.011398
      f+1     :     0.001108
      f-1     :     0.001974
      f+2     :     0.002341
      f-2     :     0.002201
      f+3     :     0.001389
      f-3     :     0.001170
 13 C s       :     3.134035  s :     3.134035
      pz      :     0.909867  p :     2.765157
      px      :     0.925371
      py      :     0.929918
      dz2     :     0.019429  d :     0.110238
      dxz     :     0.009385
      dyz     :     0.032477
      dx2y2   :     0.023229
      dxy     :     0.025718
      f0      :     0.001168  f :     0.011238
      f+1     :     0.001589
      f-1     :     0.001050
[...]
      f-1     :     0.006128
      f+2     :     0.006134
      f-2     :     0.005772
      f+3     :     0.006181
      f-3     :     0.009508
 15 C s       :     2.705674  s :     2.705674
      pz      :     0.903657  p :     2.793731
      px      :     0.918285
      py      :     0.971789
      dz2     :     0.097918  d :     0.415768
      dxz     :     0.064933
      dyz     :     0.065411
      dx2y2   :     0.097500
      dxy     :     0.090006
      f0      :     0.003346  f :     0.041044
      f+1     :     0.005161
      f-1     :     0.006625
      f+2     :     0.006573
      f-2     :     0.007056
      f+3     :     0.006066
      f-3     :     0.006216
 16 C s       :     2.701899  s :     2.701899
      pz      :     0.940343  p :     2.865640
      px      :     0.955599
      py      :     0.969698
      dz2     :     0.050031  d :     0.390101
      dxz     :     0.053620
      dyz     :     0.094389
      dx2y2   :     0.089782
      dxy     :     0.102279
      f0      :     0.005105  f :     0.040251
      f+1     :     0.004732
      f-1     :     0.003410
      f+2     :     0.005537
      f-2     :     0.006463
      f+3     :     0.007346
      f-3     :     0.007659
 17 C s       :     2.701407  s :     2.701407
      pz      :     0.832028  p :     2.682015
      px      :     0.817487
      py      :     1.032499
      dz2     :     0.135336  d :     0.709148
      dxz     :     0.110883
      dyz     :     0.145214
      dx2y2   :     0.160597
      dxy     :     0.157118
      f0      :     0.011333  f :     0.099279
      f+1     :     0.015792
      f-1     :     0.009970
      f+2     :     0.014660
      f-2     :     0.017089
      f+3     :     0.013312
      f-3     :     0.017123
 18 O s       :     3.177271  s :     3.177271
      pz      :     1.418134  p :     4.344855
      px      :     1.450783
      py      :     1.475938
      dz2     :     0.009647  d :     0.075490
      dxz     :     0.018135
      dyz     :     0.018537
      dx2y2   :     0.017074
      dxy     :     0.012097
      f0      :     0.000637  f :     0.005059
      f+1     :     0.000794
      f-1     :     0.000353
      f+2     :     0.000926
      f-2     :     0.000939
      f+3     :     0.000594
      f-3     :     0.000816
 19 C s       :     2.695246  s :     2.695246
      pz      :     0.932894  p :     2.841058
      px      :     0.941253
      py      :     0.966911
      dz2     :     0.078126  d :     0.387750
      dxz     :     0.063069
      dyz     :     0.070290
      dx2y2   :     0.086095
      dxy     :     0.090170
      f0      :     0.003450  f :     0.040846
      f+1     :     0.005338
      f-1     :     0.006098
      f+2     :     0.006712
      f-2     :     0.007587
      f+3     :     0.005950
      f-3     :     0.005711
 20 H s       :     0.848011  s :     0.848011
      pz      :     0.049503  p :     0.150842
      px      :     0.060876
      py      :     0.040463
      dz2     :     0.005843  d :     0.027411
      dxz     :     0.006863
      dyz     :     0.003494
      dx2y2   :     0.005028
      dxy     :     0.006183
 21 H s       :     0.847104  s :     0.847104
      pz      :     0.041894  p :     0.150400
      px      :     0.041206
      py      :     0.067300
      dz2     :     0.002860  d :     0.027476
      dxz     :     0.002099
      dyz     :     0.007923
      dx2y2   :     0.007410
      dxy     :     0.007184
 22 H s       :     0.849376  s :     0.849376
      pz      :     0.063006  p :     0.150240
      px      :     0.040549
      py      :     0.046685
      dz2     :     0.008277  d :     0.027509
      dxz     :     0.007074
      dyz     :     0.006514
      dx2y2   :     0.002758
      dxy     :     0.002885
 23 H s       :     0.857392  s :     0.857392
      pz      :     0.038674  p :     0.151681
      px      :     0.038013
      py      :     0.074994
      dz2     :     0.002910  d :     0.027568
      dxz     :     0.001980
      dyz     :     0.008235
      dx2y2   :     0.006394
      dxy     :     0.008049
 24 H s       :     0.849163  s :     0.849163
      pz      :     0.067539  p :     0.153926
      px      :     0.034179
      py      :     0.052207
      dz2     :     0.008360  d :     0.027604
      dxz     :     0.005899
      dyz     :     0.007775
      dx2y2   :     0.003244
      dxy     :     0.002326
 25 H s       :     0.833488  s :     0.833488
      pz      :     0.042874  p :     0.148906
      px      :     0.056778
      py      :     0.049255
      dz2     :     0.003845  d :     0.027615
      dxz     :     0.005849
      dyz     :     0.003939
      dx2y2   :     0.007931
      dxy     :     0.006051
 26 H s       :     0.823786  s :     0.823786
      pz      :     0.057016  p :     0.151895
      px      :     0.055893
      py      :     0.038987
      dz2     :     0.007521  d :     0.027596
      dxz     :     0.006988
      dyz     :     0.004653
      dx2y2   :     0.003506
      dxy     :     0.004928
 27 H s       :     0.842602  s :     0.842602
      pz      :     0.037016  p :     0.150336
      px      :     0.046064
      py      :     0.067256
      dz2     :     0.002566  d :     0.027644
      dxz     :     0.001989
      dyz     :     0.007093
      dx2y2   :     0.007825
      dxy     :     0.008172
 28 H s       :     0.742509  s :     0.742509
      pz      :     0.056899  p :     0.253579
      px      :     0.079564
      py      :     0.117115
      dz2     :     0.006015  d :     0.061648
      dxz     :     0.001237
      dyz     :     0.017628
      dx2y2   :     0.015968
      dxy     :     0.020800
 29 H s       :     0.747929  s :     0.747929
      pz      :     0.113129  p :     0.254559
      px      :     0.098564
      py      :     0.042866
      dz2     :     0.021235  d :     0.061410
      dxz     :     0.015624
      dyz     :     0.010535
      dx2y2   :     0.008224
      dxy     :     0.005792
 30 H s       :     0.825267  s :     0.825267
      pz      :     0.044533  p :     0.154625
      px      :     0.068768
      py      :     0.041324
      dz2     :     0.003943  d :     0.029476
      dxz     :     0.008114
      dyz     :     0.003233
      dx2y2   :     0.007289
      dxy     :     0.006897
 31 H s       :     0.841377  s :     0.841377
      pz      :     0.058460  p :     0.157158
      px      :     0.064602
      py      :     0.034096
      dz2     :     0.005990  d :     0.027406
      dxz     :     0.007194
      dyz     :     0.003847
      dx2y2   :     0.005059
      dxy     :     0.005317
 32 H s       :     0.840776  s :     0.840776
      pz      :     0.036319  p :     0.150869
      px      :     0.041393
      py      :     0.073158
      dz2     :     0.002638  d :     0.026399
      dxz     :     0.001103
      dyz     :     0.006900
      dx2y2   :     0.007905
      dxy     :     0.007852
 33 H s       :     0.846867  s :     0.846867
      pz      :     0.054994  p :     0.158368
      px      :     0.045934
      py      :     0.057440
      dz2     :     0.005719  d :     0.027685
      dxz     :     0.003949
      dyz     :     0.006566
      dx2y2   :     0.005898
      dxy     :     0.005554
 34 H s       :     0.705458  s :     0.705458
      pz      :     0.105801  p :     0.347097
      px      :     0.084928
      py      :     0.156368
      dz2     :     0.021092  d :     0.099354
      dxz     :     0.009650
      dyz     :     0.025220
      dx2y2   :     0.021324
      dxy     :     0.022067
 35 H s       :     0.836623  s :     0.836623
      pz      :     0.039044  p :     0.156477
      px      :     0.043350
      py      :     0.074083
      dz2     :     0.002650  d :     0.027868
      dxz     :     0.001188
      dyz     :     0.007586
      dx2y2   :     0.008173
      dxy     :     0.008271


                      *****************************
                      * MAYER POPULATION ANALYSIS *
                      *****************************

  NA   - Mulliken gross atomic population
  ZA   - Total nuclear charge
  QA   - Mulliken gross atomic charge
  VA   - Mayer's total valence
  BVA  - Mayer's bonded valence
  FA   - Mayer's free valence

  ATOM       NA         ZA         QA         VA         BVA        FA
  0 C      6.2542     6.0000    -0.2542     3.9084     3.9084    -0.0000
  1 C      5.9821     6.0000     0.0179     3.8460     3.8460     0.0000
  2 O      8.3033     8.0000    -0.3033     2.0771     2.0771    -0.0000
  3 C      5.5991     6.0000     0.4009     4.3044     4.3044    -0.0000
  4 O      8.3772     8.0000    -0.3772     2.1346     2.1346    -0.0000
  5 C      6.2325     6.0000    -0.2325     3.5515     3.5515    -0.0000
  6 C      5.8403     6.0000     0.1597     3.8303     3.8303    -0.0000
  7 C      6.2827     6.0000    -0.2827     3.8965     3.8965    -0.0000
  8 N      7.1323     7.0000    -0.1323     3.2918     3.2918    -0.0000
  9 C      5.7876     6.0000     0.2124     4.1516     4.1516    -0.0000
 10 S     16.4407    16.0000    -0.4407     1.7571     1.7571     0.0000
 11 N      7.2108     7.0000    -0.2108     3.2394     3.2394    -0.0000
 12 C      5.9788     6.0000     0.0212     3.9580     3.9580    -0.0000
 13 C      6.0207     6.0000    -0.0207     3.7421     3.7421    -0.0000
 14 C      6.1697     6.0000    -0.1697     3.8478     3.8478    -0.0000
 15 C      6.1370     6.0000    -0.1370     3.8143     3.8143    -0.0000
 16 C      6.2694     6.0000    -0.2694     3.7880     3.7880    -0.0000
 17 C      5.7026     6.0000     0.2974     3.8777     3.8777    -0.0000
 18 O      8.3546     8.0000    -0.3546     2.1209     2.1209    -0.0000
 19 C      6.2032     6.0000    -0.2032     3.8224     3.8224     0.0000
 20 H      0.9116     1.0000     0.0884     0.9808     0.9808    -0.0000
 21 H      0.8989     1.0000     0.1011     0.9841     0.9841     0.0000
 22 H      0.9031     1.0000     0.0969     0.9876     0.9876     0.0000
 23 H      0.9042     1.0000     0.0958     0.9753     0.9753     0.0000
 24 H      0.8906     1.0000     0.1094     0.9613     0.9613    -0.0000
 25 H      0.8869     1.0000     0.1131     0.9801     0.9801    -0.0000
 26 H      0.8548     1.0000     0.1452     0.9770     0.9770    -0.0000
 27 H      0.9015     1.0000     0.0985     0.9845     0.9845    -0.0000
 28 H      0.8020     1.0000     0.1980     1.0208     1.0208     0.0000
 29 H      0.8006     1.0000     0.1994     1.0158     1.0158     0.0000
 30 H      0.8387     1.0000     0.1613     0.9816     0.9816     0.0000
 31 H      0.8421     1.0000     0.1579     0.9850     0.9850    -0.0000
 32 H      0.8350     1.0000     0.1650     0.9767     0.9767     0.0000
 33 H      0.8642     1.0000     0.1358     0.9903     0.9903    -0.0000
 34 H      0.7579     1.0000     0.2421     1.0095     1.0095    -0.0000
 35 H      0.8294     1.0000     0.1706     0.9885     0.9885    -0.0000

  Mayer bond orders larger than 0.100000
B(  0-C ,  1-C ) :   0.9818 B(  0-C , 20-H ) :   0.9778 B(  0-C , 21-H ) :   0.9796 
B(  0-C , 22-H ) :   0.9794 B(  1-C ,  2-O ) :   0.8979 B(  1-C , 23-H ) :   0.9634 
B(  1-C , 24-H ) :   0.9693 B(  2-O ,  3-C ) :   1.2046 B(  3-C ,  4-O ) :   2.1189 
B(  3-C ,  5-C ) :   0.9305 B(  5-C ,  6-C ) :   1.6944 B(  5-C , 12-C ) :   0.9598 
B(  6-C ,  7-C ) :   0.9440 B(  6-C ,  8-N ) :   1.1283 B(  7-C , 25-H ) :   0.9776 
B(  7-C , 26-H ) :   0.9570 B(  7-C , 27-H ) :   0.9851 B(  8-N ,  9-C ) :   1.1974 
B(  8-N , 28-H ) :   0.9491 B(  9-C , 10-S ) :   1.6125 B(  9-C , 11-N ) :   1.2891 
B( 11-N , 12-C ) :   0.9790 B( 11-N , 29-H ) :   0.9476 B( 12-C , 13-C ) :   0.9597 
B( 12-C , 30-H ) :   1.0062 B( 13-C , 14-C ) :   1.3664 B( 13-C , 19-C ) :   1.3602 
B( 14-C , 15-C ) :   1.3964 B( 14-C , 31-H ) :   0.9693 B( 15-C , 16-C ) :   1.3640 
B( 15-C , 32-H ) :   0.9700 B( 16-C , 17-C ) :   1.3261 B( 16-C , 33-H ) :   0.9832 
B( 17-C , 18-O ) :   1.1114 B( 17-C , 19-C ) :   1.3706 B( 18-O , 34-H ) :   0.9783 
B( 19-C , 35-H ) :   0.9591 

-------
TIMINGS
-------

Total SCF time: 0 days 1 hours 34 min 12 sec 

Total time                  ....    5652.575 sec
Sum of individual times     ....    5644.380 sec  ( 99.9%)

Fock matrix formation       ....    5620.802 sec  ( 99.4%)
Diagonalization             ....       4.460 sec  (  0.1%)
Density matrix formation    ....       0.190 sec  (  0.0%)
Population analysis         ....       0.927 sec  (  0.0%)
Initial guess               ....       5.221 sec  (  0.1%)
Orbital Transformation      ....       0.000 sec  (  0.0%)
Orbital Orthonormalization  ....       0.000 sec  (  0.0%)
DIIS solution               ....       5.140 sec  (  0.1%)
SOSCF solution              ....       6.481 sec  (  0.1%)

------------------------------------------------------------------------------
                                ORCA  MP2 
------------------------------------------------------------------------------

Freezing NCore=48 chemical core electrons

-------------
RI-MP2 ENERGY
-------------
Dimension of the basis                    ...  828
Memory devoted to MP2                     ...  256 MB   
Data format for buffers                   ... DOUBLE
Compression type for matrix containers    ... UNCOMPRESSED
Overall scaling of the MP2 energy         ...   1.000e+00
Calculating two index integrals           ... done (    0.034 sec)
Cholesky decomposition of V**-1           ... done (    2.472 sec)

-----------------
RI-TRANSFORMATION (AUX index driven)
-----------------

Dimension of the orbital-basis         ... 828
Dimension of the aux-basis             ... 2141
Transformation of internal/external MOs...   24-  76 to   77- 827
Number Format for Storage              ... Double (8 Byte)
Integral mode                          ... Direct

First Phase: integral generation and transformation of MO indices
  Aux angular momentum 0               ... done (   10.776 sec)
  Aux angular momentum 1               ... done (   21.613 sec)
  Aux angular momentum 2               ... done (   27.275 sec)
  Aux angular momentum 3               ... done (   21.655 sec)
  Aux angular momentum 4               ... done (    6.986 sec)
Closing buffer VIA ( 0.63 GB; CompressionRatio= 1.00)
  Phase 1 completed in    88.598 sec
Second Phase: sorting and transformation of aux index

IA-Transformation
Memory available                       ... 167 MB 
Max. # MO pairs treated in a batch     ... 12    
# of internal orbitals                 ... 53
# batches for internal orbitals        ... 5
Closing buffer IAV ( 0.63 GB; CompressionRatio= 1.00)
(ia|v) transformation done in    95.543 sec

  Phase 2 completed in    95.567 sec
RI-Integral transformation completed in   184.209 sec
Opening buffers                              ... done

Starting loop over batches of integrals:

Operator 0  - window                       ... ( 24- 76)x( 77-827)
Operator 0  - Memory available             ...   256 MB
Operator 0  - Memory needed per MO         ...  12.3 MB
Operator 0  - Number of orbitals per batch ... 13
Operator 0  - Number of batches            ... 5

OPERATOR  0   PASS   0:  MOs    24 ...   36
  Reading integrals       ... ok
  Internal MO  26
  Internal MO  29
  Internal MO  32
  Internal MO  35
OPERATOR  0   PASS   1:  MOs    37 ...   49
  Reading integrals       ... ok
  Internal MO  38
  Internal MO  41
  Internal MO  44
  Internal MO  47
OPERATOR  0   PASS   2:  MOs    50 ...   62
  Reading integrals       ... ok
  Internal MO  50
  Internal MO  53
  Internal MO  56
  Internal MO  59
  Internal MO  62
OPERATOR  0   PASS   3:  MOs    63 ...   75
  Reading integrals       ... ok
  Internal MO  65
  Internal MO  68
  Internal MO  71
  Internal MO  74
OPERATOR  0   PASS   4:  MOs    76 ...   76
  Reading integrals       ... ok
Time spent in pair loops =   585.825 sec
Deleting buffer (Ka|jb)[aa] ...done

-----------------------------------------------
 RI-MP2 CORRELATION ENERGY:     -3.537094923 Eh
-----------------------------------------------


-------
TIMINGS
-------

Total time                :  772.883 sec
Integral trafo            :  184.230 sec ( 23.8%)
I/O of integrals          :    5.089 sec (  0.7%)
K(i,j) Operators          :  489.409 sec ( 63.3%)
T(i,j) pair energies      :    3.719 sec (  0.5%)
V-calculation             :    0.034 sec (  0.0%)
V**(-1/2)                 :    2.472 sec (  0.3%)
Gamma(ia|P)               :    0.000 sec (  0.0%)
Gamma-Trafo               :    0.000 sec (  0.0%)
D(virtual)                :    0.000 sec (  0.0%)
D(internal)               :    0.000 sec (  0.0%)
W(virtual)                :    0.000 sec (  0.0%)
W(internal)               :    0.000 sec (  0.0%)
L(virtual)                :    0.000 sec (  0.0%)
L(internal)               :    0.000 sec (  0.0%)
G(D)                      :    0.000 sec (  0.0%)
G(Z)                      :    0.000 sec (  0.0%)
Z-Vector Solution         :    0.000 sec (  0.0%)
3-Index Derivative        :    0.000 sec (  0.0%)
2-Index Derivative        :    0.000 sec (  0.0%)
Separable Gradient        :    0.000 sec (  0.0%)


---------------------------------------
MP2 TOTAL ENERGY:    -1274.325815557 Eh
---------------------------------------

-------------------------   --------------------
FINAL SINGLE POINT ENERGY     -1274.325815557153
-------------------------   --------------------


                            ***************************************
                            *     ORCA property calculations      *
                            ***************************************


  WARNING: The energy has been calculated at the MP2 level but the densities
           used in the property calculations are still SCF densities
           MP2 response densities have not been calculated 
           use %mp2 Density relaxed end
           or  %mp2 Density unrelaxed end

                                    ---------------------
                                    Active property flags
                                    ---------------------
   (+) Dipole Moment


------------------------------------------------------------------------------
                       ORCA ELECTRIC PROPERTIES CALCULATION
------------------------------------------------------------------------------

Dipole Moment Calculation                       ... on
Quadrupole Moment Calculation                   ... off
Polarizability Calculation                      ... off
GBWName                                         ... CONFS/Conf855.orca.gbw
Electron density file                           ... CONFS/Conf855.orca.scfp
The origin for moment calculation is the CENTER OF MASS  = (31.915345, 33.032321 33.317976)

-------------
DIPOLE MOMENT
-------------
                                X             Y             Z
Electronic contribution:     10.49433       9.04654       6.95405
Nuclear contribution   :    -12.01193     -10.65814      -6.58611
                        -----------------------------------------
Total Dipole Moment    :     -1.51760      -1.61160       0.36794
                        -----------------------------------------
Magnitude (a.u.)       :      2.24405
Magnitude (Debye)      :      5.70391



--------------------
Rotational spectrum 
--------------------
 
Rotational constants in cm-1:     0.011905     0.008824     0.006085 
Rotational constants in MHz :   356.891208   264.539067   182.423162 

 Dipole components along the rotational axes: 
x,y,z [a.u.] :    -2.099581    -0.071964     0.788873 
x,y,z [Debye]:    -5.336710    -0.182917     2.005156 

 

Timings for individual modules:

Sum of individual times         ...     6427.200 sec (= 107.120 min)
GTO integral calculation        ...        1.227 sec (=   0.020 min)   0.0 %
SCF iterations                  ...     5652.692 sec (=  94.212 min)  87.9 %
MP2 module                      ...      773.281 sec (=  12.888 min)  12.0 %
                             ****ORCA TERMINATED NORMALLY****
TOTAL RUN TIME: 0 days 1 hours 47 minutes 7 seconds 999 msec
