
                                 *****************
                                 * O   R   C   A *
                                 *****************

           --- An Ab Initio, DFT and Semiempirical electronic structure package ---

                  #######################################################
                  #                        -***-                        #
                  #          Department of theory and spectroscopy      #
                  #               Directorship: Frank Neese             #
                  #        Max Planck Institute fuer Kohlenforschung    #
                  #                Kaiser Wilhelm Platz 1               #
                  #                 D-45470 Muelheim/Ruhr               #
                  #                      Germany                        #
                  #                                                     #
                  #                  All rights reserved                #
                  #                        -***-                        #
                  #######################################################


                         Program Version 4.2.0 -  RELEASE  -


 With contributions from (in alphabetic order):
   Daniel Aravena         : Magnetic Suceptibility
   Michael Atanasov       : Ab Initio Ligand Field Theory (pilot matlab implementation)
   Alexander A. Auer      : GIAO ZORA, VPT2
   Ute Becker             : Parallelization
   Giovanni Bistoni       : ED, misc. LED, open-shell LED, HFLED
   Martin Brehm           : Molecular dynamics
   Dmytro Bykov           : SCF Hessian
   Vijay G. Chilkuri      : MRCI spin determinant printing, contributions to CSF-ICE
   Dipayan Datta          : RHF DLPNO-CCSD density
   Achintya Kumar Dutta   : EOM-CC, STEOM-CC
   Dmitry Ganyushin       : Spin-Orbit,Spin-Spin,Magnetic field MRCI
   Miquel Garcia          : C-PCM Hessian, Gaussian charge scheme
   Yang Guo               : DLPNO-NEVPT2, CIM, IAO-localization
   Andreas Hansen         : Spin unrestricted coupled pair/coupled cluster methods
   Benjamin Helmich-Paris : CASSCF linear response (MC-RPA)
   Lee Huntington         : MR-EOM, pCC
   Robert Izsak           : Overlap fitted RIJCOSX, COSX-SCS-MP3, EOM
   Christian Kollmar      : KDIIS, OOCD, Brueckner-CCSD(T), CCSD density
   Simone Kossmann        : Meta GGA functionals, TD-DFT gradient, OOMP2, MP2 Hessian
   Martin Krupicka        : AUTO-CI
   Lucas Lang             : DCDCAS
   Dagmar Lenk            : GEPOL surface, SMD
   Dimitrios Liakos       : Extrapolation schemes; Compound Job, initial MDCI parallelization
   Dimitrios Manganas     : Further ROCIS development; embedding schemes
   Dimitrios Pantazis     : SARC Basis sets
   Taras Petrenko         : DFT Hessian,TD-DFT gradient, ASA, ECA, R-Raman, ABS, FL, XAS/XES, NRVS
   Peter Pinski           : DLPNO-MP2, DLPNO-MP2 Gradient
   Christoph Reimann      : Effective Core Potentials
   Marius Retegan         : Local ZFS, SOC
   Christoph Riplinger    : Optimizer, TS searches, QM/MM, DLPNO-CCSD(T), (RO)-DLPNO pert. Triples
   Tobias Risthaus        : Range-separated hybrids, TD-DFT gradient, RPA, STAB
   Michael Roemelt        : Original ROCIS implementation
   Masaaki Saitow         : Open-shell DLPNO-CCSD energy and density
   Barbara Sandhoefer     : DKH picture change effects
   Avijit Sen             : IP-ROCIS
   Kantharuban Sivalingam : CASSCF convergence, NEVPT2, FIC-MRCI
   Bernardo de Souza      : ESD, SOC TD-DFT
   Georgi Stoychev        : AutoAux, RI-MP2 NMR
   Willem Van den Heuvel  : Paramagnetic NMR
   Boris Wezisla          : Elementary symmetry handling
   Frank Wennmohs         : Technical directorship


 We gratefully acknowledge several colleagues who have allowed us to
 interface, adapt or use parts of their codes:
   Stefan Grimme, W. Hujo, H. Kruse,             : VdW corrections, initial TS optimization,
                  C. Bannwarth                     DFT functionals, gCP, sTDA/sTD-DF
   Ed Valeev, F. Pavosevic, A. Kumar             : LibInt (2-el integral package), F12 methods
   Garnet Chan, S. Sharma, J. Yang, R. Olivares  : DMRG
   Ulf Ekstrom                                   : XCFun DFT Library
   Mihaly Kallay                                 : mrcc  (arbitrary order and MRCC methods)
   Andreas Klamt, Michael Diedenhofen            : otool_cosmo (COSMO solvation model)
   Jiri Pittner, Ondrej Demel                    : Mk-CCSD
   Frank Weinhold                                : gennbo (NPA and NBO analysis)
   Christopher J. Cramer and Donald G. Truhlar   : smd solvation model
   Lars Goerigk                                  : TD-DFT with DH, B97 family of functionals
   V. Asgeirsson, H. Jonsson                     : NEB implementation
   FAccTs GmbH                                   : IRC, NEB, NEB-TS, Multilevel, MM, QM/MM, CI optimization
   S Lehtola, MJT Oliveira, MAL Marques          : LibXC Library


 Your calculation uses the libint2 library for the computation of 2-el integrals
 For citations please refer to: http://libint.valeyev.net

 Your ORCA version has been built with support for libXC version: 4.2.3
 For citations please refer to: https://tddft.org/programs/libxc/

 This ORCA versions uses:
   CBLAS   interface :  Fast vector & matrix operations
   LAPACKE interface :  Fast linear algebra routines
   SCALAPACK package :  Parallel linear algebra routines


----- Orbital basis set information -----
Your calculation utilizes the basis: cc-pVTZ 
       H, B-Ne : Obtained from the ccRepo (grant-hill.group.shef.ac.uk/ccrepo) Feb. 2017
                 T. H. Dunning, Jr., J. Chem. Phys. 90, 1007 (1989)
            He : Obtained from the ccRepo (grant-hill.group.shef.ac.uk/ccrepo) Feb. 2017
                 D. E. Woon, T. H. Dunning, Jr., J. Chem. Phys. 100, 2975 (1994)
  Li-Be, Na-Mg : Obtained from the ccRepo (grant-hill.group.shef.ac.uk/ccrepo) Feb. 2017
                 B. P. Prascher, D. E. Woon, K. A. Peterson, T. H. Dunning, Jr., A. K. Wilson, Theor. Chem. Acc. 128, 69 (2011)
         Al-Ar : Obtained from the ccRepo (grant-hill.group.shef.ac.uk/ccrepo) Feb. 2017
                 D. E. Woon, T. H. Dunning, Jr., J. Chem. Phys. 98, 1358 (1993)
            Ca : Obtained from the Peterson Research Group Website (tyr0.chem.wsu.edu/~kipeters) Feb. 2017
                 J. Koput, K. A. Peterson, J. Phys. Chem. 106, 9595 (2002)
         Sc-Zn : Obtained from the ccRepo (grant-hill.group.shef.ac.uk/ccrepo) Feb. 2017
                 N. B. Balabanov, K. A. Peterson, J. Chem. Phys. 123, 064107 (2005)
                 N. B. Balabanov, K. A. Peterson, J. Chem. Phys. 125, 074110 (2006)
         Ga-Kr : Obtained from the ccRepo (grant-hill.group.shef.ac.uk/ccrepo) Feb. 2017
                 A. K. Wilson, D. E. Woon, K. A. Peterson, T. H. Dunning, Jr., J. Chem. Phys. 110, 7667 (1999)
             Y : Obtained from the ccRepo (grant-hill.group.shef.ac.uk/ccrepo) Feb. 2017
                 K. A. Peterson, D. Figgen, M. Dolg, H. Stoll, J. Chem. Phys. 126, 124101 (2007)
        Ag, Au : Obtained from the Peterson Research Group Website (tyr0.chem.wsu.edu/~kipeters) Feb. 2017
                 K. A. Peterson, C. Puzzarini, Theor. Chem. Acc. 114, 283 (2005)

----- AuxC basis set information -----
Your calculation utilizes the auxiliary basis: cc-pVTZ/C 
  Obtained from the EMSL Basis Set Exchange (bse.pnl.gov) Feb. 2017
  H-He, B-F, Al-Ar, Ga-Kr : F. Weigend, A. Kohn, C. Hattig, J. Chem. Phys. 116, 3175 (2002)
             Li-Be, Na-Mg : C. Haettig, Phys. Chem. Chem. Phys. 7, 59 (2005)
                       Ne : C. Haettig, Phys. Chem. Chem. Phys. 7, 59 (2005)
                            F. Weigend, A. Kohn, C. Hattig, J. Chem. Phys. 116, 3175 (2002)
                    Sc-Zn : J. G. Hill, J. A. Platts, J. Chem. Phys. 128, 044104 (2008)

================================================================================
                                        WARNINGS
                       Please study these warnings very carefully!
================================================================================


WARNING: No MP2 level density has been requested!
         To caclulate MP2 level properties use
         %mp2 Density relaxed end
         or
         %mp2 Density unrelaxed end

WARNING: Post HF methods need fully converged wavefunctions
  ===> : Setting SCFConvForced true
         You can overwrite this default with %scf ConvForced false 


INFO   : the flag for use of LIBINT has been found!

================================================================================
                                       INPUT FILE
================================================================================
NAME = CONFS/Conf848.orca
|  1> ! ri-mp2 cc-pvtz cc-pvtz/c TightSCF NoKeepInts
|  2> 
|  3> %scf
|  4>   MaxCore 4096
|  5> end
|  6> *xyz  0  1
|  7>     C       13.7337744   16.4234115   14.9189435
|  8>     C       14.9790620   15.8612761   15.6256341
|  9>     O       16.1443394   16.2421043   14.8691384
| 10>     C       17.2892836   16.5453335   15.5482896
| 11>     O       18.2988593   15.8768410   15.4236164
| 12>     C       17.1738947   17.6630594   16.5348752
| 13>     C       16.7168506   18.8854366   16.1658688
| 14>     C       16.1008343   19.2896498   14.8417146
| 15>     N       16.8751354   19.9879368   17.0079496
| 16>     C       17.6813373   20.0028614   18.1152695
| 17>     S       17.9116261   21.3758656   19.0075778
| 18>     N       18.3075949   18.8227016   18.4316279
| 19>     C       18.0571689   17.5241011   17.7754973
| 20>     C       17.5757837   16.4275035   18.7141162
| 21>     C       18.1611069   15.1495536   18.6720614
| 22>     C       17.7053604   14.1271355   19.5208997
| 23>     C       16.6534034   14.3845364   20.4167609
| 24>     C       16.0639934   15.6556411   20.4557684
| 25>     O       15.0412422   15.9041628   21.3118135
| 26>     C       16.5186167   16.6711525   19.6082692
| 27>     H       12.8216820   16.0677399   15.4137088
| 28>     H       13.7035524   16.0955377   13.8721529
| 29>     H       13.7243739   17.5174605   14.9408547
| 30>     H       15.0123493   16.2517063   16.6518107
| 31>     H       14.9204895   14.7662348   15.6834801
| 32>     H       16.3020466   18.5700917   14.0400841
| 33>     H       16.5076265   20.2481153   14.4947398
| 34>     H       15.0151945   19.4048895   14.9318254
| 35>     H       16.4495758   20.8693949   16.7675492
| 36>     H       18.8911337   18.8581360   19.2582005
| 37>     H       19.0661305   17.2928507   17.4023249
| 38>     H       18.9657617   14.9460014   17.9682287
| 39>     H       18.1650393   13.1410413   19.4785115
| 40>     H       16.2978195   13.5970712   21.0731337
| 41>     H       14.9063941   15.1052405   21.8437311
| 42>     H       16.0485634   17.6482243   19.6519721
| 43> *
| 44> 
| 45>                          ****END OF INPUT****
================================================================================

                       ****************************
                       * Single Point Calculation *
                       ****************************

---------------------------------
CARTESIAN COORDINATES (ANGSTROEM)
---------------------------------
  C     13.733774   16.423412   14.918943
  C     14.979062   15.861276   15.625634
  O     16.144339   16.242104   14.869138
  C     17.289284   16.545334   15.548290
  O     18.298859   15.876841   15.423616
  C     17.173895   17.663059   16.534875
  C     16.716851   18.885437   16.165869
  C     16.100834   19.289650   14.841715
  N     16.875135   19.987937   17.007950
  C     17.681337   20.002861   18.115270
  S     17.911626   21.375866   19.007578
  N     18.307595   18.822702   18.431628
  C     18.057169   17.524101   17.775497
  C     17.575784   16.427504   18.714116
  C     18.161107   15.149554   18.672061
  C     17.705360   14.127135   19.520900
  C     16.653403   14.384536   20.416761
  C     16.063993   15.655641   20.455768
  O     15.041242   15.904163   21.311813
  C     16.518617   16.671153   19.608269
  H     12.821682   16.067740   15.413709
  H     13.703552   16.095538   13.872153
  H     13.724374   17.517460   14.940855
  H     15.012349   16.251706   16.651811
  H     14.920489   14.766235   15.683480
  H     16.302047   18.570092   14.040084
  H     16.507627   20.248115   14.494740
  H     15.015194   19.404889   14.931825
  H     16.449576   20.869395   16.767549
  H     18.891134   18.858136   19.258201
  H     19.066130   17.292851   17.402325
  H     18.965762   14.946001   17.968229
  H     18.165039   13.141041   19.478511
  H     16.297819   13.597071   21.073134
  H     14.906394   15.105240   21.843731
  H     16.048563   17.648224   19.651972

----------------------------
CARTESIAN COORDINATES (A.U.)
----------------------------
  NO LB      ZA    FRAG     MASS         X           Y           Z
   0 C     6.0000    0    12.011   25.953072   31.035750   28.192717
   1 C     6.0000    0    12.011   28.306325   29.973468   29.528169
   2 O     8.0000    0    15.999   30.508380   30.693129   28.098599
   3 C     6.0000    0    12.011   32.672011   31.266149   29.382009
   4 O     8.0000    0    15.999   34.579833   30.002881   29.146411
   5 C     6.0000    0    12.011   32.453958   33.378345   31.246386
   6 C     6.0000    0    12.011   31.590269   35.688303   30.549065
   7 C     6.0000    0    12.011   30.426167   36.452155   28.046776
   8 N     7.0000    0    14.007   31.889384   37.771727   32.140367
   9 C     6.0000    0    12.011   33.412885   37.799930   34.232898
  10 S    16.0000    0    32.060   33.848068   40.394532   35.919117
  11 N     7.0000    0    14.007   34.596341   35.569751   34.830729
  12 C     6.0000    0    12.011   34.123104   33.115752   33.590822
  13 C     6.0000    0    12.011   33.213418   31.043483   35.364554
  14 C     6.0000    0    12.011   34.319518   28.628507   35.285082
  15 C     6.0000    0    12.011   33.458282   26.696417   36.889154
  16 C     6.0000    0    12.011   31.470372   27.182834   38.582087
  17 C     6.0000    0    12.011   30.356548   29.584874   38.655800
  18 O     8.0000    0    15.999   28.423828   30.054512   40.273491
  19 C     6.0000    0    12.011   31.215662   31.503913   37.054259
  20 H     1.0000    0     1.008   24.229468   30.363628   29.127688
  21 H     1.0000    0     1.008   25.895961   30.416158   26.214570
  22 H     1.0000    0     1.008   25.935308   33.103203   28.234124
  23 H     1.0000    0     1.008   28.369229   30.711274   31.467362
  24 H     1.0000    0     1.008   28.195639   27.904140   29.637482
  25 H     1.0000    0     1.008   30.806403   35.092388   26.531914
  26 H     1.0000    0     1.008   31.194893   38.263393   27.391089
  27 H     1.0000    0     1.008   28.374605   36.669927   28.217061
  28 H     1.0000    0     1.008   31.085193   39.437441   31.686076
  29 H     1.0000    0     1.008   35.699069   35.636712   36.392725
  30 H     1.0000    0     1.008   36.029765   32.678752   32.885628
  31 H     1.0000    0     1.008   35.840096   28.243849   33.955031
  32 H     1.0000    0     1.008   34.326949   24.832969   36.809052
  33 H     1.0000    0     1.008   30.798415   25.694741   39.822451
  34 H     1.0000    0     1.008   28.169002   28.544768   41.278670
  35 H     1.0000    0     1.008   30.327390   33.350311   37.136845

--------------------------------
INTERNAL COORDINATES (ANGSTROEM)
--------------------------------
 C      0   0   0     0.000000000000     0.00000000     0.00000000
 C      1   0   0     1.538229182786     0.00000000     0.00000000
 O      2   1   0     1.440551033801   108.48106353     0.00000000
 C      3   2   1     1.365317370177   118.41386791   144.06529633
 O      4   3   2     1.217238153931   121.50729911   116.17998277
 C      4   3   2     1.495318337981   115.43563734   301.55549870
 C      6   4   3     1.356193589303   121.34663035   304.89428952
 C      7   6   4     1.515337829759   127.96563114     8.55597318
 N      7   6   4     1.396302561281   120.62268058   193.58592914
 C      9   7   6     1.369796192207   124.25246085    12.21891794
 S     10   9   7     1.653598369276   121.81838901   175.38571077
 N     10   9   7     1.372974279564   116.44638422   356.51567104
 C     12  10   9     1.476341357658   125.19088417   352.43783515
 C     13  12  10     1.521598976913   114.42071002   239.37701627
 C     14  13  12     1.406245996109   120.31855573   227.26964717
 C     15  14  13     1.404838105625   120.54969512   181.06846783
 C     16  15  14     1.405502060772   119.64693549     0.15215714
 C     17  16  15     1.401653627512   119.90430908     0.16679789
 O     18  17  16     1.356685765277   120.04549334   179.46978319
 C     18  17  16     1.398642428369   120.32440397   359.91590645
 H      1   2   3     1.096908170846   110.33087153   174.38182741
 H      1   2   3     1.097353706996   110.57028611    54.86243577
 H      1   2   3     1.094308770177   111.29143697   294.17819352
 H      2   1   3     1.098445355856   108.89485496   121.94422056
 H      2   1   3     1.098131297331   110.20835307   240.08137699
 H      8   7   6     1.095838358280   112.91916819   342.95665961
 H      8   7   6     1.097509690393   111.01036682   224.19329606
 H      8   7   6     1.095451468609   111.04249891   104.60475224
 H      9   7   6     1.007899651517   119.92223374   186.28210825
 H     12  10   9     1.012420560281   114.89405736   180.49273084
 H     13  12  10     1.100335357015   100.37251324   121.24703019
 H     15  14  13     1.088247818687   119.80737772     0.32309418
 H     16  15  14     1.088798981391   119.91049033   179.90442334
 H     17  16  15     1.085065253213   119.86356862   179.92609008
 H     19  18  17     0.969225043373   107.46819307     3.65188774
 H     20  18  17     1.085140244699   119.24569097   179.89871492

---------------------------
INTERNAL COORDINATES (A.U.)
---------------------------
 C      0   0   0     0.000000000000     0.00000000     0.00000000
 C      1   0   0     2.906831886672     0.00000000     0.00000000
 O      2   1   0     2.722246935821   108.48106353     0.00000000
 C      3   2   1     2.580075915521   118.41386791   144.06529633
 O      4   3   2     2.300246750689   121.50729911   116.17998277
 C      4   3   2     2.825742141814   115.43563734   301.55549870
 C      6   4   3     2.562834468362   121.34663035   304.89428952
 C      7   6   4     2.863573498614   127.96563114     8.55597318
 N      7   6   4     2.638629440914   120.62268058   193.58592914
 C      9   7   6     2.588539662559   124.25246085    12.21891794
 S     10   9   7     3.124848053430   121.81838901   175.38571077
 N     10   9   7     2.594545377294   116.44638422   356.51567104
 C     12  10   9     2.789880846156   125.19088417   352.43783515
 C     13  12  10     2.875405352020   114.42071002   239.37701627
 C     14  13  12     2.657419809568   120.31855573   227.26964717
 C     15  14  13     2.654759282128   120.54969512   181.06846783
 C     16  15  14     2.656013975522   119.64693549     0.15215714
 C     17  16  15     2.648741490615   119.90430908     0.16679789
 O     18  17  16     2.563764546164   120.04549334   179.46978319
 C     18  17  16     2.643051148900   120.32440397   359.91590645
 H      1   2   3     2.072856036959   110.33087153   174.38182741
 H      1   2   3     2.073697978267   110.57028611    54.86243577
 H      1   2   3     2.067943881583   111.29143697   294.17819352
 H      2   1   3     2.075760895645   108.89485496   121.94422056
 H      2   1   3     2.075167411043   110.20835307   240.08137699
 H      8   7   6     2.070834384195   112.91916819   342.95665961
 H      8   7   6     2.073992744167   111.01036682   224.19329606
 H      8   7   6     2.070103268672   111.04249891   104.60475224
 H      9   7   6     1.904654311842   119.92223374   186.28210825
 H     12  10   9     1.913197591282   114.89405736   180.49273084
 H     13  12  10     2.079332480228   100.37251324   121.24703019
 H     15  14  13     2.056490343156   119.80737772     0.32309418
 H     16  15  14     2.057531889721   119.91049033   179.90442334
 H     17  16  15     2.050476166006   119.86356862   179.92609008
 H     19  18  17     1.831569894112   107.46819307     3.65188774
 H     20  18  17     2.050617879377   119.24569097   179.89871492

---------------------
BASIS SET INFORMATION
---------------------
There are 5 groups of distinct atoms

 Group   1 Type C   : 18s5p2d1f contracted to 4s3p2d1f pattern {8811/311/11/1}
 Group   2 Type O   : 18s5p2d1f contracted to 4s3p2d1f pattern {8811/311/11/1}
 Group   3 Type N   : 18s5p2d1f contracted to 4s3p2d1f pattern {8811/311/11/1}
 Group   4 Type S   : 41s16p2d1f contracted to 5s4p2d1f pattern {13131311/7711/11/1}
 Group   5 Type H   : 5s2p1d contracted to 3s2p1d pattern {311/11/1}

Atom   0C    basis set group =>   1
Atom   1C    basis set group =>   1
Atom   2O    basis set group =>   2
Atom   3C    basis set group =>   1
Atom   4O    basis set group =>   2
Atom   5C    basis set group =>   1
Atom   6C    basis set group =>   1
Atom   7C    basis set group =>   1
Atom   8N    basis set group =>   3
Atom   9C    basis set group =>   1
Atom  10S    basis set group =>   4
Atom  11N    basis set group =>   3
Atom  12C    basis set group =>   1
Atom  13C    basis set group =>   1
Atom  14C    basis set group =>   1
Atom  15C    basis set group =>   1
Atom  16C    basis set group =>   1
Atom  17C    basis set group =>   1
Atom  18O    basis set group =>   2
Atom  19C    basis set group =>   1
Atom  20H    basis set group =>   5
Atom  21H    basis set group =>   5
Atom  22H    basis set group =>   5
Atom  23H    basis set group =>   5
Atom  24H    basis set group =>   5
Atom  25H    basis set group =>   5
Atom  26H    basis set group =>   5
Atom  27H    basis set group =>   5
Atom  28H    basis set group =>   5
Atom  29H    basis set group =>   5
Atom  30H    basis set group =>   5
Atom  31H    basis set group =>   5
Atom  32H    basis set group =>   5
Atom  33H    basis set group =>   5
Atom  34H    basis set group =>   5
Atom  35H    basis set group =>   5
---------------------------------
AUXILIARY/C BASIS SET INFORMATION
---------------------------------
There are 5 groups of distinct atoms

 Group   1 Type C   : 8s6p5d3f1g contracted to 8s6p5d3f1g pattern {11111111/111111/11111/111/1}
 Group   2 Type O   : 8s6p5d3f1g contracted to 8s6p5d3f1g pattern {11111111/111111/11111/111/1}
 Group   3 Type N   : 8s6p5d3f1g contracted to 8s6p5d3f1g pattern {11111111/111111/11111/111/1}
 Group   4 Type S   : 10s8p7d5f2g contracted to 10s8p7d5f2g pattern {1111111111/11111111/1111111/11111/11}
 Group   5 Type H   : 4s3p2d1f contracted to 4s3p2d1f pattern {1111/111/11/1}

Atom   0C    basis set group =>   1
Atom   1C    basis set group =>   1
Atom   2O    basis set group =>   2
Atom   3C    basis set group =>   1
Atom   4O    basis set group =>   2
Atom   5C    basis set group =>   1
Atom   6C    basis set group =>   1
Atom   7C    basis set group =>   1
Atom   8N    basis set group =>   3
Atom   9C    basis set group =>   1
Atom  10S    basis set group =>   4
Atom  11N    basis set group =>   3
Atom  12C    basis set group =>   1
Atom  13C    basis set group =>   1
Atom  14C    basis set group =>   1
Atom  15C    basis set group =>   1
Atom  16C    basis set group =>   1
Atom  17C    basis set group =>   1
Atom  18O    basis set group =>   2
Atom  19C    basis set group =>   1
Atom  20H    basis set group =>   5
Atom  21H    basis set group =>   5
Atom  22H    basis set group =>   5
Atom  23H    basis set group =>   5
Atom  24H    basis set group =>   5
Atom  25H    basis set group =>   5
Atom  26H    basis set group =>   5
Atom  27H    basis set group =>   5
Atom  28H    basis set group =>   5
Atom  29H    basis set group =>   5
Atom  30H    basis set group =>   5
Atom  31H    basis set group =>   5
Atom  32H    basis set group =>   5
Atom  33H    basis set group =>   5
Atom  34H    basis set group =>   5
Atom  35H    basis set group =>   5
------------------------------------------------------------------------------
                           ORCA GTO INTEGRAL CALCULATION
------------------------------------------------------------------------------

                         BASIS SET STATISTICS AND STARTUP INFO

 # of primitive gaussian shells          ...  682
 # of primitive gaussian functions       ... 1312
 # of contracted shells                  ...  298
 # of contracted basis functions         ...  828
 Highest angular momentum                ...    3
 Maximum contraction depth               ...   13
 Integral package used                   ... LIBINT
 Integral threshhold            Thresh   ...  2.500e-11
 Primitive cut-off              TCut     ...  2.500e-12


------------------------------ INTEGRAL EVALUATION ----------------------------


 * One electron integrals 
 Pre-screening matrix                    ... done
 Shell pair data                         ... done (   0.012 sec)

-------------------------------------------------------------------------------
                                 ORCA SCF
-------------------------------------------------------------------------------

------------
SCF SETTINGS
------------
Hamiltonian:
 Ab initio Hamiltonian  Method          .... Hartree-Fock(GTOs)


General Settings:
 Integral files         IntName         .... CONFS/Conf848.orca
 Hartree-Fock type      HFTyp           .... RHF
 Total Charge           Charge          ....    0
 Multiplicity           Mult            ....    1
 Number of Electrons    NEL             ....  154
 Basis Dimension        Dim             ....  828
 Nuclear Repulsion      ENuc            ....   1700.9590885651 Eh

Convergence Acceleration:
 DIIS                   CNVDIIS         .... on
   Start iteration      DIISMaxIt       ....    12
   Startup error        DIISStart       ....  0.200000
   # of expansion vecs  DIISMaxEq       ....     5
   Bias factor          DIISBfac        ....   1.050
   Max. coefficient     DIISMaxC        ....  10.000
 Newton-Raphson         CNVNR           .... off
 SOSCF                  CNVSOSCF        .... on
   Start iteration      SOSCFMaxIt      ....   150
   Startup grad/error   SOSCFStart      ....  0.003300
 Level Shifting         CNVShift        .... on
   Level shift para.    LevelShift      ....    0.2500
   Turn off err/grad.   ShiftErr        ....    0.0010
 Zerner damping         CNVZerner       .... off
 Static damping         CNVDamp         .... on
   Fraction old density DampFac         ....    0.7000
   Max. Damping (<1)    DampMax         ....    0.9800
   Min. Damping (>=0)   DampMin         ....    0.0000
   Turn off err/grad.   DampErr         ....    0.1000
 Fernandez-Rico         CNVRico         .... off

SCF Procedure:
 Maximum # iterations   MaxIter         ....   125
 SCF integral mode      SCFMode         .... Direct
   Integral package                     .... LIBINT
 Reset frequency        DirectResetFreq ....    20
 Integral Threshold     Thresh          ....  2.500e-11 Eh
 Primitive CutOff       TCut            ....  2.500e-12 Eh

Convergence Tolerance:
 Convergence Check Mode ConvCheckMode   .... Total+1el-Energy
 Convergence forced     ConvForced      .... 1
 Energy Change          TolE            ....  1.000e-08 Eh
 1-El. energy change                    ....  1.000e-05 Eh
 Orbital Gradient       TolG            ....  1.000e-05
 Orbital Rotation angle TolX            ....  1.000e-05
 DIIS Error             TolErr          ....  5.000e-07


Diagonalization of the overlap matrix:
Smallest eigenvalue                        ... 3.476e-05
Time for diagonalization                   ...    0.282 sec
Threshold for overlap eigenvalues          ... 1.000e-08
Number of eigenvalues below threshold      ... 0
Time for construction of square roots      ...    0.485 sec
Total time needed                          ...    0.768 sec

-------------------
DFT GRID GENERATION
-------------------

General Integration Accuracy     IntAcc      ...  4.340
Radial Grid Type                 RadialGrid  ... Gauss-Chebyshev
Angular Grid (max. acc.)         AngularGrid ... Lebedev-110
Angular grid pruning method      GridPruning ... 3 (G Style)
Weight generation scheme         WeightScheme... Becke
Basis function cutoff            BFCut       ...    1.0000e-11
Integration weight cutoff        WCut        ...    1.0000e-14
Grids for H and He will be reduced by one unit

# of grid points (after initial pruning)     ...  46246 (   0.0 sec)
# of grid points (after weights+screening)   ...  41271 (   0.3 sec)
nearest neighbour list constructed           ...    0.0 sec
Grid point re-assignment to atoms done       ...    0.0 sec
Grid point division into batches done        ...    0.0 sec
Reduced shell lists constructed in    0.8 sec

Total number of grid points                  ...    41271
Total number of batches                      ...      663
Average number of points per batch           ...       62
Average number of grid points per atom       ...     1146
Average number of shells per batch           ...   149.22 (50.07%)
Average number of basis functions per batch  ...   379.22 (45.80%)
Average number of large shells per batch     ...    95.46 (63.97%)
Average number of large basis fcns per batch ...   245.00 (64.61%)
Maximum spatial batch extension              ...  22.50, 20.94, 20.67 au
Average spatial batch extension              ...   3.57,  3.40,  3.39 au

Time for grid setup =    1.124 sec

------------------------------
INITIAL GUESS: MODEL POTENTIAL
------------------------------
Loading Hartree-Fock densities                     ... done
Calculating cut-offs                               ... done
Setting up the integral package                    ... done
Initializing the effective Hamiltonian             ... done
Starting the Coulomb interaction                   ... done (   2.9 sec)
Reading the grid                                   ... done
Mapping shells                                     ... done
Starting the XC term evaluation                    ... done (   1.0 sec)
Transforming the Hamiltonian                       ... done (   0.2 sec)
Diagonalizing the Hamiltonian                      ... done (   0.3 sec)
Back transforming the eigenvectors                 ... done (   0.1 sec)
Now organizing SCF variables                       ... done
                      ------------------
                      INITIAL GUESS DONE (   6.7 sec)
                      ------------------
--------------
SCF ITERATIONS
--------------
ITER       Energy         Delta-E        Max-DP      RMS-DP      [F,P]     Damp
               ***  Starting incremental Fock matrix formation  ***
  0  -1270.0034893948   0.000000000000 0.04926344  0.00043459  0.3055966 0.7000
  1  -1270.2695780416  -0.266088646859 0.03605554  0.00035129  0.1790926 0.7000
                               ***Turning on DIIS***
  2  -1270.4357026464  -0.166124604749 0.02582795  0.00023478  0.1097559 0.7000
  3  -1272.5465294236  -2.110826777258 0.06315080  0.00050422  0.0828607 0.0000
  4  -1270.7443032749   1.802226148725 0.01194689  0.00010069  0.0067582 0.0000
  5  -1270.8019604589  -0.057657183952 0.00578519  0.00005225  0.0034706 0.0000
                      *** Initiating the SOSCF procedure ***
                           *** Shutting down DIIS ***
                      *** Re-Reading the Fockian *** 
                      *** Removing any level shift *** 
ITER      Energy       Delta-E        Grad      Rot      Max-DP    RMS-DP
  6  -1270.78135098   0.0206094769  0.001724  0.001724  0.002944  0.000027
               *** Restarting incremental Fock matrix formation ***
  7  -1270.79675786  -0.0154068754  0.001001  0.002507  0.001666  0.000017
  8  -1270.79680583  -0.0000479772  0.000445  0.002950  0.001967  0.000019
  9  -1270.79682463  -0.0000187950  0.000157  0.000315  0.000381  0.000005
 10  -1270.79682704  -0.0000024064  0.000049  0.000129  0.000125  0.000001
 11  -1270.79682726  -0.0000002260  0.000022  0.000123  0.000078  0.000001
 12  -1270.79682732  -0.0000000595  0.000010  0.000035  0.000027  0.000000
 13  -1270.79682733  -0.0000000104  0.000003  0.000009  0.000005  0.000000
                  ***Gradient check signals convergence***
              ***Rediagonalizing the Fockian in SOSCF/NRSCF***

               *****************************************************
               *                     SUCCESS                       *
               *           SCF CONVERGED AFTER  14 CYCLES          *
               *****************************************************


----------------
TOTAL SCF ENERGY
----------------

Total Energy       :        -1270.79682733 Eh          -34580.13969 eV

Components:
Nuclear Repulsion  :         1700.95908857 Eh           46285.44991 eV
Electronic Energy  :        -2971.75591589 Eh          -80865.58960 eV
One Electron Energy:        -5122.65285460 Eh         -139394.47085 eV
Two Electron Energy:         2150.89693871 Eh           58528.88125 eV

Virial components:
Potential Energy   :        -2539.82851071 Eh          -69112.24738 eV
Kinetic Energy     :         1269.03168339 Eh           34532.10768 eV
Virial Ratio       :            2.00139094


---------------
SCF CONVERGENCE
---------------

  Last Energy change         ...    3.0641e-09  Tolerance :   1.0000e-08
  Last MAX-Density change    ...    3.7048e-06  Tolerance :   1.0000e-07
  Last RMS-Density change    ...    3.6170e-08  Tolerance :   5.0000e-09
  Last Orbital Gradient      ...    1.1667e-06  Tolerance :   1.0000e-05
  Last Orbital Rotation      ...    3.7378e-06  Tolerance :   1.0000e-05

             **** THE GBW FILE WAS UPDATED (CONFS/Conf848.orca.gbw) ****
             **** DENSITY FILE WAS UPDATED (CONFS/Conf848.orca.scfp) ****
             **** ENERGY FILE WAS UPDATED (CONFS/Conf848.orca.en.tmp) ****
             **** THE GBW FILE WAS UPDATED (CONFS/Conf848.orca.gbw) ****
             **** DENSITY FILE WAS UPDATED (CONFS/Conf848.orca.scfp) ****
----------------
ORBITAL ENERGIES
----------------

  NO   OCC          E(Eh)            E(eV) 
   0   2.0000     -91.889694     -2500.4457 
   1   2.0000     -20.598686      -560.5187 
   2   2.0000     -20.594310      -560.3997 
   3   2.0000     -20.554663      -559.3208 
   4   2.0000     -15.628214      -425.2653 
   5   2.0000     -15.608788      -424.7367 
   6   2.0000     -11.396445      -310.1130 
   7   2.0000     -11.385373      -309.8118 
   8   2.0000     -11.336085      -308.4706 
   9   2.0000     -11.315726      -307.9166 
  10   2.0000     -11.308527      -307.7207 
  11   2.0000     -11.305472      -307.6375 
  12   2.0000     -11.263152      -306.4859 
  13   2.0000     -11.263106      -306.4847 
  14   2.0000     -11.262986      -306.4814 
  15   2.0000     -11.255748      -306.2845 
  16   2.0000     -11.245092      -305.9945 
  17   2.0000     -11.241318      -305.8918 
  18   2.0000     -11.238086      -305.8039 
  19   2.0000     -11.237308      -305.7827 
  20   2.0000      -8.894796      -242.0397 
  21   2.0000      -6.576376      -178.9523 
  22   2.0000      -6.574366      -178.8976 
  23   2.0000      -6.573782      -178.8817 
  24   2.0000      -1.451383       -39.4941 
  25   2.0000      -1.418427       -38.5974 
  26   2.0000      -1.362590       -37.0780 
  27   2.0000      -1.341187       -36.4956 
  28   2.0000      -1.239214       -33.7207 
  29   2.0000      -1.159932       -31.5633 
  30   2.0000      -1.124845       -30.6086 
  31   2.0000      -1.047208       -28.4960 
  32   2.0000      -1.040551       -28.3148 
  33   2.0000      -1.017617       -27.6908 
  34   2.0000      -1.004789       -27.3417 
  35   2.0000      -0.988548       -26.8998 
  36   2.0000      -0.925411       -25.1817 
  37   2.0000      -0.884226       -24.0610 
  38   2.0000      -0.852738       -23.2042 
  39   2.0000      -0.842309       -22.9204 
  40   2.0000      -0.836267       -22.7560 
  41   2.0000      -0.834822       -22.7167 
  42   2.0000      -0.759892       -20.6777 
  43   2.0000      -0.737850       -20.0779 
  44   2.0000      -0.731322       -19.9003 
  45   2.0000      -0.696135       -18.9428 
  46   2.0000      -0.687890       -18.7184 
  47   2.0000      -0.685367       -18.6498 
  48   2.0000      -0.674722       -18.3601 
  49   2.0000      -0.661317       -17.9953 
  50   2.0000      -0.651954       -17.7406 
  51   2.0000      -0.640326       -17.4242 
  52   2.0000      -0.633972       -17.2513 
  53   2.0000      -0.624927       -17.0051 
  54   2.0000      -0.609934       -16.5971 
  55   2.0000      -0.605768       -16.4838 
  56   2.0000      -0.602057       -16.3828 
  57   2.0000      -0.582139       -15.8408 
  58   2.0000      -0.575239       -15.6530 
  59   2.0000      -0.570204       -15.5160 
  60   2.0000      -0.561619       -15.2824 
  61   2.0000      -0.555897       -15.1267 
  62   2.0000      -0.545358       -14.8399 
  63   2.0000      -0.528939       -14.3932 
  64   2.0000      -0.522172       -14.2090 
  65   2.0000      -0.514086       -13.9890 
  66   2.0000      -0.501128       -13.6364 
  67   2.0000      -0.498485       -13.5645 
  68   2.0000      -0.487916       -13.2769 
  69   2.0000      -0.467912       -12.7325 
  70   2.0000      -0.463488       -12.6122 
  71   2.0000      -0.451534       -12.2869 
  72   2.0000      -0.356715        -9.7067 
  73   2.0000      -0.351054        -9.5527 
  74   2.0000      -0.329091        -8.9550 
  75   2.0000      -0.323061        -8.7909 
  76   2.0000      -0.319825        -8.7029 
  77   0.0000       0.080501         2.1905 
  78   0.0000       0.103501         2.8164 
  79   0.0000       0.118854         3.2342 
  80   0.0000       0.130894         3.5618 
  81   0.0000       0.132706         3.6111 
  82   0.0000       0.141863         3.8603 
  83   0.0000       0.150183         4.0867 
  84   0.0000       0.156984         4.2718 
  85   0.0000       0.160143         4.3577 
  86   0.0000       0.165963         4.5161 
  87   0.0000       0.175203         4.7675 
  88   0.0000       0.183446         4.9918 
  89   0.0000       0.193920         5.2768 
  90   0.0000       0.200764         5.4631 
  91   0.0000       0.202650         5.5144 
  92   0.0000       0.206263         5.6127 
  93   0.0000       0.211083         5.7439 
  94   0.0000       0.227264         6.1842 
  95   0.0000       0.228547         6.2191 
  96   0.0000       0.236607         6.4384 
  97   0.0000       0.245299         6.6749 
  98   0.0000       0.262000         7.1294 
  99   0.0000       0.288875         7.8607 
 100   0.0000       0.293634         7.9902 
 101   0.0000       0.299453         8.1485 
 102   0.0000       0.310934         8.4609 
 103   0.0000       0.312251         8.4968 
 104   0.0000       0.322981         8.7888 
 105   0.0000       0.328582         8.9412 
 106   0.0000       0.338229         9.2037 
 107   0.0000       0.340013         9.2522 
 108   0.0000       0.347570         9.4579 
 109   0.0000       0.358587         9.7577 
 110   0.0000       0.367464         9.9992 
 111   0.0000       0.371208        10.1011 
 112   0.0000       0.378809        10.3079 
 113   0.0000       0.387511        10.5447 
 114   0.0000       0.394532        10.7358 
 115   0.0000       0.411526        11.1982 
 116   0.0000       0.412816        11.2333 
 117   0.0000       0.424095        11.5402 
 118   0.0000       0.432584        11.7712 
 119   0.0000       0.438043        11.9197 
 120   0.0000       0.445813        12.1312 
 121   0.0000       0.448610        12.2073 
 122   0.0000       0.455413        12.3924 
 123   0.0000       0.456071        12.4103 
 124   0.0000       0.459424        12.5016 
 125   0.0000       0.472995        12.8709 
 126   0.0000       0.475461        12.9380 
 127   0.0000       0.479404        13.0452 
 128   0.0000       0.489178        13.3112 
 129   0.0000       0.493059        13.4168 
 130   0.0000       0.500506        13.6195 
 131   0.0000       0.502586        13.6761 
 132   0.0000       0.512444        13.9443 
 133   0.0000       0.520072        14.1519 
 134   0.0000       0.522470        14.2171 
 135   0.0000       0.528840        14.3905 
 136   0.0000       0.533681        14.5222 
 137   0.0000       0.538278        14.6473 
 138   0.0000       0.541754        14.7419 
 139   0.0000       0.552175        15.0254 
 140   0.0000       0.555633        15.1195 
 141   0.0000       0.559515        15.2252 
 142   0.0000       0.564307        15.3556 
 143   0.0000       0.570374        15.5207 
 144   0.0000       0.575189        15.6517 
 145   0.0000       0.578751        15.7486 
 146   0.0000       0.585212        15.9244 
 147   0.0000       0.587417        15.9844 
 148   0.0000       0.590985        16.0815 
 149   0.0000       0.596813        16.2401 
 150   0.0000       0.598305        16.2807 
 151   0.0000       0.605139        16.4667 
 152   0.0000       0.614431        16.7195 
 153   0.0000       0.617012        16.7898 
 154   0.0000       0.618813        16.8388 
 155   0.0000       0.622891        16.9497 
 156   0.0000       0.626884        17.0584 
 157   0.0000       0.631354        17.1800 
 158   0.0000       0.631795        17.1920 
 159   0.0000       0.638374        17.3710 
 160   0.0000       0.642342        17.4790 
 161   0.0000       0.648821        17.6553 
 162   0.0000       0.650447        17.6996 
 163   0.0000       0.652393        17.7525 
 164   0.0000       0.665409        18.1067 
 165   0.0000       0.673801        18.3351 
 166   0.0000       0.677769        18.4430 
 167   0.0000       0.680670        18.5220 
 168   0.0000       0.689819        18.7709 
 169   0.0000       0.694442        18.8967 
 170   0.0000       0.695151        18.9160 
 171   0.0000       0.705130        19.1876 
 172   0.0000       0.708016        19.2661 
 173   0.0000       0.718836        19.5605 
 174   0.0000       0.727187        19.7878 
 175   0.0000       0.728045        19.8111 
 176   0.0000       0.737241        20.0613 
 177   0.0000       0.745472        20.2853 
 178   0.0000       0.748109        20.3571 
 179   0.0000       0.754626        20.5344 
 180   0.0000       0.762917        20.7600 
 181   0.0000       0.765658        20.8346 
 182   0.0000       0.775455        21.1012 
 183   0.0000       0.792088        21.5538 
 184   0.0000       0.796418        21.6716 
 185   0.0000       0.806851        21.9555 
 186   0.0000       0.812273        22.1031 
 187   0.0000       0.820118        22.3165 
 188   0.0000       0.826193        22.4819 
 189   0.0000       0.829949        22.5841 
 190   0.0000       0.838217        22.8090 
 191   0.0000       0.843275        22.9467 
 192   0.0000       0.850117        23.1329 
 193   0.0000       0.856527        23.3073 
 194   0.0000       0.862268        23.4635 
 195   0.0000       0.873188        23.7607 
 196   0.0000       0.881885        23.9973 
 197   0.0000       0.888240        24.1702 
 198   0.0000       0.892584        24.2884 
 199   0.0000       0.907204        24.6863 
 200   0.0000       0.908945        24.7337 
 201   0.0000       0.916083        24.9279 
 202   0.0000       0.923393        25.1268 
 203   0.0000       0.933832        25.4108 
 204   0.0000       0.944280        25.6952 
 205   0.0000       0.949111        25.8266 
 206   0.0000       0.953463        25.9450 
 207   0.0000       0.959177        26.1005 
 208   0.0000       0.962144        26.1813 
 209   0.0000       0.968035        26.3416 
 210   0.0000       0.976148        26.5623 
 211   0.0000       0.980537        26.6818 
 212   0.0000       0.990834        26.9620 
 213   0.0000       1.005720        27.3670 
 214   0.0000       1.007026        27.4026 
 215   0.0000       1.010105        27.4863 
 216   0.0000       1.019551        27.7434 
 217   0.0000       1.024110        27.8674 
 218   0.0000       1.035712        28.1832 
 219   0.0000       1.041671        28.3453 
 220   0.0000       1.053232        28.6599 
 221   0.0000       1.061676        28.8897 
 222   0.0000       1.064900        28.9774 
 223   0.0000       1.068735        29.0817 
 224   0.0000       1.074665        29.2431 
 225   0.0000       1.082504        29.4564 
 226   0.0000       1.087475        29.5917 
 227   0.0000       1.098078        29.8802 
 228   0.0000       1.102350        29.9965 
 229   0.0000       1.106438        30.1077 
 230   0.0000       1.110124        30.2080 
 231   0.0000       1.125909        30.6376 
 232   0.0000       1.137068        30.9412 
 233   0.0000       1.146198        31.1896 
 234   0.0000       1.153363        31.3846 
 235   0.0000       1.156671        31.4746 
 236   0.0000       1.167593        31.7718 
 237   0.0000       1.176921        32.0256 
 238   0.0000       1.184682        32.2368 
 239   0.0000       1.188905        32.3518 
 240   0.0000       1.194574        32.5060 
 241   0.0000       1.205190        32.7949 
 242   0.0000       1.211669        32.9712 
 243   0.0000       1.217575        33.1319 
 244   0.0000       1.218564        33.1588 
 245   0.0000       1.227986        33.4152 
 246   0.0000       1.239527        33.7293 
 247   0.0000       1.247985        33.9594 
 248   0.0000       1.250170        34.0188 
 249   0.0000       1.254645        34.1406 
 250   0.0000       1.257903        34.2293 
 251   0.0000       1.277943        34.7746 
 252   0.0000       1.283416        34.9235 
 253   0.0000       1.289673        35.0938 
 254   0.0000       1.297909        35.3179 
 255   0.0000       1.308043        35.5937 
 256   0.0000       1.313136        35.7322 
 257   0.0000       1.317754        35.8579 
 258   0.0000       1.326182        36.0873 
 259   0.0000       1.329056        36.1654 
 260   0.0000       1.336337        36.3636 
 261   0.0000       1.341057        36.4920 
 262   0.0000       1.352664        36.8079 
 263   0.0000       1.357101        36.9286 
 264   0.0000       1.369031        37.2532 
 265   0.0000       1.380405        37.5627 
 266   0.0000       1.387859        37.7656 
 267   0.0000       1.396107        37.9900 
 268   0.0000       1.402307        38.1587 
 269   0.0000       1.411280        38.4029 
 270   0.0000       1.414373        38.4870 
 271   0.0000       1.432739        38.9868 
 272   0.0000       1.439271        39.1646 
 273   0.0000       1.446886        39.3718 
 274   0.0000       1.454826        39.5878 
 275   0.0000       1.459046        39.7027 
 276   0.0000       1.466494        39.9053 
 277   0.0000       1.472751        40.0756 
 278   0.0000       1.479029        40.2464 
 279   0.0000       1.485926        40.4341 
 280   0.0000       1.500659        40.8350 
 281   0.0000       1.505482        40.9662 
 282   0.0000       1.507153        41.0117 
 283   0.0000       1.515063        41.2270 
 284   0.0000       1.523749        41.4633 
 285   0.0000       1.529637        41.6235 
 286   0.0000       1.532337        41.6970 
 287   0.0000       1.536244        41.8033 
 288   0.0000       1.539265        41.8855 
 289   0.0000       1.545598        42.0579 
 290   0.0000       1.552825        42.2545 
 291   0.0000       1.570466        42.7346 
 292   0.0000       1.580050        42.9953 
 293   0.0000       1.582633        43.0656 
 294   0.0000       1.591072        43.2953 
 295   0.0000       1.594703        43.3941 
 296   0.0000       1.599706        43.5302 
 297   0.0000       1.612092        43.8672 
 298   0.0000       1.617469        44.0136 
 299   0.0000       1.619895        44.0796 
 300   0.0000       1.629999        44.3545 
 301   0.0000       1.635020        44.4912 
 302   0.0000       1.644138        44.7393 
 303   0.0000       1.646198        44.7953 
 304   0.0000       1.655349        45.0443 
 305   0.0000       1.665816        45.3292 
 306   0.0000       1.677264        45.6407 
 307   0.0000       1.685207        45.8568 
 308   0.0000       1.691363        46.0243 
 309   0.0000       1.699392        46.2428 
 310   0.0000       1.712082        46.5881 
 311   0.0000       1.717586        46.7379 
 312   0.0000       1.725797        46.9613 
 313   0.0000       1.731350        47.1124 
 314   0.0000       1.739544        47.3354 
 315   0.0000       1.747144        47.5422 
 316   0.0000       1.766770        48.0763 
 317   0.0000       1.777998        48.3818 
 318   0.0000       1.782639        48.5081 
 319   0.0000       1.802228        49.0411 
 320   0.0000       1.812145        49.3110 
 321   0.0000       1.831343        49.8334 
 322   0.0000       1.835449        49.9451 
 323   0.0000       1.844717        50.1973 
 324   0.0000       1.846909        50.2569 
 325   0.0000       1.867158        50.8080 
 326   0.0000       1.884478        51.2793 
 327   0.0000       1.890775        51.4506 
 328   0.0000       1.905102        51.8405 
 329   0.0000       1.908967        51.9456 
 330   0.0000       1.919159        52.2230 
 331   0.0000       1.931219        52.5511 
 332   0.0000       1.938542        52.7504 
 333   0.0000       1.943247        52.8784 
 334   0.0000       1.975230        53.7487 
 335   0.0000       1.978159        53.8285 
 336   0.0000       1.994045        54.2607 
 337   0.0000       2.002717        54.4967 
 338   0.0000       2.015413        54.8422 
 339   0.0000       2.021972        55.0207 
 340   0.0000       2.025840        55.1259 
 341   0.0000       2.036021        55.4029 
 342   0.0000       2.047192        55.7069 
 343   0.0000       2.066732        56.2386 
 344   0.0000       2.102710        57.2176 
 345   0.0000       2.111159        57.4476 
 346   0.0000       2.118759        57.6544 
 347   0.0000       2.137315        58.1593 
 348   0.0000       2.151410        58.5428 
 349   0.0000       2.172055        59.1046 
 350   0.0000       2.192757        59.6679 
 351   0.0000       2.200508        59.8789 
 352   0.0000       2.208318        60.0914 
 353   0.0000       2.224276        60.5256 
 354   0.0000       2.236047        60.8459 
 355   0.0000       2.255091        61.3642 
 356   0.0000       2.276151        61.9372 
 357   0.0000       2.285536        62.1926 
 358   0.0000       2.296363        62.4872 
 359   0.0000       2.303852        62.6910 
 360   0.0000       2.316784        63.0429 
 361   0.0000       2.326277        63.3012 
 362   0.0000       2.347595        63.8813 
 363   0.0000       2.358574        64.1801 
 364   0.0000       2.364611        64.3443 
 365   0.0000       2.375999        64.6542 
 366   0.0000       2.385719        64.9187 
 367   0.0000       2.397454        65.2380 
 368   0.0000       2.410661        65.5974 
 369   0.0000       2.421654        65.8966 
 370   0.0000       2.425643        66.0051 
 371   0.0000       2.452800        66.7441 
 372   0.0000       2.467622        67.1474 
 373   0.0000       2.474618        67.3378 
 374   0.0000       2.481674        67.5298 
 375   0.0000       2.496495        67.9331 
 376   0.0000       2.504468        68.1500 
 377   0.0000       2.517631        68.5082 
 378   0.0000       2.537223        69.0413 
 379   0.0000       2.553090        69.4731 
 380   0.0000       2.561904        69.7130 
 381   0.0000       2.574713        70.0615 
 382   0.0000       2.587012        70.3962 
 383   0.0000       2.596034        70.6417 
 384   0.0000       2.606556        70.9280 
 385   0.0000       2.622120        71.3515 
 386   0.0000       2.627102        71.4871 
 387   0.0000       2.633800        71.6693 
 388   0.0000       2.650066        72.1120 
 389   0.0000       2.654375        72.2292 
 390   0.0000       2.674388        72.7738 
 391   0.0000       2.685536        73.0771 
 392   0.0000       2.699186        73.4486 
 393   0.0000       2.706881        73.6580 
 394   0.0000       2.712994        73.8243 
 395   0.0000       2.718065        73.9623 
 396   0.0000       2.734803        74.4178 
 397   0.0000       2.736722        74.4700 
 398   0.0000       2.738029        74.5056 
 399   0.0000       2.749233        74.8104 
 400   0.0000       2.771297        75.4108 
 401   0.0000       2.777176        75.5708 
 402   0.0000       2.786208        75.8166 
 403   0.0000       2.796768        76.1039 
 404   0.0000       2.802891        76.2705 
 405   0.0000       2.819814        76.7310 
 406   0.0000       2.822039        76.7916 
 407   0.0000       2.833562        77.1051 
 408   0.0000       2.840943        77.3060 
 409   0.0000       2.843193        77.3672 
 410   0.0000       2.881887        78.4201 
 411   0.0000       2.892711        78.7147 
 412   0.0000       2.894151        78.7539 
 413   0.0000       2.902629        78.9845 
 414   0.0000       2.905469        79.0618 
 415   0.0000       2.927144        79.6517 
 416   0.0000       2.930975        79.7559 
 417   0.0000       2.935896        79.8898 
 418   0.0000       2.940902        80.0260 
 419   0.0000       2.952503        80.3417 
 420   0.0000       2.959613        80.5352 
 421   0.0000       2.981159        81.1215 
 422   0.0000       2.987163        81.2848 
 423   0.0000       2.990820        81.3843 
 424   0.0000       3.003984        81.7426 
 425   0.0000       3.010981        81.9330 
 426   0.0000       3.018567        82.1394 
 427   0.0000       3.027236        82.3753 
 428   0.0000       3.034175        82.5641 
 429   0.0000       3.040585        82.7385 
 430   0.0000       3.044095        82.8340 
 431   0.0000       3.048146        82.9443 
 432   0.0000       3.062031        83.3221 
 433   0.0000       3.071528        83.5805 
 434   0.0000       3.077602        83.7458 
 435   0.0000       3.079906        83.8085 
 436   0.0000       3.087379        84.0119 
 437   0.0000       3.090182        84.0881 
 438   0.0000       3.104325        84.4730 
 439   0.0000       3.107392        84.5564 
 440   0.0000       3.112493        84.6952 
 441   0.0000       3.117833        84.8405 
 442   0.0000       3.124350        85.0179 
 443   0.0000       3.129863        85.1679 
 444   0.0000       3.131575        85.2145 
 445   0.0000       3.150215        85.7217 
 446   0.0000       3.159128        85.9643 
 447   0.0000       3.172345        86.3239 
 448   0.0000       3.179231        86.5113 
 449   0.0000       3.186199        86.7009 
 450   0.0000       3.191186        86.8366 
 451   0.0000       3.203281        87.1657 
 452   0.0000       3.209568        87.3368 
 453   0.0000       3.214457        87.4698 
 454   0.0000       3.221760        87.6686 
 455   0.0000       3.228787        87.8598 
 456   0.0000       3.234407        88.0127 
 457   0.0000       3.243895        88.2709 
 458   0.0000       3.255369        88.5831 
 459   0.0000       3.256692        88.6191 
 460   0.0000       3.270946        89.0070 
 461   0.0000       3.272709        89.0549 
 462   0.0000       3.279048        89.2274 
 463   0.0000       3.283990        89.3619 
 464   0.0000       3.292444        89.5919 
 465   0.0000       3.295602        89.6779 
 466   0.0000       3.306879        89.9847 
 467   0.0000       3.316866        90.2565 
 468   0.0000       3.320439        90.3537 
 469   0.0000       3.327677        90.5507 
 470   0.0000       3.335857        90.7733 
 471   0.0000       3.340143        90.8899 
 472   0.0000       3.345845        91.0451 
 473   0.0000       3.358900        91.4003 
 474   0.0000       3.361875        91.4813 
 475   0.0000       3.367928        91.6460 
 476   0.0000       3.372537        91.7714 
 477   0.0000       3.375669        91.8566 
 478   0.0000       3.381186        92.0067 
 479   0.0000       3.385765        92.1313 
 480   0.0000       3.387286        92.1727 
 481   0.0000       3.392335        92.3101 
 482   0.0000       3.393196        92.3336 
 483   0.0000       3.400865        92.5422 
 484   0.0000       3.409315        92.7722 
 485   0.0000       3.416797        92.9758 
 486   0.0000       3.420686        93.0816 
 487   0.0000       3.429440        93.3198 
 488   0.0000       3.434042        93.4450 
 489   0.0000       3.439035        93.5809 
 490   0.0000       3.443864        93.7123 
 491   0.0000       3.450689        93.8980 
 492   0.0000       3.452975        93.9602 
 493   0.0000       3.459202        94.1297 
 494   0.0000       3.470835        94.4462 
 495   0.0000       3.473259        94.5122 
 496   0.0000       3.480916        94.7205 
 497   0.0000       3.483417        94.7886 
 498   0.0000       3.490459        94.9802 
 499   0.0000       3.500465        95.2525 
 500   0.0000       3.509581        95.5006 
 501   0.0000       3.513417        95.6049 
 502   0.0000       3.524468        95.9057 
 503   0.0000       3.533662        96.1558 
 504   0.0000       3.534887        96.1892 
 505   0.0000       3.541092        96.3580 
 506   0.0000       3.548208        96.5516 
 507   0.0000       3.567840        97.0859 
 508   0.0000       3.572202        97.2046 
 509   0.0000       3.578640        97.3797 
 510   0.0000       3.586188        97.5851 
 511   0.0000       3.597596        97.8956 
 512   0.0000       3.609442        98.2179 
 513   0.0000       3.611107        98.2632 
 514   0.0000       3.624180        98.6190 
 515   0.0000       3.628732        98.7428 
 516   0.0000       3.631426        98.8161 
 517   0.0000       3.635241        98.9199 
 518   0.0000       3.638315        99.0036 
 519   0.0000       3.642781        99.1251 
 520   0.0000       3.649669        99.3125 
 521   0.0000       3.655182        99.4626 
 522   0.0000       3.665850        99.7528 
 523   0.0000       3.671548        99.9079 
 524   0.0000       3.678739       100.1036 
 525   0.0000       3.684308       100.2551 
 526   0.0000       3.692210       100.4701 
 527   0.0000       3.700258       100.6891 
 528   0.0000       3.707176       100.8774 
 529   0.0000       3.711329       100.9904 
 530   0.0000       3.717696       101.1636 
 531   0.0000       3.723206       101.3136 
 532   0.0000       3.727202       101.4223 
 533   0.0000       3.730978       101.5251 
 534   0.0000       3.739567       101.7588 
 535   0.0000       3.753193       102.1296 
 536   0.0000       3.753944       102.1500 
 537   0.0000       3.761562       102.3573 
 538   0.0000       3.764677       102.4421 
 539   0.0000       3.771015       102.6145 
 540   0.0000       3.780794       102.8806 
 541   0.0000       3.793024       103.2134 
 542   0.0000       3.797021       103.3222 
 543   0.0000       3.804946       103.5378 
 544   0.0000       3.808923       103.6461 
 545   0.0000       3.816651       103.8564 
 546   0.0000       3.821462       103.9873 
 547   0.0000       3.825411       104.0947 
 548   0.0000       3.839380       104.4748 
 549   0.0000       3.847238       104.6887 
 550   0.0000       3.856954       104.9531 
 551   0.0000       3.865419       105.1834 
 552   0.0000       3.872886       105.3866 
 553   0.0000       3.878314       105.5343 
 554   0.0000       3.884379       105.6993 
 555   0.0000       3.895727       106.0081 
 556   0.0000       3.896672       106.0338 
 557   0.0000       3.913086       106.4805 
 558   0.0000       3.920355       106.6783 
 559   0.0000       3.922646       106.7406 
 560   0.0000       3.930163       106.9452 
 561   0.0000       3.948709       107.4498 
 562   0.0000       3.951093       107.5147 
 563   0.0000       3.957987       107.7023 
 564   0.0000       3.960016       107.7575 
 565   0.0000       3.975333       108.1743 
 566   0.0000       3.990778       108.5946 
 567   0.0000       4.007220       109.0420 
 568   0.0000       4.008029       109.0640 
 569   0.0000       4.018987       109.3622 
 570   0.0000       4.027460       109.5928 
 571   0.0000       4.029509       109.6485 
 572   0.0000       4.035871       109.8216 
 573   0.0000       4.047506       110.1383 
 574   0.0000       4.065688       110.6330 
 575   0.0000       4.074858       110.8825 
 576   0.0000       4.079261       111.0023 
 577   0.0000       4.082793       111.0985 
 578   0.0000       4.093864       111.3997 
 579   0.0000       4.103943       111.6740 
 580   0.0000       4.110956       111.8648 
 581   0.0000       4.115257       111.9818 
 582   0.0000       4.122863       112.1888 
 583   0.0000       4.131326       112.4191 
 584   0.0000       4.136987       112.5731 
 585   0.0000       4.146652       112.8361 
 586   0.0000       4.152004       112.9818 
 587   0.0000       4.156452       113.1028 
 588   0.0000       4.162492       113.2672 
 589   0.0000       4.165064       113.3372 
 590   0.0000       4.177014       113.6623 
 591   0.0000       4.180517       113.7576 
 592   0.0000       4.184207       113.8580 
 593   0.0000       4.186505       113.9206 
 594   0.0000       4.195608       114.1683 
 595   0.0000       4.202164       114.3467 
 596   0.0000       4.218303       114.7859 
 597   0.0000       4.223696       114.9326 
 598   0.0000       4.229180       115.0819 
 599   0.0000       4.245330       115.5213 
 600   0.0000       4.250677       115.6668 
 601   0.0000       4.255158       115.7887 
 602   0.0000       4.266363       116.0936 
 603   0.0000       4.270989       116.2195 
 604   0.0000       4.288290       116.6903 
 605   0.0000       4.299754       117.0023 
 606   0.0000       4.307378       117.2097 
 607   0.0000       4.309448       117.2660 
 608   0.0000       4.320063       117.5549 
 609   0.0000       4.324540       117.6767 
 610   0.0000       4.335088       117.9637 
 611   0.0000       4.344259       118.2133 
 612   0.0000       4.356378       118.5431 
 613   0.0000       4.363359       118.7330 
 614   0.0000       4.372331       118.9772 
 615   0.0000       4.375086       119.0521 
 616   0.0000       4.377534       119.1188 
 617   0.0000       4.389493       119.4442 
 618   0.0000       4.405737       119.8862 
 619   0.0000       4.408866       119.9713 
 620   0.0000       4.411968       120.0558 
 621   0.0000       4.419152       120.2512 
 622   0.0000       4.429907       120.5439 
 623   0.0000       4.439640       120.8087 
 624   0.0000       4.446437       120.9937 
 625   0.0000       4.452542       121.1598 
 626   0.0000       4.468912       121.6053 
 627   0.0000       4.472601       121.7057 
 628   0.0000       4.480933       121.9324 
 629   0.0000       4.496209       122.3481 
 630   0.0000       4.499179       122.4289 
 631   0.0000       4.512114       122.7809 
 632   0.0000       4.518918       122.9660 
 633   0.0000       4.528843       123.2361 
 634   0.0000       4.535099       123.4063 
 635   0.0000       4.540086       123.5420 
 636   0.0000       4.548521       123.7716 
 637   0.0000       4.562909       124.1631 
 638   0.0000       4.567517       124.2884 
 639   0.0000       4.575853       124.5153 
 640   0.0000       4.590694       124.9191 
 641   0.0000       4.597055       125.0922 
 642   0.0000       4.607699       125.3819 
 643   0.0000       4.613055       125.5276 
 644   0.0000       4.620810       125.7386 
 645   0.0000       4.627359       125.9169 
 646   0.0000       4.634125       126.1010 
 647   0.0000       4.639650       126.2513 
 648   0.0000       4.644824       126.3921 
 649   0.0000       4.653438       126.6265 
 650   0.0000       4.663037       126.8877 
 651   0.0000       4.669870       127.0736 
 652   0.0000       4.673670       127.1770 
 653   0.0000       4.678532       127.3093 
 654   0.0000       4.695202       127.7629 
 655   0.0000       4.700595       127.9097 
 656   0.0000       4.707522       128.0982 
 657   0.0000       4.714169       128.2791 
 658   0.0000       4.722818       128.5144 
 659   0.0000       4.733521       128.8056 
 660   0.0000       4.750909       129.2788 
 661   0.0000       4.769400       129.7820 
 662   0.0000       4.771874       129.8493 
 663   0.0000       4.777838       130.0116 
 664   0.0000       4.819678       131.1501 
 665   0.0000       4.830487       131.4442 
 666   0.0000       4.859035       132.2211 
 667   0.0000       4.865773       132.4044 
 668   0.0000       4.887338       132.9912 
 669   0.0000       4.912039       133.6634 
 670   0.0000       4.915365       133.7539 
 671   0.0000       4.929783       134.1462 
 672   0.0000       4.931829       134.2019 
 673   0.0000       4.945263       134.5675 
 674   0.0000       4.977052       135.4325 
 675   0.0000       4.978699       135.4773 
 676   0.0000       5.005706       136.2122 
 677   0.0000       5.010696       136.3480 
 678   0.0000       5.023925       136.7080 
 679   0.0000       5.044777       137.2754 
 680   0.0000       5.048173       137.3678 
 681   0.0000       5.070648       137.9793 
 682   0.0000       5.074991       138.0975 
 683   0.0000       5.079733       138.2266 
 684   0.0000       5.093782       138.6089 
 685   0.0000       5.110721       139.0698 
 686   0.0000       5.118925       139.2930 
 687   0.0000       5.130156       139.5986 
 688   0.0000       5.139379       139.8496 
 689   0.0000       5.147633       140.0742 
 690   0.0000       5.164853       140.5428 
 691   0.0000       5.171490       140.7234 
 692   0.0000       5.179133       140.9314 
 693   0.0000       5.192310       141.2899 
 694   0.0000       5.205976       141.6618 
 695   0.0000       5.219187       142.0213 
 696   0.0000       5.221281       142.0783 
 697   0.0000       5.232173       142.3747 
 698   0.0000       5.233458       142.4096 
 699   0.0000       5.250848       142.8828 
 700   0.0000       5.255680       143.0143 
 701   0.0000       5.275351       143.5496 
 702   0.0000       5.293064       144.0316 
 703   0.0000       5.305773       144.3774 
 704   0.0000       5.316109       144.6587 
 705   0.0000       5.325476       144.9136 
 706   0.0000       5.339324       145.2904 
 707   0.0000       5.346796       145.4937 
 708   0.0000       5.353673       145.6809 
 709   0.0000       5.367849       146.0666 
 710   0.0000       5.378854       146.3661 
 711   0.0000       5.417016       147.4045 
 712   0.0000       5.435068       147.8957 
 713   0.0000       5.462888       148.6527 
 714   0.0000       5.471256       148.8805 
 715   0.0000       5.478654       149.0817 
 716   0.0000       5.487309       149.3173 
 717   0.0000       5.503944       149.7699 
 718   0.0000       5.513244       150.0230 
 719   0.0000       5.532917       150.5583 
 720   0.0000       5.536129       150.6457 
 721   0.0000       5.544710       150.8792 
 722   0.0000       5.555177       151.1641 
 723   0.0000       5.574265       151.6835 
 724   0.0000       5.584946       151.9741 
 725   0.0000       5.608403       152.6124 
 726   0.0000       5.617539       152.8610 
 727   0.0000       5.629323       153.1817 
 728   0.0000       5.635567       153.3516 
 729   0.0000       5.647206       153.6683 
 730   0.0000       5.657241       153.9414 
 731   0.0000       5.666966       154.2060 
 732   0.0000       5.669544       154.2761 
 733   0.0000       5.684739       154.6896 
 734   0.0000       5.690509       154.8466 
 735   0.0000       5.703466       155.1992 
 736   0.0000       5.722260       155.7106 
 737   0.0000       5.724875       155.7818 
 738   0.0000       5.745120       156.3327 
 739   0.0000       5.749335       156.4474 
 740   0.0000       5.764406       156.8575 
 741   0.0000       5.782577       157.3519 
 742   0.0000       5.793769       157.6565 
 743   0.0000       5.808137       158.0474 
 744   0.0000       5.826754       158.5540 
 745   0.0000       5.837828       158.8554 
 746   0.0000       5.846381       159.0881 
 747   0.0000       5.865826       159.6172 
 748   0.0000       5.894031       160.3847 
 749   0.0000       5.917814       161.0319 
 750   0.0000       5.929506       161.3501 
 751   0.0000       5.960007       162.1800 
 752   0.0000       5.973812       162.5557 
 753   0.0000       5.992552       163.0656 
 754   0.0000       5.997515       163.2007 
 755   0.0000       6.033248       164.1730 
 756   0.0000       6.046543       164.5348 
 757   0.0000       6.060359       164.9108 
 758   0.0000       6.070021       165.1737 
 759   0.0000       6.084373       165.5642 
 760   0.0000       6.101420       166.0281 
 761   0.0000       6.144783       167.2080 
 762   0.0000       6.218198       169.2058 
 763   0.0000       6.226058       169.4196 
 764   0.0000       6.235977       169.6896 
 765   0.0000       6.274344       170.7336 
 766   0.0000       6.289609       171.1490 
 767   0.0000       6.334084       172.3592 
 768   0.0000       6.339807       172.5149 
 769   0.0000       6.347798       172.7324 
 770   0.0000       6.371800       173.3855 
 771   0.0000       6.384886       173.7416 
 772   0.0000       6.403838       174.2573 
 773   0.0000       6.441892       175.2928 
 774   0.0000       6.451867       175.5642 
 775   0.0000       6.470090       176.0601 
 776   0.0000       6.505105       177.0129 
 777   0.0000       6.554019       178.3439 
 778   0.0000       6.605446       179.7433 
 779   0.0000       6.611641       179.9119 
 780   0.0000       6.668577       181.4612 
 781   0.0000       6.678633       181.7348 
 782   0.0000       6.722400       182.9258 
 783   0.0000       6.768787       184.1881 
 784   0.0000       6.831742       185.9012 
 785   0.0000       6.840279       186.1335 
 786   0.0000       6.908672       187.9945 
 787   0.0000       6.920308       188.3111 
 788   0.0000       6.948522       189.0789 
 789   0.0000       6.993409       190.3003 
 790   0.0000       7.045851       191.7274 
 791   0.0000       7.056788       192.0250 
 792   0.0000       7.080220       192.6626 
 793   0.0000       7.124137       193.8576 
 794   0.0000       7.232107       196.7956 
 795   0.0000       7.257714       197.4924 
 796   0.0000       7.268029       197.7731 
 797   0.0000       7.279976       198.0982 
 798   0.0000       7.337909       199.6747 
 799   0.0000       7.379672       200.8111 
 800   0.0000       7.391033       201.1202 
 801   0.0000       7.557459       205.6489 
 802   0.0000       7.571038       206.0184 
 803   0.0000       7.580341       206.2716 
 804   0.0000       7.655958       208.3292 
 805   0.0000       7.807228       212.4455 
 806   0.0000       7.813699       212.6216 
 807   0.0000       7.902561       215.0396 
 808   0.0000       7.931396       215.8243 
 809   0.0000       9.364124       254.8108 
 810   0.0000       9.520685       259.0710 
 811   0.0000      10.762505       292.8626 
 812   0.0000      11.020940       299.8950 
 813   0.0000      12.032443       327.4194 
 814   0.0000      12.567525       341.9798 
 815   0.0000      12.941702       352.1616 
 816   0.0000      13.051369       355.1458 
 817   0.0000      13.142633       357.6292 
 818   0.0000      13.258355       360.7782 
 819   0.0000      13.408535       364.8648 
 820   0.0000      13.462114       366.3227 
 821   0.0000      13.778007       374.9186 
 822   0.0000      13.902600       378.3090 
 823   0.0000      14.004792       381.0898 
 824   0.0000      14.096436       383.5835 
 825   0.0000      14.411599       392.1596 
 826   0.0000      14.583078       396.8257 
 827   0.0000      15.959515       434.2805 

                    ********************************
                    * MULLIKEN POPULATION ANALYSIS *
                    ********************************

-----------------------
MULLIKEN ATOMIC CHARGES
-----------------------
   0 C :   -0.278087
   1 C :    0.023712
   2 O :   -0.350233
   3 C :    0.454215
   4 O :   -0.375135
   5 C :   -0.248849
   6 C :    0.172282
   7 C :   -0.341773
   8 N :   -0.136032
   9 C :    0.205956
  10 S :   -0.442321
  11 N :   -0.217390
  12 C :    0.061986
  13 C :    0.024337
  14 C :   -0.206843
  15 C :   -0.129193
  16 C :   -0.276710
  17 C :    0.314281
  18 O :   -0.356754
  19 C :   -0.256184
  20 H :    0.102655
  21 H :    0.106404
  22 H :    0.088385
  23 H :    0.100651
  24 H :    0.116684
  25 H :    0.142605
  26 H :    0.132744
  27 H :    0.123689
  28 H :    0.198779
  29 H :    0.200848
  30 H :    0.163551
  31 H :    0.173385
  32 H :    0.163936
  33 H :    0.131312
  34 H :    0.241202
  35 H :    0.171905
Sum of atomic charges:    0.0000000

--------------------------------
MULLIKEN REDUCED ORBITAL CHARGES
--------------------------------
  0 C s       :     3.258414  s :     3.258414
      pz      :     1.005959  p :     2.941273
      px      :     0.944626
      py      :     0.990688
      dz2     :     0.020266  d :     0.073939
      dxz     :     0.015928
      dyz     :     0.007611
      dx2y2   :     0.018581
      dxy     :     0.011554
      f0      :     0.000900  f :     0.004461
      f+1     :     0.000342
      f-1     :     0.000578
      f+2     :     0.000648
      f-2     :     0.000447
      f+3     :     0.000389
      f-3     :     0.001158
  1 C s       :     3.175728  s :     3.175728
      pz      :     0.901093  p :     2.630490
      px      :     0.724719
      py      :     1.004679
      dz2     :     0.034455  d :     0.158273
      dxz     :     0.030543
      dyz     :     0.017614
      dx2y2   :     0.047813
      dxy     :     0.027848
      f0      :     0.001061  f :     0.011797
      f+1     :     0.002102
      f-1     :     0.000945
      f+2     :     0.002030
      f-2     :     0.001990
      f+3     :     0.001732
      f-3     :     0.001938
  2 O s       :     3.730619  s :     3.730619
      pz      :     1.567396  p :     4.583584
      px      :     1.235920
      py      :     1.780268
      dz2     :     0.004602  d :     0.033768
      dxz     :     0.015904
      dyz     :     0.003668
      dx2y2   :     0.005231
      dxy     :     0.004363
      f0      :     0.000154  f :     0.002261
      f+1     :     0.000265
      f-1     :     0.000031
      f+2     :     0.000547
      f-2     :     0.000317
      f+3     :     0.000440
      f-3     :     0.000507
  3 C s       :     3.038241  s :     3.038241
      pz      :     0.715906  p :     2.195256
      px      :     0.705466
      py      :     0.773884
      dz2     :     0.028651  d :     0.286010
      dxz     :     0.081742
      dyz     :     0.027076
      dx2y2   :     0.079956
      dxy     :     0.068585
      f0      :     0.002272  f :     0.026277
      f+1     :     0.003402
      f-1     :     0.001661
      f+2     :     0.002805
      f-2     :     0.005119
      f+3     :     0.006906
      f-3     :     0.004113
  4 O s       :     3.769017  s :     3.769017
      pz      :     1.575033  p :     4.567858
      px      :     1.474380
      py      :     1.518445
      dz2     :     0.004041  d :     0.035797
      dxz     :     0.007597
      dyz     :     0.003065
      dx2y2   :     0.009587
      dxy     :     0.011507
      f0      :     0.000244  f :     0.002463
      f+1     :     0.000308
      f-1     :     0.000144
      f+2     :     0.000095
      f-2     :     0.000351
      f+3     :     0.000607
      f-3     :     0.000715
  5 C s       :     3.185921  s :     3.185921
      pz      :     0.941194  p :     2.964483
      px      :     1.090438
      py      :     0.932852
      dz2     :     0.016568  d :     0.088093
      dxz     :     0.013661
      dyz     :     0.026055
      dx2y2   :     0.016745
      dxy     :     0.015064
      f0      :     0.000842  f :     0.010352
      f+1     :     0.001267
      f-1     :     0.001763
      f+2     :     0.002162
      f-2     :     0.001160
      f+3     :     0.001373
      f-3     :     0.001785
  6 C s       :     3.175906  s :     3.175906
      pz      :     0.848009  p :     2.461822
      px      :     0.852243
      py      :     0.761570
      dz2     :     0.033796  d :     0.175655
      dxz     :     0.019183
      dyz     :     0.048485
      dx2y2   :     0.029423
      dxy     :     0.044769
      f0      :     0.001724  f :     0.014335
      f+1     :     0.001083
      f-1     :     0.003111
      f+2     :     0.002523
      f-2     :     0.002219
      f+3     :     0.001848
      f-3     :     0.001827
  7 C s       :     3.295863  s :     3.295863
      pz      :     0.910559  p :     2.968375
      px      :     0.997482
      py      :     1.060334
      dz2     :     0.017390  d :     0.072827
      dxz     :     0.011315
      dyz     :     0.017176
      dx2y2   :     0.017607
      dxy     :     0.009339
      f0      :     0.000662  f :     0.004708
      f+1     :     0.001011
      f-1     :     0.001010
      f+2     :     0.000713
      f-2     :     0.000360
      f+3     :     0.000856
      f-3     :     0.000096
  8 N s       :     3.352255  s :     3.352255
      pz      :     1.203659  p :     3.719856
      px      :     1.413626
      py      :     1.102571
      dz2     :     0.014005  d :     0.058944
      dxz     :     0.009339
      dyz     :     0.015328
      dx2y2   :     0.009008
      dxy     :     0.011263
      f0      :     0.000628  f :     0.004977
      f+1     :     0.000971
      f-1     :     0.000727
      f+2     :     0.000977
      f-2     :     0.000858
      f+3     :     0.000450
      f-3     :     0.000366
  9 C s       :     3.163300  s :     3.163300
      pz      :     0.766905  p :     2.350821
      px      :     0.701320
      py      :     0.882596
      dz2     :     0.064078  d :     0.262333
      dxz     :     0.034649
      dyz     :     0.052617
      dx2y2   :     0.051206
      dxy     :     0.059784
      f0      :     0.002884  f :     0.017590
      f+1     :     0.002273
      f-1     :     0.002571
      f+2     :     0.002668
      f-2     :     0.002269
      f+3     :     0.002253
      f-3     :     0.002671
 10 S s       :     5.854642  s :     5.854642
      pz      :     3.537382  p :    10.492741
      px      :     3.712832
      py      :     3.242528
      dz2     :     0.008720  d :     0.084806
      dxz     :     0.004155
      dyz     :     0.038108
      dx2y2   :     0.019870
      dxy     :     0.013953
      f0      :     0.001214  f :     0.010132
      f+1     :     0.000062
      f-1     :     0.001882
      f+2     :     0.003237
      f-2     :     0.001189
      f+3     :     0.001296
      f-3     :     0.001251
 11 N s       :     3.384254  s :     3.384254
      pz      :     1.313085  p :     3.770848
      px      :     1.414767
      py      :     1.042996
      dz2     :     0.008911  d :     0.057868
      dxz     :     0.007680
      dyz     :     0.014100
      dx2y2   :     0.012801
      dxy     :     0.014377
      f0      :     0.000354  f :     0.004419
      f+1     :     0.000592
      f-1     :     0.000544
      f+2     :     0.000655
      f-2     :     0.000696
      f+3     :     0.000816
      f-3     :     0.000761
 12 C s       :     3.107127  s :     3.107127
      pz      :     0.855147  p :     2.633684
      px      :     1.016383
      py      :     0.762154
      dz2     :     0.035096  d :     0.185829
      dxz     :     0.030581
      dyz     :     0.041723
      dx2y2   :     0.044129
      dxy     :     0.034299
      f0      :     0.001181  f :     0.011374
      f+1     :     0.001132
      f-1     :     0.002034
      f+2     :     0.002592
      f-2     :     0.001661
      f+3     :     0.001571
      f-3     :     0.001204
 13 C s       :     3.102049  s :     3.102049
      pz      :     0.921936  p :     2.753530
      px      :     0.906916
      py      :     0.924678
      dz2     :     0.019718  d :     0.108877
      dxz     :     0.010003
      dyz     :     0.031695
      dx2y2   :     0.023726
      dxy     :     0.023734
      f0      :     0.001189  f :     0.011207
      f+1     :     0.001582
      f-1     :     0.001154
[...]
      f-1     :     0.006262
      f+2     :     0.005850
      f-2     :     0.006105
      f+3     :     0.005758
      f-3     :     0.009159
 15 C s       :     2.706024  s :     2.706024
      pz      :     0.912677  p :     2.793722
      px      :     0.914834
      py      :     0.966211
      dz2     :     0.102841  d :     0.415371
      dxz     :     0.066029
      dyz     :     0.068289
      dx2y2   :     0.086178
      dxy     :     0.092034
      f0      :     0.003654  f :     0.040987
      f+1     :     0.005420
      f-1     :     0.006760
      f+2     :     0.006617
      f-2     :     0.007139
      f+3     :     0.005882
      f-3     :     0.005514
 16 C s       :     2.702122  s :     2.702122
      pz      :     0.944604  p :     2.867624
      px      :     0.957482
      py      :     0.965539
      dz2     :     0.052647  d :     0.390157
      dxz     :     0.055281
      dyz     :     0.096491
      dx2y2   :     0.088948
      dxy     :     0.096789
      f0      :     0.005282  f :     0.040241
      f+1     :     0.005116
      f-1     :     0.003452
      f+2     :     0.005169
      f-2     :     0.006751
      f+3     :     0.006594
      f-3     :     0.007876
 17 C s       :     2.701888  s :     2.701888
      pz      :     0.838291  p :     2.683236
      px      :     0.818869
      py      :     1.026076
      dz2     :     0.139533  d :     0.708254
      dxz     :     0.116626
      dyz     :     0.144186
      dx2y2   :     0.157983
      dxy     :     0.149926
      f0      :     0.012232  f :     0.099208
      f+1     :     0.016076
      f-1     :     0.009974
      f+2     :     0.014351
      f-2     :     0.017778
      f+3     :     0.012128
      f-3     :     0.016668
 18 O s       :     3.177369  s :     3.177369
      pz      :     1.403749  p :     4.347590
      px      :     1.468622
      py      :     1.475219
      dz2     :     0.010074  d :     0.075540
      dxz     :     0.018380
      dyz     :     0.019393
      dx2y2   :     0.017416
      dxy     :     0.010278
      f0      :     0.000662  f :     0.005069
      f+1     :     0.000815
      f-1     :     0.000364
      f+2     :     0.000978
      f-2     :     0.000933
      f+3     :     0.000542
      f-3     :     0.000775
 19 C s       :     2.695788  s :     2.695788
      pz      :     0.941462  p :     2.848427
      px      :     0.943516
      py      :     0.963449
      dz2     :     0.083178  d :     0.388049
      dxz     :     0.063193
      dyz     :     0.072663
      dx2y2   :     0.077428
      dxy     :     0.091588
      f0      :     0.003633  f :     0.040752
      f+1     :     0.005526
      f-1     :     0.006366
      f+2     :     0.006838
      f-2     :     0.007486
      f+3     :     0.005789
      f-3     :     0.005114
 20 H s       :     0.844666  s :     0.844666
      pz      :     0.045780  p :     0.150762
      px      :     0.062413
      py      :     0.042569
      dz2     :     0.005269  d :     0.027404
      dxz     :     0.006714
      dyz     :     0.002137
      dx2y2   :     0.006982
      dxy     :     0.006302
 21 H s       :     0.845584  s :     0.845584
      pz      :     0.071162  p :     0.150655
      px      :     0.037816
      py      :     0.041677
      dz2     :     0.009207  d :     0.027473
      dxz     :     0.008685
      dyz     :     0.007924
      dx2y2   :     0.001172
      dxy     :     0.000486
 22 H s       :     0.851997  s :     0.851997
      pz      :     0.039951  p :     0.153257
      px      :     0.038948
      py      :     0.074358
      dz2     :     0.002378  d :     0.027779
      dxz     :     0.000043
      dyz     :     0.009235
      dx2y2   :     0.006915
      dxy     :     0.009208
 23 H s       :     0.854430  s :     0.854430
      pz      :     0.076541  p :     0.152024
      px      :     0.030137
      py      :     0.045346
      dz2     :     0.010140  d :     0.027392
      dxz     :     0.006970
      dyz     :     0.007920
      dx2y2   :     0.001681
      dxy     :     0.000680
 24 H s       :     0.854460  s :     0.854460
      pz      :     0.035958  p :     0.145043
      px      :     0.028674
      py      :     0.080411
      dz2     :     0.002532  d :     0.026854
      dxz     :     0.000186
      dyz     :     0.009066
      dx2y2   :     0.007773
      dxy     :     0.007298
 25 H s       :     0.828240  s :     0.828240
      pz      :     0.055480  p :     0.153516
      px      :     0.039669
      py      :     0.058368
      dz2     :     0.007727  d :     0.027877
      dxz     :     0.004934
      dyz     :     0.006926
      dx2y2   :     0.004353
      dxy     :     0.003938
 26 H s       :     0.834083  s :     0.834083
      pz      :     0.039937  p :     0.150779
      px      :     0.044109
      py      :     0.066732
      dz2     :     0.003382  d :     0.027759
      dxz     :     0.001996
      dyz     :     0.007794
      dx2y2   :     0.007993
      dxy     :     0.006594
 27 H s       :     0.836016  s :     0.836016
      pz      :     0.038081  p :     0.154704
      px      :     0.074118
      py      :     0.042505
      dz2     :     0.002358  d :     0.027862
      dxz     :     0.008617
      dyz     :     0.000391
      dx2y2   :     0.006909
      dxy     :     0.009588
 28 H s       :     0.741953  s :     0.741953
      pz      :     0.058553  p :     0.252793
      px      :     0.087147
      py      :     0.107092
      dz2     :     0.006924  d :     0.061718
      dxz     :     0.003645
      dyz     :     0.015665
      dx2y2   :     0.017313
      dxy     :     0.018171
 29 H s       :     0.747922  s :     0.747922
      pz      :     0.114403  p :     0.254385
      px      :     0.096228
      py      :     0.043754
      dz2     :     0.021945  d :     0.061328
      dxz     :     0.016014
      dyz     :     0.010518
      dx2y2   :     0.007523
      dxy     :     0.005328
 30 H s       :     0.821778  s :     0.821778
      pz      :     0.043220  p :     0.154149
      px      :     0.074036
      py      :     0.036893
      dz2     :     0.003442  d :     0.029185
      dxz     :     0.008778
      dyz     :     0.002049
      dx2y2   :     0.008056
      dxy     :     0.006861
 31 H s       :     0.837555  s :     0.837555
      pz      :     0.059548  p :     0.156630
      px      :     0.063611
      py      :     0.033471
      dz2     :     0.006261  d :     0.027393
      dxz     :     0.007356
      dyz     :     0.004023
      dx2y2   :     0.004750
      dxy     :     0.005003
 32 H s       :     0.841678  s :     0.841678
      pz      :     0.035967  p :     0.150926
      px      :     0.043887
      py      :     0.071072
      dz2     :     0.002649  d :     0.026424
      dxz     :     0.001495
      dyz     :     0.006573
      dx2y2   :     0.007906
      dxy     :     0.007801
 33 H s       :     0.848315  s :     0.848315
      pz      :     0.056550  p :     0.158932
      px      :     0.043984
      py      :     0.058397
      dz2     :     0.006105  d :     0.027741
      dxz     :     0.003938
      dyz     :     0.006895
      dx2y2   :     0.005478
      dxy     :     0.005326
 34 H s       :     0.706265  s :     0.706265
      pz      :     0.106494  p :     0.347591
      px      :     0.084568
      py      :     0.156529
      dz2     :     0.021795  d :     0.099495
      dxz     :     0.010187
      dyz     :     0.025178
      dx2y2   :     0.020506
      dxy     :     0.021829
 35 H s       :     0.837996  s :     0.837996
      pz      :     0.039052  p :     0.157539
      px      :     0.046242
      py      :     0.072245
      dz2     :     0.002627  d :     0.027920
      dxz     :     0.001678
      dyz     :     0.007118
      dx2y2   :     0.008299
      dxy     :     0.008198


                      *****************************
                      * MAYER POPULATION ANALYSIS *
                      *****************************

  NA   - Mulliken gross atomic population
  ZA   - Total nuclear charge
  QA   - Mulliken gross atomic charge
  VA   - Mayer's total valence
  BVA  - Mayer's bonded valence
  FA   - Mayer's free valence

  ATOM       NA         ZA         QA         VA         BVA        FA
  0 C      6.2781     6.0000    -0.2781     3.8944     3.8944    -0.0000
  1 C      5.9763     6.0000     0.0237     3.8690     3.8690    -0.0000
  2 O      8.3502     8.0000    -0.3502     2.0037     2.0037    -0.0000
  3 C      5.5458     6.0000     0.4542     4.2223     4.2223    -0.0000
  4 O      8.3751     8.0000    -0.3751     2.1351     2.1351    -0.0000
  5 C      6.2488     6.0000    -0.2488     3.5981     3.5981     0.0000
  6 C      5.8277     6.0000     0.1723     3.8355     3.8355     0.0000
  7 C      6.3418     6.0000    -0.3418     3.8768     3.8768    -0.0000
  8 N      7.1360     7.0000    -0.1360     3.2700     3.2700     0.0000
  9 C      5.7940     6.0000     0.2060     4.1532     4.1532    -0.0000
 10 S     16.4423    16.0000    -0.4423     1.7533     1.7533    -0.0000
 11 N      7.2174     7.0000    -0.2174     3.2516     3.2516     0.0000
 12 C      5.9380     6.0000     0.0620     3.9276     3.9276     0.0000
 13 C      5.9757     6.0000     0.0243     3.7573     3.7573     0.0000
 14 C      6.2068     6.0000    -0.2068     3.8710     3.8710     0.0000
 15 C      6.1292     6.0000    -0.1292     3.8028     3.8028     0.0000
 16 C      6.2767     6.0000    -0.2767     3.7953     3.7953     0.0000
 17 C      5.6857     6.0000     0.3143     3.8618     3.8618    -0.0000
 18 O      8.3568     8.0000    -0.3568     2.1176     2.1176    -0.0000
 19 C      6.2562     6.0000    -0.2562     3.8335     3.8335     0.0000
 20 H      0.8973     1.0000     0.1027     0.9831     0.9831    -0.0000
 21 H      0.8936     1.0000     0.1064     0.9844     0.9844    -0.0000
 22 H      0.9116     1.0000     0.0884     0.9783     0.9783     0.0000
 23 H      0.8993     1.0000     0.1007     0.9695     0.9695    -0.0000
 24 H      0.8833     1.0000     0.1167     0.9747     0.9747    -0.0000
 25 H      0.8574     1.0000     0.1426     0.9852     0.9852    -0.0000
 26 H      0.8673     1.0000     0.1327     0.9819     0.9819     0.0000
 27 H      0.8763     1.0000     0.1237     0.9684     0.9684     0.0000
 28 H      0.8012     1.0000     0.1988     1.0200     1.0200    -0.0000
 29 H      0.7992     1.0000     0.2008     1.0140     1.0140     0.0000
 30 H      0.8364     1.0000     0.1636     0.9931     0.9931     0.0000
 31 H      0.8266     1.0000     0.1734     0.9849     0.9849     0.0000
 32 H      0.8361     1.0000     0.1639     0.9762     0.9762    -0.0000
 33 H      0.8687     1.0000     0.1313     0.9914     0.9914    -0.0000
 34 H      0.7588     1.0000     0.2412     1.0102     1.0102    -0.0000
 35 H      0.8281     1.0000     0.1719     0.9877     0.9877     0.0000

  Mayer bond orders larger than 0.100000
B(  0-C ,  1-C ) :   0.9784 B(  0-C , 20-H ) :   0.9769 B(  0-C , 21-H ) :   0.9768 
B(  0-C , 22-H ) :   0.9778 B(  1-C ,  2-O ) :   0.9036 B(  1-C , 23-H ) :   0.9581 
B(  1-C , 24-H ) :   0.9815 B(  2-O ,  3-C ) :   1.1195 B(  3-C ,  4-O ) :   2.0938 
B(  3-C ,  5-C ) :   0.9429 B(  5-C ,  6-C ) :   1.6986 B(  5-C , 12-C ) :   0.9453 
B(  6-C ,  7-C ) :   0.9436 B(  6-C ,  8-N ) :   1.1170 B(  7-C , 25-H ) :   0.9705 
B(  7-C , 26-H ) :   0.9772 B(  7-C , 27-H ) :   0.9663 B(  8-N ,  9-C ) :   1.1941 
B(  8-N , 28-H ) :   0.9504 B(  9-C , 10-S ) :   1.6111 B(  9-C , 11-N ) :   1.2943 
B( 11-N , 12-C ) :   0.9874 B( 11-N , 29-H ) :   0.9485 B( 12-C , 13-C ) :   0.9684 
B( 12-C , 30-H ) :   0.9920 B( 13-C , 14-C ) :   1.3860 B( 13-C , 19-C ) :   1.3540 
B( 14-C , 15-C ) :   1.3939 B( 14-C , 31-H ) :   0.9595 B( 15-C , 16-C ) :   1.3618 
B( 15-C , 32-H ) :   0.9701 B( 16-C , 17-C ) :   1.3313 B( 16-C , 33-H ) :   0.9849 
B( 17-C , 18-O ) :   1.1083 B( 17-C , 19-C ) :   1.3640 B( 18-O , 34-H ) :   0.9795 
B( 19-C , 35-H ) :   0.9576 

-------
TIMINGS
-------

Total SCF time: 0 days 1 hours 31 min 29 sec 

Total time                  ....    5489.194 sec
Sum of individual times     ....    5481.518 sec  ( 99.9%)

Fock matrix formation       ....    5459.075 sec  ( 99.5%)
Diagonalization             ....       4.464 sec  (  0.1%)
Density matrix formation    ....       0.189 sec  (  0.0%)
Population analysis         ....       0.558 sec  (  0.0%)
Initial guess               ....       5.560 sec  (  0.1%)
Orbital Transformation      ....       0.000 sec  (  0.0%)
Orbital Orthonormalization  ....       0.000 sec  (  0.0%)
DIIS solution               ....       4.400 sec  (  0.1%)
SOSCF solution              ....       6.149 sec  (  0.1%)

------------------------------------------------------------------------------
                                ORCA  MP2 
------------------------------------------------------------------------------

Freezing NCore=48 chemical core electrons

-------------
RI-MP2 ENERGY
-------------
Dimension of the basis                    ...  828
Memory devoted to MP2                     ...  256 MB   
Data format for buffers                   ... DOUBLE
Compression type for matrix containers    ... UNCOMPRESSED
Overall scaling of the MP2 energy         ...   1.000e+00
Calculating two index integrals           ... done (    0.033 sec)
Cholesky decomposition of V**-1           ... done (    1.976 sec)

-----------------
RI-TRANSFORMATION (AUX index driven)
-----------------

Dimension of the orbital-basis         ... 828
Dimension of the aux-basis             ... 2141
Transformation of internal/external MOs...   24-  76 to   77- 827
Number Format for Storage              ... Double (8 Byte)
Integral mode                          ... Direct

First Phase: integral generation and transformation of MO indices
  Aux angular momentum 0               ... done (   12.120 sec)
  Aux angular momentum 1               ... done (   19.719 sec)
  Aux angular momentum 2               ... done (   25.131 sec)
  Aux angular momentum 3               ... done (   20.252 sec)
  Aux angular momentum 4               ... done (    7.345 sec)
Closing buffer VIA ( 0.63 GB; CompressionRatio= 1.00)
  Phase 1 completed in    84.994 sec
Second Phase: sorting and transformation of aux index

IA-Transformation
Memory available                       ... 167 MB 
Max. # MO pairs treated in a batch     ... 12    
# of internal orbitals                 ... 53
# batches for internal orbitals        ... 5
Closing buffer IAV ( 0.63 GB; CompressionRatio= 1.00)
(ia|v) transformation done in    89.072 sec

  Phase 2 completed in    89.146 sec
RI-Integral transformation completed in   174.173 sec
Opening buffers                              ... done

Starting loop over batches of integrals:

Operator 0  - window                       ... ( 24- 76)x( 77-827)
Operator 0  - Memory available             ...   256 MB
Operator 0  - Memory needed per MO         ...  12.3 MB
Operator 0  - Number of orbitals per batch ... 13
Operator 0  - Number of batches            ... 5

OPERATOR  0   PASS   0:  MOs    24 ...   36
  Reading integrals       ... ok
  Internal MO  26
  Internal MO  29
  Internal MO  32
  Internal MO  35
OPERATOR  0   PASS   1:  MOs    37 ...   49
  Reading integrals       ... ok
  Internal MO  38
  Internal MO  41
  Internal MO  44
  Internal MO  47
OPERATOR  0   PASS   2:  MOs    50 ...   62
  Reading integrals       ... ok
  Internal MO  50
  Internal MO  53
  Internal MO  56
  Internal MO  59
  Internal MO  62
OPERATOR  0   PASS   3:  MOs    63 ...   75
  Reading integrals       ... ok
  Internal MO  65
  Internal MO  68
  Internal MO  71
  Internal MO  74
OPERATOR  0   PASS   4:  MOs    76 ...   76
  Reading integrals       ... ok
Time spent in pair loops =   604.472 sec
Deleting buffer (Ka|jb)[aa] ...done

-----------------------------------------------
 RI-MP2 CORRELATION ENERGY:     -3.531894602 Eh
-----------------------------------------------


-------
TIMINGS
-------

Total time                :  780.786 sec
Integral trafo            :  174.195 sec ( 22.3%)
I/O of integrals          :    6.311 sec (  0.8%)
K(i,j) Operators          :  492.114 sec ( 63.0%)
T(i,j) pair energies      :    3.913 sec (  0.5%)
V-calculation             :    0.033 sec (  0.0%)
V**(-1/2)                 :    1.976 sec (  0.3%)
Gamma(ia|P)               :    0.000 sec (  0.0%)
Gamma-Trafo               :    0.000 sec (  0.0%)
D(virtual)                :    0.000 sec (  0.0%)
D(internal)               :    0.000 sec (  0.0%)
W(virtual)                :    0.000 sec (  0.0%)
W(internal)               :    0.000 sec (  0.0%)
L(virtual)                :    0.000 sec (  0.0%)
L(internal)               :    0.000 sec (  0.0%)
G(D)                      :    0.000 sec (  0.0%)
G(Z)                      :    0.000 sec (  0.0%)
Z-Vector Solution         :    0.000 sec (  0.0%)
3-Index Derivative        :    0.000 sec (  0.0%)
2-Index Derivative        :    0.000 sec (  0.0%)
Separable Gradient        :    0.000 sec (  0.0%)


---------------------------------------
MP2 TOTAL ENERGY:    -1274.328721931 Eh
---------------------------------------

-------------------------   --------------------
FINAL SINGLE POINT ENERGY     -1274.328721930837
-------------------------   --------------------


                            ***************************************
                            *     ORCA property calculations      *
                            ***************************************


  WARNING: The energy has been calculated at the MP2 level but the densities
           used in the property calculations are still SCF densities
           MP2 response densities have not been calculated 
           use %mp2 Density relaxed end
           or  %mp2 Density unrelaxed end

                                    ---------------------
                                    Active property flags
                                    ---------------------
   (+) Dipole Moment


------------------------------------------------------------------------------
                       ORCA ELECTRIC PROPERTIES CALCULATION
------------------------------------------------------------------------------

Dipole Moment Calculation                       ... on
Quadrupole Moment Calculation                   ... off
Polarizability Calculation                      ... off
GBWName                                         ... CONFS/Conf848.orca.gbw
Electron density file                           ... CONFS/Conf848.orca.scfp
The origin for moment calculation is the CENTER OF MASS  = (31.886880, 32.886158 33.435886)

-------------
DIPOLE MOMENT
-------------
                                X             Y             Z
Electronic contribution:     10.91154       6.43373       8.73969
Nuclear contribution   :    -12.40715      -7.71839      -9.08843
                        -----------------------------------------
Total Dipole Moment    :     -1.49561      -1.28466      -0.34874
                        -----------------------------------------
Magnitude (a.u.)       :      2.00220
Magnitude (Debye)      :      5.08919



--------------------
Rotational spectrum 
--------------------
 
Rotational constants in cm-1:     0.010557     0.009173     0.006312 
Rotational constants in MHz :   316.504574   275.000605   189.219785 

 Dipole components along the rotational axes: 
x,y,z [a.u.] :    -1.210359    -1.205466     1.044365 
x,y,z [Debye]:    -3.076488    -3.064051     2.654564 

 

Timings for individual modules:

Sum of individual times         ...     6271.965 sec (= 104.533 min)
GTO integral calculation        ...        1.431 sec (=   0.024 min)   0.0 %
SCF iterations                  ...     5489.240 sec (=  91.487 min)  87.5 %
MP2 module                      ...      781.293 sec (=  13.022 min)  12.5 %
                             ****ORCA TERMINATED NORMALLY****
TOTAL RUN TIME: 0 days 1 hours 44 minutes 32 seconds 862 msec
