
                                 *****************
                                 * O   R   C   A *
                                 *****************

           --- An Ab Initio, DFT and Semiempirical electronic structure package ---

                  #######################################################
                  #                        -***-                        #
                  #          Department of theory and spectroscopy      #
                  #               Directorship: Frank Neese             #
                  #        Max Planck Institute fuer Kohlenforschung    #
                  #                Kaiser Wilhelm Platz 1               #
                  #                 D-45470 Muelheim/Ruhr               #
                  #                      Germany                        #
                  #                                                     #
                  #                  All rights reserved                #
                  #                        -***-                        #
                  #######################################################


                         Program Version 4.2.0 -  RELEASE  -


 With contributions from (in alphabetic order):
   Daniel Aravena         : Magnetic Suceptibility
   Michael Atanasov       : Ab Initio Ligand Field Theory (pilot matlab implementation)
   Alexander A. Auer      : GIAO ZORA, VPT2
   Ute Becker             : Parallelization
   Giovanni Bistoni       : ED, misc. LED, open-shell LED, HFLED
   Martin Brehm           : Molecular dynamics
   Dmytro Bykov           : SCF Hessian
   Vijay G. Chilkuri      : MRCI spin determinant printing, contributions to CSF-ICE
   Dipayan Datta          : RHF DLPNO-CCSD density
   Achintya Kumar Dutta   : EOM-CC, STEOM-CC
   Dmitry Ganyushin       : Spin-Orbit,Spin-Spin,Magnetic field MRCI
   Miquel Garcia          : C-PCM Hessian, Gaussian charge scheme
   Yang Guo               : DLPNO-NEVPT2, CIM, IAO-localization
   Andreas Hansen         : Spin unrestricted coupled pair/coupled cluster methods
   Benjamin Helmich-Paris : CASSCF linear response (MC-RPA)
   Lee Huntington         : MR-EOM, pCC
   Robert Izsak           : Overlap fitted RIJCOSX, COSX-SCS-MP3, EOM
   Christian Kollmar      : KDIIS, OOCD, Brueckner-CCSD(T), CCSD density
   Simone Kossmann        : Meta GGA functionals, TD-DFT gradient, OOMP2, MP2 Hessian
   Martin Krupicka        : AUTO-CI
   Lucas Lang             : DCDCAS
   Dagmar Lenk            : GEPOL surface, SMD
   Dimitrios Liakos       : Extrapolation schemes; Compound Job, initial MDCI parallelization
   Dimitrios Manganas     : Further ROCIS development; embedding schemes
   Dimitrios Pantazis     : SARC Basis sets
   Taras Petrenko         : DFT Hessian,TD-DFT gradient, ASA, ECA, R-Raman, ABS, FL, XAS/XES, NRVS
   Peter Pinski           : DLPNO-MP2, DLPNO-MP2 Gradient
   Christoph Reimann      : Effective Core Potentials
   Marius Retegan         : Local ZFS, SOC
   Christoph Riplinger    : Optimizer, TS searches, QM/MM, DLPNO-CCSD(T), (RO)-DLPNO pert. Triples
   Tobias Risthaus        : Range-separated hybrids, TD-DFT gradient, RPA, STAB
   Michael Roemelt        : Original ROCIS implementation
   Masaaki Saitow         : Open-shell DLPNO-CCSD energy and density
   Barbara Sandhoefer     : DKH picture change effects
   Avijit Sen             : IP-ROCIS
   Kantharuban Sivalingam : CASSCF convergence, NEVPT2, FIC-MRCI
   Bernardo de Souza      : ESD, SOC TD-DFT
   Georgi Stoychev        : AutoAux, RI-MP2 NMR
   Willem Van den Heuvel  : Paramagnetic NMR
   Boris Wezisla          : Elementary symmetry handling
   Frank Wennmohs         : Technical directorship


 We gratefully acknowledge several colleagues who have allowed us to
 interface, adapt or use parts of their codes:
   Stefan Grimme, W. Hujo, H. Kruse,             : VdW corrections, initial TS optimization,
                  C. Bannwarth                     DFT functionals, gCP, sTDA/sTD-DF
   Ed Valeev, F. Pavosevic, A. Kumar             : LibInt (2-el integral package), F12 methods
   Garnet Chan, S. Sharma, J. Yang, R. Olivares  : DMRG
   Ulf Ekstrom                                   : XCFun DFT Library
   Mihaly Kallay                                 : mrcc  (arbitrary order and MRCC methods)
   Andreas Klamt, Michael Diedenhofen            : otool_cosmo (COSMO solvation model)
   Jiri Pittner, Ondrej Demel                    : Mk-CCSD
   Frank Weinhold                                : gennbo (NPA and NBO analysis)
   Christopher J. Cramer and Donald G. Truhlar   : smd solvation model
   Lars Goerigk                                  : TD-DFT with DH, B97 family of functionals
   V. Asgeirsson, H. Jonsson                     : NEB implementation
   FAccTs GmbH                                   : IRC, NEB, NEB-TS, Multilevel, MM, QM/MM, CI optimization
   S Lehtola, MJT Oliveira, MAL Marques          : LibXC Library


 Your calculation uses the libint2 library for the computation of 2-el integrals
 For citations please refer to: http://libint.valeyev.net

 Your ORCA version has been built with support for libXC version: 4.2.3
 For citations please refer to: https://tddft.org/programs/libxc/

 This ORCA versions uses:
   CBLAS   interface :  Fast vector & matrix operations
   LAPACKE interface :  Fast linear algebra routines
   SCALAPACK package :  Parallel linear algebra routines


----- Orbital basis set information -----
Your calculation utilizes the basis: cc-pVTZ 
       H, B-Ne : Obtained from the ccRepo (grant-hill.group.shef.ac.uk/ccrepo) Feb. 2017
                 T. H. Dunning, Jr., J. Chem. Phys. 90, 1007 (1989)
            He : Obtained from the ccRepo (grant-hill.group.shef.ac.uk/ccrepo) Feb. 2017
                 D. E. Woon, T. H. Dunning, Jr., J. Chem. Phys. 100, 2975 (1994)
  Li-Be, Na-Mg : Obtained from the ccRepo (grant-hill.group.shef.ac.uk/ccrepo) Feb. 2017
                 B. P. Prascher, D. E. Woon, K. A. Peterson, T. H. Dunning, Jr., A. K. Wilson, Theor. Chem. Acc. 128, 69 (2011)
         Al-Ar : Obtained from the ccRepo (grant-hill.group.shef.ac.uk/ccrepo) Feb. 2017
                 D. E. Woon, T. H. Dunning, Jr., J. Chem. Phys. 98, 1358 (1993)
            Ca : Obtained from the Peterson Research Group Website (tyr0.chem.wsu.edu/~kipeters) Feb. 2017
                 J. Koput, K. A. Peterson, J. Phys. Chem. 106, 9595 (2002)
         Sc-Zn : Obtained from the ccRepo (grant-hill.group.shef.ac.uk/ccrepo) Feb. 2017
                 N. B. Balabanov, K. A. Peterson, J. Chem. Phys. 123, 064107 (2005)
                 N. B. Balabanov, K. A. Peterson, J. Chem. Phys. 125, 074110 (2006)
         Ga-Kr : Obtained from the ccRepo (grant-hill.group.shef.ac.uk/ccrepo) Feb. 2017
                 A. K. Wilson, D. E. Woon, K. A. Peterson, T. H. Dunning, Jr., J. Chem. Phys. 110, 7667 (1999)
             Y : Obtained from the ccRepo (grant-hill.group.shef.ac.uk/ccrepo) Feb. 2017
                 K. A. Peterson, D. Figgen, M. Dolg, H. Stoll, J. Chem. Phys. 126, 124101 (2007)
        Ag, Au : Obtained from the Peterson Research Group Website (tyr0.chem.wsu.edu/~kipeters) Feb. 2017
                 K. A. Peterson, C. Puzzarini, Theor. Chem. Acc. 114, 283 (2005)

----- AuxC basis set information -----
Your calculation utilizes the auxiliary basis: cc-pVTZ/C 
  Obtained from the EMSL Basis Set Exchange (bse.pnl.gov) Feb. 2017
  H-He, B-F, Al-Ar, Ga-Kr : F. Weigend, A. Kohn, C. Hattig, J. Chem. Phys. 116, 3175 (2002)
             Li-Be, Na-Mg : C. Haettig, Phys. Chem. Chem. Phys. 7, 59 (2005)
                       Ne : C. Haettig, Phys. Chem. Chem. Phys. 7, 59 (2005)
                            F. Weigend, A. Kohn, C. Hattig, J. Chem. Phys. 116, 3175 (2002)
                    Sc-Zn : J. G. Hill, J. A. Platts, J. Chem. Phys. 128, 044104 (2008)

================================================================================
                                        WARNINGS
                       Please study these warnings very carefully!
================================================================================


WARNING: No MP2 level density has been requested!
         To caclulate MP2 level properties use
         %mp2 Density relaxed end
         or
         %mp2 Density unrelaxed end

WARNING: Post HF methods need fully converged wavefunctions
  ===> : Setting SCFConvForced true
         You can overwrite this default with %scf ConvForced false 


INFO   : the flag for use of LIBINT has been found!

================================================================================
                                       INPUT FILE
================================================================================
NAME = CONFS/Conf457.orca
|  1> ! ri-mp2 cc-pvtz cc-pvtz/c TightSCF NoKeepInts
|  2> 
|  3> %scf
|  4>   MaxCore 4096
|  5> end
|  6> *xyz  0  1
|  7>     C       14.5007275   15.8714588   15.9692817
|  8>     C       15.7395861   14.9523770   15.8466010
|  9>     O       16.9732164   15.6597870   15.5646102
| 10>     C       16.9759989   16.9716907   15.1935818
| 11>     O       16.7997139   17.2812759   14.0291864
| 12>     C       17.0931070   17.9332119   16.3483688
| 13>     C       16.9838121   19.2697893   16.1318960
| 14>     C       16.4046254   19.9556964   14.9117076
| 15>     N       17.4112865   20.1944031   17.0870136
| 16>     C       18.1674620   19.8781850   18.1823903
| 17>     S       18.7435105   21.0349906   19.2144138
| 18>     N       18.4446064   18.5476997   18.3670660
| 19>     C       17.8679045   17.4376505   17.5849942
| 20>     C       17.1517352   16.4262056   18.4689273
| 21>     C       17.6853744   15.1383475   18.6612386
| 22>     C       17.0290943   14.2105651   19.4875660
| 23>     C       15.8350290   14.5768548   20.1322040
| 24>     C       15.3110014   15.8648238   19.9550470
| 25>     O       14.1601595   16.2225991   20.5777122
| 26>     C       15.9675318   16.7864222   19.1336293
| 27>     H       14.6220884   16.6148431   16.7641023
| 28>     H       13.6137201   15.2729810   16.2097870
| 29>     H       14.3005369   16.3935851   15.0247815
| 30>     H       15.8539292   14.3703420   16.7694804
| 31>     H       15.5556707   14.2371543   15.0343673
| 32>     H       17.1125629   19.9133116   14.0737991
| 33>     H       16.1580867   21.0090598   15.0896723
| 34>     H       15.4822197   19.4583863   14.5859772
| 35>     H       17.2430614   21.1773181   16.9428580
| 36>     H       18.9851004   18.3424994   19.1980647
| 37>     H       18.7927879   17.0006064   17.1821839
| 38>     H       18.6065672   14.8527434   18.1596094
| 39>     H       17.4461945   13.2144135   19.6267196
| 40>     H       15.3244086   13.8635553   20.7710738
| 41>     H       13.8904242   15.4824229   21.1423143
| 42>     H       15.5541584   17.7827437   19.0157735
| 43> *
| 44> 
| 45>                          ****END OF INPUT****
================================================================================

                       ****************************
                       * Single Point Calculation *
                       ****************************

---------------------------------
CARTESIAN COORDINATES (ANGSTROEM)
---------------------------------
  C     14.500727   15.871459   15.969282
  C     15.739586   14.952377   15.846601
  O     16.973216   15.659787   15.564610
  C     16.975999   16.971691   15.193582
  O     16.799714   17.281276   14.029186
  C     17.093107   17.933212   16.348369
  C     16.983812   19.269789   16.131896
  C     16.404625   19.955696   14.911708
  N     17.411286   20.194403   17.087014
  C     18.167462   19.878185   18.182390
  S     18.743510   21.034991   19.214414
  N     18.444606   18.547700   18.367066
  C     17.867904   17.437650   17.584994
  C     17.151735   16.426206   18.468927
  C     17.685374   15.138347   18.661239
  C     17.029094   14.210565   19.487566
  C     15.835029   14.576855   20.132204
  C     15.311001   15.864824   19.955047
  O     14.160160   16.222599   20.577712
  C     15.967532   16.786422   19.133629
  H     14.622088   16.614843   16.764102
  H     13.613720   15.272981   16.209787
  H     14.300537   16.393585   15.024781
  H     15.853929   14.370342   16.769480
  H     15.555671   14.237154   15.034367
  H     17.112563   19.913312   14.073799
  H     16.158087   21.009060   15.089672
  H     15.482220   19.458386   14.585977
  H     17.243061   21.177318   16.942858
  H     18.985100   18.342499   19.198065
  H     18.792788   17.000606   17.182184
  H     18.606567   14.852743   18.159609
  H     17.446195   13.214413   19.626720
  H     15.324409   13.863555   20.771074
  H     13.890424   15.482423   21.142314
  H     15.554158   17.782744   19.015774

----------------------------
CARTESIAN COORDINATES (A.U.)
----------------------------
  NO LB      ZA    FRAG     MASS         X           Y           Z
   0 C     6.0000    0    12.011   27.402404   29.992710   30.177569
   1 C     6.0000    0    12.011   29.743507   28.255898   29.945736
   2 O     8.0000    0    15.999   32.074731   29.592709   29.412851
   3 C     6.0000    0    12.011   32.079989   32.071847   28.711709
   4 O     8.0000    0    15.999   31.746858   32.656879   26.511320
   5 C     6.0000    0    12.011   32.301291   33.888859   30.893940
   6 C     6.0000    0    12.011   32.094754   36.414624   30.484865
   7 C     6.0000    0    12.011   31.000249   37.710801   28.179044
   8 N     7.0000    0    14.007   32.902563   38.161891   32.289776
   9 C     6.0000    0    12.011   34.331528   37.564326   34.359738
  10 S    16.0000    0    32.060   35.420102   39.750371   36.309980
  11 N     7.0000    0    14.007   34.855255   35.050073   34.708725
  12 C     6.0000    0    12.011   33.765446   32.952384   33.230823
  13 C     6.0000    0    12.011   32.412082   31.041030   34.901215
  14 C     6.0000    0    12.011   33.420514   28.607331   35.264630
  15 C     6.0000    0    12.011   32.180325   26.854076   36.826163
  16 C     6.0000    0    12.011   29.923868   27.546263   38.044352
  17 C     6.0000    0    12.011   28.933599   29.980172   37.709574
  18 O     8.0000    0    15.999   26.758823   30.656269   38.886241
  19 C     6.0000    0    12.011   30.174262   31.721741   36.157319
  20 H     1.0000    0     1.008   27.631743   31.397503   31.679562
  21 H     1.0000    0     1.008   25.726203   28.861751   30.632058
  22 H     1.0000    0     1.008   27.024098   30.979386   28.392722
  23 H     1.0000    0     1.008   29.959584   27.156011   31.689725
  24 H     1.0000    0     1.008   29.395957   26.904323   28.410837
  25 H     1.0000    0     1.008   32.338057   37.630705   26.595626
  26 H     1.0000    0     1.008   30.534359   39.701369   28.515348
  27 H     1.0000    0     1.008   29.257155   36.771021   27.563502
  28 H     1.0000    0     1.008   32.584664   40.019331   32.017362
  29 H     1.0000    0     1.008   35.876640   34.662300   36.279085
  30 H     1.0000    0     1.008   35.513222   32.126490   32.469622
  31 H     1.0000    0     1.008   35.161316   28.067617   34.316688
  32 H     1.0000    0     1.008   32.968530   24.971623   37.089125
  33 H     1.0000    0     1.008   28.958935   26.198323   39.251641
  34 H     1.0000    0     1.008   26.249098   29.257539   39.953184
  35 H     1.0000    0     1.008   29.393100   33.604516   35.934604

--------------------------------
INTERNAL COORDINATES (ANGSTROEM)
--------------------------------
 C      0   0   0     0.000000000000     0.00000000     0.00000000
 C      1   0   0     1.547427717225     0.00000000     0.00000000
 O      2   1   0     1.449755647157   114.00701507     0.00000000
 C      3   2   1     1.363363903727   121.61468684   348.23572683
 O      4   3   2     1.217676494322   120.30378382   276.06159131
 C      4   3   2     1.507239310960   113.92313444    91.16301504
 C      6   4   3     1.358397951447   119.95647743   186.08284724
 C      7   6   4     1.514854948430   127.20273423    17.00910993
 N      7   6   4     1.396386290263   121.19016631   196.22729739
 C      9   7   6     1.368080914446   124.31948658    11.84637724
 S     10   9   7     1.653814855144   122.03808695   175.06828883
 N     10   9   7     1.371533909948   116.34148001   356.22683674
 C     12  10   9     1.475273062263   125.41857962   352.31121731
 C     13  12  10     1.522253913535   112.08812408   237.13801961
 C     14  13  12     1.407243020100   120.59853552   249.71508490
 C     15  14  13     1.405098118779   120.49947582   179.40222347
 C     16  15  14     1.405531300268   119.63323072   359.61218220
 C     17  16  15     1.401732382865   119.93962221   359.58608613
 O     18  17  16     1.356522095425   120.09839102   180.12696122
 C     18  17  16     1.398249911454   120.28679312     0.32320016
 H      1   2   3     1.095028982137   111.84066358   300.92306917
 H      1   2   3     1.096722665069   109.92421039   181.57541004
 H      1   2   3     1.097621418013   111.12031372    62.69546818
 H      2   1   3     1.097062200920   109.38169330   122.96051453
 H      2   1   3     1.097766809650   108.14960578   239.29122581
 H      8   7   6     1.097753446612   110.53433496   283.99049942
 H      8   7   6     1.096370018517   112.97033683   163.08105934
 H      8   7   6     1.097383207653   110.80986698    42.85845358
 H      9   7   6     1.007572537590   119.79983937   185.65668407
 H     12  10   9     1.012323943487   114.52271550   181.50664256
 H     13  12  10     1.099396646678    99.46750129   120.74719970
 H     15  14  13     1.087105206961   119.91451985   358.74715664
 H     16  15  14     1.088877546566   120.02049442   179.67802692
 H     17  16  15     1.085211495953   119.89726487   179.97722423
 H     19  18  17     0.969223127271   107.58246135     3.96825155
 H     20  18  17     1.085091742105   119.34848852   180.65593533

---------------------------
INTERNAL COORDINATES (A.U.)
---------------------------
 C      0   0   0     0.000000000000     0.00000000     0.00000000
 C      1   0   0     2.924214597595     0.00000000     0.00000000
 O      2   1   0     2.739641134232   114.00701507     0.00000000
 C      3   2   1     2.576384398918   121.61468684   348.23572683
 O      4   3   2     2.301075093983   120.30378382   276.06159131
 C      4   3   2     2.848269515995   113.92313444    91.16301504
 C      6   4   3     2.567000109115   119.95647743   186.08284724
 C      7   6   4     2.862660985147   127.20273423    17.00910993
 N      7   6   4     2.638787665760   121.19016631   196.22729739
 C      9   7   6     2.585298257347   124.31948658    11.84637724
 S     10   9   7     3.125257152433   122.03808695   175.06828883
 N     10   9   7     2.591823473188   116.34148001   356.22683674
 C     12  10   9     2.787862060429   125.41857962   352.31121731
 C     13  12  10     2.876643002872   112.08812408   237.13801961
 C     14  13  12     2.659303911861   120.59853552   249.71508490
 C     15  14  13     2.655250635780   120.49947582   179.40222347
 C     16  15  14     2.656069230162   119.63323072   359.61218220
 C     17  16  15     2.648890316663   119.93962221   359.58608613
 O     18  17  16     2.563455254967   120.09839102   180.12696122
 C     18  17  16     2.642309399427   120.28679312     0.32320016
 H      1   2   3     2.069304884945   111.84066358   300.92306917
 H      1   2   3     2.072505481844   109.92421039   181.57541004
 H      1   2   3     2.074203878770   111.12031372    62.69546818
 H      2   1   3     2.073147111615   109.38169330   122.96051453
 H      2   1   3     2.074478629146   108.14960578   239.29122581
 H      8   7   6     2.074453376666   110.53433496   283.99049942
 H      8   7   6     2.071839076440   112.97033683   163.08105934
 H      8   7   6     2.073753726428   110.80986698    42.85845358
 H      9   7   6     1.904036156106   119.79983937   185.65668407
 H     12  10   9     1.913015012002   114.52271550   181.50664256
 H     13  12  10     2.077558574772    99.46750129   120.74719970
 H     15  14  13     2.054331119916   119.91451985   358.74715664
 H     16  15  14     2.057680356386   120.02049442   179.67802692
 H     17  16  15     2.050752524734   119.89726487   179.97722423
 H     19  18  17     1.831566273205   107.58246135     3.96825155
 H     20  18  17     2.050526222757   119.34848852   180.65593533

---------------------
BASIS SET INFORMATION
---------------------
There are 5 groups of distinct atoms

 Group   1 Type C   : 18s5p2d1f contracted to 4s3p2d1f pattern {8811/311/11/1}
 Group   2 Type O   : 18s5p2d1f contracted to 4s3p2d1f pattern {8811/311/11/1}
 Group   3 Type N   : 18s5p2d1f contracted to 4s3p2d1f pattern {8811/311/11/1}
 Group   4 Type S   : 41s16p2d1f contracted to 5s4p2d1f pattern {13131311/7711/11/1}
 Group   5 Type H   : 5s2p1d contracted to 3s2p1d pattern {311/11/1}

Atom   0C    basis set group =>   1
Atom   1C    basis set group =>   1
Atom   2O    basis set group =>   2
Atom   3C    basis set group =>   1
Atom   4O    basis set group =>   2
Atom   5C    basis set group =>   1
Atom   6C    basis set group =>   1
Atom   7C    basis set group =>   1
Atom   8N    basis set group =>   3
Atom   9C    basis set group =>   1
Atom  10S    basis set group =>   4
Atom  11N    basis set group =>   3
Atom  12C    basis set group =>   1
Atom  13C    basis set group =>   1
Atom  14C    basis set group =>   1
Atom  15C    basis set group =>   1
Atom  16C    basis set group =>   1
Atom  17C    basis set group =>   1
Atom  18O    basis set group =>   2
Atom  19C    basis set group =>   1
Atom  20H    basis set group =>   5
Atom  21H    basis set group =>   5
Atom  22H    basis set group =>   5
Atom  23H    basis set group =>   5
Atom  24H    basis set group =>   5
Atom  25H    basis set group =>   5
Atom  26H    basis set group =>   5
Atom  27H    basis set group =>   5
Atom  28H    basis set group =>   5
Atom  29H    basis set group =>   5
Atom  30H    basis set group =>   5
Atom  31H    basis set group =>   5
Atom  32H    basis set group =>   5
Atom  33H    basis set group =>   5
Atom  34H    basis set group =>   5
Atom  35H    basis set group =>   5
---------------------------------
AUXILIARY/C BASIS SET INFORMATION
---------------------------------
There are 5 groups of distinct atoms

 Group   1 Type C   : 8s6p5d3f1g contracted to 8s6p5d3f1g pattern {11111111/111111/11111/111/1}
 Group   2 Type O   : 8s6p5d3f1g contracted to 8s6p5d3f1g pattern {11111111/111111/11111/111/1}
 Group   3 Type N   : 8s6p5d3f1g contracted to 8s6p5d3f1g pattern {11111111/111111/11111/111/1}
 Group   4 Type S   : 10s8p7d5f2g contracted to 10s8p7d5f2g pattern {1111111111/11111111/1111111/11111/11}
 Group   5 Type H   : 4s3p2d1f contracted to 4s3p2d1f pattern {1111/111/11/1}

Atom   0C    basis set group =>   1
Atom   1C    basis set group =>   1
Atom   2O    basis set group =>   2
Atom   3C    basis set group =>   1
Atom   4O    basis set group =>   2
Atom   5C    basis set group =>   1
Atom   6C    basis set group =>   1
Atom   7C    basis set group =>   1
Atom   8N    basis set group =>   3
Atom   9C    basis set group =>   1
Atom  10S    basis set group =>   4
Atom  11N    basis set group =>   3
Atom  12C    basis set group =>   1
Atom  13C    basis set group =>   1
Atom  14C    basis set group =>   1
Atom  15C    basis set group =>   1
Atom  16C    basis set group =>   1
Atom  17C    basis set group =>   1
Atom  18O    basis set group =>   2
Atom  19C    basis set group =>   1
Atom  20H    basis set group =>   5
Atom  21H    basis set group =>   5
Atom  22H    basis set group =>   5
Atom  23H    basis set group =>   5
Atom  24H    basis set group =>   5
Atom  25H    basis set group =>   5
Atom  26H    basis set group =>   5
Atom  27H    basis set group =>   5
Atom  28H    basis set group =>   5
Atom  29H    basis set group =>   5
Atom  30H    basis set group =>   5
Atom  31H    basis set group =>   5
Atom  32H    basis set group =>   5
Atom  33H    basis set group =>   5
Atom  34H    basis set group =>   5
Atom  35H    basis set group =>   5
------------------------------------------------------------------------------
                           ORCA GTO INTEGRAL CALCULATION
------------------------------------------------------------------------------

                         BASIS SET STATISTICS AND STARTUP INFO

 # of primitive gaussian shells          ...  682
 # of primitive gaussian functions       ... 1312
 # of contracted shells                  ...  298
 # of contracted basis functions         ...  828
 Highest angular momentum                ...    3
 Maximum contraction depth               ...   13
 Integral package used                   ... LIBINT
 Integral threshhold            Thresh   ...  2.500e-11
 Primitive cut-off              TCut     ...  2.500e-12


------------------------------ INTEGRAL EVALUATION ----------------------------


 * One electron integrals 
 Pre-screening matrix                    ... done
 Shell pair data                         ... done (   0.015 sec)

-------------------------------------------------------------------------------
                                 ORCA SCF
-------------------------------------------------------------------------------

------------
SCF SETTINGS
------------
Hamiltonian:
 Ab initio Hamiltonian  Method          .... Hartree-Fock(GTOs)


General Settings:
 Integral files         IntName         .... CONFS/Conf457.orca
 Hartree-Fock type      HFTyp           .... RHF
 Total Charge           Charge          ....    0
 Multiplicity           Mult            ....    1
 Number of Electrons    NEL             ....  154
 Basis Dimension        Dim             ....  828
 Nuclear Repulsion      ENuc            ....   1724.4007620152 Eh

Convergence Acceleration:
 DIIS                   CNVDIIS         .... on
   Start iteration      DIISMaxIt       ....    12
   Startup error        DIISStart       ....  0.200000
   # of expansion vecs  DIISMaxEq       ....     5
   Bias factor          DIISBfac        ....   1.050
   Max. coefficient     DIISMaxC        ....  10.000
 Newton-Raphson         CNVNR           .... off
 SOSCF                  CNVSOSCF        .... on
   Start iteration      SOSCFMaxIt      ....   150
   Startup grad/error   SOSCFStart      ....  0.003300
 Level Shifting         CNVShift        .... on
   Level shift para.    LevelShift      ....    0.2500
   Turn off err/grad.   ShiftErr        ....    0.0010
 Zerner damping         CNVZerner       .... off
 Static damping         CNVDamp         .... on
   Fraction old density DampFac         ....    0.7000
   Max. Damping (<1)    DampMax         ....    0.9800
   Min. Damping (>=0)   DampMin         ....    0.0000
   Turn off err/grad.   DampErr         ....    0.1000
 Fernandez-Rico         CNVRico         .... off

SCF Procedure:
 Maximum # iterations   MaxIter         ....   125
 SCF integral mode      SCFMode         .... Direct
   Integral package                     .... LIBINT
 Reset frequency        DirectResetFreq ....    20
 Integral Threshold     Thresh          ....  2.500e-11 Eh
 Primitive CutOff       TCut            ....  2.500e-12 Eh

Convergence Tolerance:
 Convergence Check Mode ConvCheckMode   .... Total+1el-Energy
 Convergence forced     ConvForced      .... 1
 Energy Change          TolE            ....  1.000e-08 Eh
 1-El. energy change                    ....  1.000e-05 Eh
 Orbital Gradient       TolG            ....  1.000e-05
 Orbital Rotation angle TolX            ....  1.000e-05
 DIIS Error             TolErr          ....  5.000e-07


Diagonalization of the overlap matrix:
Smallest eigenvalue                        ... 3.155e-05
Time for diagonalization                   ...    0.138 sec
Threshold for overlap eigenvalues          ... 1.000e-08
Number of eigenvalues below threshold      ... 0
Time for construction of square roots      ...    0.137 sec
Total time needed                          ...    0.279 sec

-------------------
DFT GRID GENERATION
-------------------

General Integration Accuracy     IntAcc      ...  4.340
Radial Grid Type                 RadialGrid  ... Gauss-Chebyshev
Angular Grid (max. acc.)         AngularGrid ... Lebedev-110
Angular grid pruning method      GridPruning ... 3 (G Style)
Weight generation scheme         WeightScheme... Becke
Basis function cutoff            BFCut       ...    1.0000e-11
Integration weight cutoff        WCut        ...    1.0000e-14
Grids for H and He will be reduced by one unit

# of grid points (after initial pruning)     ...  46246 (   0.0 sec)
# of grid points (after weights+screening)   ...  41157 (   0.3 sec)
nearest neighbour list constructed           ...    0.0 sec
Grid point re-assignment to atoms done       ...    0.0 sec
Grid point division into batches done        ...    0.0 sec
Reduced shell lists constructed in    1.1 sec

Total number of grid points                  ...    41157
Total number of batches                      ...      662
Average number of points per batch           ...       62
Average number of grid points per atom       ...     1143
Average number of shells per batch           ...   153.95 (51.66%)
Average number of basis functions per batch  ...   392.04 (47.35%)
Average number of large shells per batch     ...    99.14 (64.40%)
Average number of large basis fcns per batch ...   253.48 (64.66%)
Maximum spatial batch extension              ...  22.69, 25.60, 19.75 au
Average spatial batch extension              ...   3.46,  3.29,  3.30 au

Time for grid setup =    1.453 sec

------------------------------
INITIAL GUESS: MODEL POTENTIAL
------------------------------
Loading Hartree-Fock densities                     ... done
Calculating cut-offs                               ... done
Setting up the integral package                    ... done
Initializing the effective Hamiltonian             ... done
Starting the Coulomb interaction                   ... done (   3.3 sec)
Reading the grid                                   ... done
Mapping shells                                     ... done
Starting the XC term evaluation                    ... done (   1.6 sec)
Transforming the Hamiltonian                       ... done (   0.1 sec)
Diagonalizing the Hamiltonian                      ... done (   0.1 sec)
Back transforming the eigenvectors                 ... done (   0.0 sec)
Now organizing SCF variables                       ... done
                      ------------------
                      INITIAL GUESS DONE (   7.6 sec)
                      ------------------
--------------
SCF ITERATIONS
--------------
ITER       Energy         Delta-E        Max-DP      RMS-DP      [F,P]     Damp
               ***  Starting incremental Fock matrix formation  ***
  0  -1269.9964203300   0.000000000000 0.04935341  0.00042940  0.3260119 0.7000
  1  -1270.2612828276  -0.264862497603 0.03609979  0.00034545  0.1969502 0.7000
                               ***Turning on DIIS***
  2  -1270.4266064949  -0.165323667351 0.02584534  0.00023195  0.1115297 0.7000
  3  -1272.5590843738  -2.132477878852 0.06313481  0.00050621  0.0827867 0.0000
  4  -1270.7345848785   1.824499495242 0.01026699  0.00009803  0.0070267 0.0000
  5  -1270.7889658558  -0.054380977258 0.00452123  0.00005186  0.0051178 0.0000
  6  -1270.7707474303   0.018218425445 0.00219260  0.00002675  0.0035099 0.0000
                      *** Initiating the SOSCF procedure ***
                           *** Shutting down DIIS ***
                      *** Re-Reading the Fockian *** 
                      *** Removing any level shift *** 
ITER      Energy       Delta-E        Grad      Rot      Max-DP    RMS-DP
  7  -1270.78672694  -0.0159795056  0.001340  0.001340  0.001348  0.000014
               *** Restarting incremental Fock matrix formation ***
  8  -1270.78624960   0.0004773392  0.000720  0.001837  0.000541  0.000008
  9  -1270.78626477  -0.0000151775  0.000339  0.002159  0.000980  0.000010
 10  -1270.78627103  -0.0000062605  0.000079  0.000140  0.000203  0.000002
 11  -1270.78627165  -0.0000006104  0.000034  0.000055  0.000065  0.000001
 12  -1270.78627177  -0.0000001254  0.000011  0.000041  0.000031  0.000000
 13  -1270.78627179  -0.0000000183  0.000009  0.000041  0.000020  0.000000
                  ***Gradient check signals convergence***
              ***Rediagonalizing the Fockian in SOSCF/NRSCF***

               *****************************************************
               *                     SUCCESS                       *
               *           SCF CONVERGED AFTER  14 CYCLES          *
               *****************************************************


----------------
TOTAL SCF ENERGY
----------------

Total Energy       :        -1270.78627180 Eh          -34579.85246 eV

Components:
Nuclear Repulsion  :         1724.40076202 Eh           46923.33027 eV
Electronic Energy  :        -2995.18703382 Eh          -81503.18273 eV
One Electron Energy:        -5169.72063115 Eh         -140675.25017 eV
Two Electron Energy:         2174.53359734 Eh           59172.06743 eV

Virial components:
Potential Energy   :        -2539.78191579 Eh          -69110.97946 eV
Kinetic Energy     :         1268.99564399 Eh           34531.12700 eV
Virial Ratio       :            2.00141106


---------------
SCF CONVERGENCE
---------------

  Last Energy change         ...   -1.1079e-08  Tolerance :   1.0000e-08
  Last MAX-Density change    ...    2.5147e-06  Tolerance :   1.0000e-07
  Last RMS-Density change    ...    4.5942e-08  Tolerance :   5.0000e-09
  Last Orbital Gradient      ...    1.7005e-06  Tolerance :   1.0000e-05
  Last Orbital Rotation      ...    6.3360e-06  Tolerance :   1.0000e-05

             **** THE GBW FILE WAS UPDATED (CONFS/Conf457.orca.gbw) ****
             **** DENSITY FILE WAS UPDATED (CONFS/Conf457.orca.scfp) ****
             **** ENERGY FILE WAS UPDATED (CONFS/Conf457.orca.en.tmp) ****
             **** THE GBW FILE WAS UPDATED (CONFS/Conf457.orca.gbw) ****
             **** DENSITY FILE WAS UPDATED (CONFS/Conf457.orca.scfp) ****
----------------
ORBITAL ENERGIES
----------------

  NO   OCC          E(Eh)            E(eV) 
   0   2.0000     -91.891088     -2500.4836 
   1   2.0000     -20.602454      -560.6213 
   2   2.0000     -20.578265      -559.9630 
   3   2.0000     -20.547039      -559.1134 
   4   2.0000     -15.630815      -425.3361 
   5   2.0000     -15.609360      -424.7523 
   6   2.0000     -11.392422      -310.0036 
   7   2.0000     -11.385422      -309.8131 
   8   2.0000     -11.338299      -308.5308 
   9   2.0000     -11.320032      -308.0337 
  10   2.0000     -11.311952      -307.8138 
  11   2.0000     -11.299325      -307.4703 
  12   2.0000     -11.266257      -306.5704 
  13   2.0000     -11.260754      -306.4207 
  14   2.0000     -11.258539      -306.3604 
  15   2.0000     -11.253421      -306.2211 
  16   2.0000     -11.249997      -306.1280 
  17   2.0000     -11.245075      -305.9940 
  18   2.0000     -11.244064      -305.9665 
  19   2.0000     -11.228601      -305.5458 
  20   2.0000      -8.896137      -242.0762 
  21   2.0000      -6.577703      -178.9884 
  22   2.0000      -6.575712      -178.9342 
  23   2.0000      -6.575114      -178.9179 
  24   2.0000      -1.442415       -39.2501 
  25   2.0000      -1.422194       -38.6999 
  26   2.0000      -1.350356       -36.7451 
  27   2.0000      -1.342666       -36.5358 
  28   2.0000      -1.240969       -33.7685 
  29   2.0000      -1.163040       -31.6479 
  30   2.0000      -1.122523       -30.5454 
  31   2.0000      -1.047311       -28.4988 
  32   2.0000      -1.031008       -28.0551 
  33   2.0000      -1.021160       -27.7872 
  34   2.0000      -1.001088       -27.2410 
  35   2.0000      -0.987929       -26.8829 
  36   2.0000      -0.925244       -25.1772 
  37   2.0000      -0.897054       -24.4101 
  38   2.0000      -0.849358       -23.1122 
  39   2.0000      -0.843342       -22.9485 
  40   2.0000      -0.840196       -22.8629 
  41   2.0000      -0.820077       -22.3154 
  42   2.0000      -0.745343       -20.2818 
  43   2.0000      -0.737291       -20.0627 
  44   2.0000      -0.720831       -19.6148 
  45   2.0000      -0.700530       -19.0624 
  46   2.0000      -0.690072       -18.7778 
  47   2.0000      -0.675630       -18.3848 
  48   2.0000      -0.671771       -18.2798 
  49   2.0000      -0.659895       -17.9566 
  50   2.0000      -0.653185       -17.7741 
  51   2.0000      -0.643861       -17.5203 
  52   2.0000      -0.638365       -17.3708 
  53   2.0000      -0.625080       -17.0093 
  54   2.0000      -0.612433       -16.6651 
  55   2.0000      -0.604722       -16.4553 
  56   2.0000      -0.602236       -16.3877 
  57   2.0000      -0.581357       -15.8195 
  58   2.0000      -0.572108       -15.5678 
  59   2.0000      -0.566812       -15.4237 
  60   2.0000      -0.547785       -14.9060 
  61   2.0000      -0.544510       -14.8169 
  62   2.0000      -0.538913       -14.6646 
  63   2.0000      -0.532464       -14.4891 
  64   2.0000      -0.528599       -14.3839 
  65   2.0000      -0.515721       -14.0335 
  66   2.0000      -0.503254       -13.6942 
  67   2.0000      -0.492660       -13.4059 
  68   2.0000      -0.483267       -13.1504 
  69   2.0000      -0.466308       -12.6889 
  70   2.0000      -0.454282       -12.3616 
  71   2.0000      -0.443927       -12.0799 
  72   2.0000      -0.356356        -9.6970 
  73   2.0000      -0.352793        -9.6000 
  74   2.0000      -0.330607        -8.9963 
  75   2.0000      -0.327102        -8.9009 
  76   2.0000      -0.320874        -8.7314 
  77   0.0000       0.071500         1.9456 
  78   0.0000       0.099077         2.6960 
  79   0.0000       0.121117         3.2958 
  80   0.0000       0.128110         3.4860 
  81   0.0000       0.131270         3.5720 
  82   0.0000       0.142130         3.8676 
  83   0.0000       0.149639         4.0719 
  84   0.0000       0.151271         4.1163 
  85   0.0000       0.157656         4.2900 
  86   0.0000       0.171561         4.6684 
  87   0.0000       0.176724         4.8089 
  88   0.0000       0.186376         5.0716 
  89   0.0000       0.190987         5.1970 
  90   0.0000       0.196694         5.3523 
  91   0.0000       0.203978         5.5505 
  92   0.0000       0.215883         5.8745 
  93   0.0000       0.223247         6.0748 
  94   0.0000       0.231529         6.3002 
  95   0.0000       0.244292         6.6475 
  96   0.0000       0.246078         6.6961 
  97   0.0000       0.254224         6.9178 
  98   0.0000       0.267813         7.2876 
  99   0.0000       0.282586         7.6896 
 100   0.0000       0.293556         7.9881 
 101   0.0000       0.304063         8.2740 
 102   0.0000       0.308808         8.4031 
 103   0.0000       0.317024         8.6267 
 104   0.0000       0.326159         8.8752 
 105   0.0000       0.331031         9.0078 
 106   0.0000       0.339317         9.2333 
 107   0.0000       0.351143         9.5551 
 108   0.0000       0.361111         9.8263 
 109   0.0000       0.364121         9.9082 
 110   0.0000       0.370525        10.0825 
 111   0.0000       0.373177        10.1547 
 112   0.0000       0.385073        10.4784 
 113   0.0000       0.386317        10.5122 
 114   0.0000       0.395899        10.7729 
 115   0.0000       0.404431        11.0051 
 116   0.0000       0.418415        11.3856 
 117   0.0000       0.426115        11.5952 
 118   0.0000       0.431778        11.7493 
 119   0.0000       0.442453        12.0397 
 120   0.0000       0.448440        12.2027 
 121   0.0000       0.450799        12.2669 
 122   0.0000       0.455386        12.3917 
 123   0.0000       0.462443        12.5837 
 124   0.0000       0.465456        12.6657 
 125   0.0000       0.470624        12.8063 
 126   0.0000       0.477586        12.9958 
 127   0.0000       0.479950        13.0601 
 128   0.0000       0.490580        13.3494 
 129   0.0000       0.498488        13.5645 
 130   0.0000       0.501290        13.6408 
 131   0.0000       0.504660        13.7325 
 132   0.0000       0.516523        14.0553 
 133   0.0000       0.517844        14.0912 
 134   0.0000       0.523171        14.2362 
 135   0.0000       0.528982        14.3943 
 136   0.0000       0.535361        14.5679 
 137   0.0000       0.538721        14.6593 
 138   0.0000       0.548975        14.9384 
 139   0.0000       0.552166        15.0252 
 140   0.0000       0.558199        15.1894 
 141   0.0000       0.561863        15.2891 
 142   0.0000       0.562821        15.3151 
 143   0.0000       0.567045        15.4301 
 144   0.0000       0.569078        15.4854 
 145   0.0000       0.577368        15.7110 
 146   0.0000       0.586714        15.9653 
 147   0.0000       0.593129        16.1399 
 148   0.0000       0.595353        16.2004 
 149   0.0000       0.598810        16.2944 
 150   0.0000       0.601610        16.3706 
 151   0.0000       0.606045        16.4913 
 152   0.0000       0.610474        16.6118 
 153   0.0000       0.613521        16.6947 
 154   0.0000       0.620034        16.8720 
 155   0.0000       0.625813        17.0292 
 156   0.0000       0.627298        17.0696 
 157   0.0000       0.632148        17.2016 
 158   0.0000       0.637850        17.3568 
 159   0.0000       0.650055        17.6889 
 160   0.0000       0.651448        17.7268 
 161   0.0000       0.654027        17.7970 
 162   0.0000       0.663131        18.0447 
 163   0.0000       0.670959        18.2577 
 164   0.0000       0.675742        18.3879 
 165   0.0000       0.682755        18.5787 
 166   0.0000       0.685143        18.6437 
 167   0.0000       0.689245        18.7553 
 168   0.0000       0.693188        18.8626 
 169   0.0000       0.698163        18.9980 
 170   0.0000       0.706302        19.2194 
 171   0.0000       0.709792        19.3144 
 172   0.0000       0.712842        19.3974 
 173   0.0000       0.721230        19.6257 
 174   0.0000       0.728925        19.8351 
 175   0.0000       0.732766        19.9396 
 176   0.0000       0.740279        20.1440 
 177   0.0000       0.747518        20.3410 
 178   0.0000       0.753659        20.5081 
 179   0.0000       0.761310        20.7163 
 180   0.0000       0.775409        21.1000 
 181   0.0000       0.779631        21.2148 
 182   0.0000       0.787862        21.4388 
 183   0.0000       0.803283        21.8584 
 184   0.0000       0.808353        21.9964 
 185   0.0000       0.813369        22.1329 
 186   0.0000       0.815983        22.2040 
 187   0.0000       0.825152        22.4535 
 188   0.0000       0.828942        22.5567 
 189   0.0000       0.835029        22.7223 
 190   0.0000       0.839821        22.8527 
 191   0.0000       0.846816        23.0430 
 192   0.0000       0.855423        23.2772 
 193   0.0000       0.861286        23.4368 
 194   0.0000       0.874785        23.8041 
 195   0.0000       0.877720        23.8840 
 196   0.0000       0.891580        24.2611 
 197   0.0000       0.893530        24.3142 
 198   0.0000       0.894904        24.3516 
 199   0.0000       0.910047        24.7636 
 200   0.0000       0.917429        24.9645 
 201   0.0000       0.924271        25.1507 
 202   0.0000       0.932023        25.3616 
 203   0.0000       0.933477        25.4012 
 204   0.0000       0.942406        25.6442 
 205   0.0000       0.958594        26.0847 
 206   0.0000       0.959110        26.0987 
 207   0.0000       0.961710        26.1695 
 208   0.0000       0.966443        26.2983 
 209   0.0000       0.976988        26.5852 
 210   0.0000       0.986895        26.8548 
 211   0.0000       0.993507        27.0347 
 212   0.0000       1.003630        27.3102 
 213   0.0000       1.008085        27.4314 
 214   0.0000       1.014388        27.6029 
 215   0.0000       1.017688        27.6927 
 216   0.0000       1.022792        27.8316 
 217   0.0000       1.026752        27.9393 
 218   0.0000       1.030698        28.0467 
 219   0.0000       1.049801        28.5665 
 220   0.0000       1.052255        28.6333 
 221   0.0000       1.070993        29.1432 
 222   0.0000       1.082920        29.4678 
 223   0.0000       1.086119        29.5548 
 224   0.0000       1.090697        29.6794 
 225   0.0000       1.095641        29.8139 
 226   0.0000       1.097556        29.8660 
 227   0.0000       1.108134        30.1539 
 228   0.0000       1.115619        30.3575 
 229   0.0000       1.119722        30.4692 
 230   0.0000       1.136269        30.9194 
 231   0.0000       1.143038        31.1036 
 232   0.0000       1.150596        31.3093 
 233   0.0000       1.156377        31.4666 
 234   0.0000       1.163708        31.6661 
 235   0.0000       1.170364        31.8472 
 236   0.0000       1.176051        32.0020 
 237   0.0000       1.177324        32.0366 
 238   0.0000       1.191843        32.4317 
 239   0.0000       1.199417        32.6378 
 240   0.0000       1.203180        32.7402 
 241   0.0000       1.208999        32.8985 
 242   0.0000       1.216860        33.1125 
 243   0.0000       1.220395        33.2086 
 244   0.0000       1.223438        33.2914 
 245   0.0000       1.232871        33.5481 
 246   0.0000       1.238112        33.6907 
 247   0.0000       1.249598        34.0033 
 248   0.0000       1.259369        34.2692 
 249   0.0000       1.267151        34.4809 
 250   0.0000       1.268616        34.5208 
 251   0.0000       1.278622        34.7931 
 252   0.0000       1.285897        34.9910 
 253   0.0000       1.291435        35.1417 
 254   0.0000       1.296914        35.2908 
 255   0.0000       1.305066        35.5127 
 256   0.0000       1.316336        35.8193 
 257   0.0000       1.317457        35.8498 
 258   0.0000       1.336849        36.3775 
 259   0.0000       1.344620        36.5890 
 260   0.0000       1.356364        36.9085 
 261   0.0000       1.366248        37.1775 
 262   0.0000       1.369533        37.2669 
 263   0.0000       1.371027        37.3075 
 264   0.0000       1.388899        37.7939 
 265   0.0000       1.392168        37.8828 
 266   0.0000       1.396986        38.0139 
 267   0.0000       1.399235        38.0751 
 268   0.0000       1.418775        38.6068 
 269   0.0000       1.424969        38.7754 
 270   0.0000       1.428263        38.8650 
 271   0.0000       1.443400        39.2769 
 272   0.0000       1.448490        39.4154 
 273   0.0000       1.454081        39.5675 
 274   0.0000       1.458648        39.6918 
 275   0.0000       1.464435        39.8493 
 276   0.0000       1.468641        39.9637 
 277   0.0000       1.476533        40.1785 
 278   0.0000       1.484646        40.3993 
 279   0.0000       1.492093        40.6019 
 280   0.0000       1.501261        40.8514 
 281   0.0000       1.507448        41.0198 
 282   0.0000       1.509253        41.0689 
 283   0.0000       1.516354        41.2621 
 284   0.0000       1.520675        41.3797 
 285   0.0000       1.527767        41.5726 
 286   0.0000       1.531829        41.6832 
 287   0.0000       1.541916        41.9577 
 288   0.0000       1.545064        42.0433 
 289   0.0000       1.555790        42.3352 
 290   0.0000       1.560189        42.4549 
 291   0.0000       1.567778        42.6614 
 292   0.0000       1.572296        42.7844 
 293   0.0000       1.581351        43.0307 
 294   0.0000       1.588075        43.2137 
 295   0.0000       1.597201        43.4621 
 296   0.0000       1.609957        43.8092 
 297   0.0000       1.618136        44.0317 
 298   0.0000       1.624571        44.2068 
 299   0.0000       1.634555        44.4785 
 300   0.0000       1.641922        44.6790 
 301   0.0000       1.647107        44.8201 
 302   0.0000       1.657650        45.1070 
 303   0.0000       1.668171        45.3932 
 304   0.0000       1.671536        45.4848 
 305   0.0000       1.688711        45.9522 
 306   0.0000       1.694462        46.1087 
 307   0.0000       1.698114        46.2080 
 308   0.0000       1.709032        46.5051 
 309   0.0000       1.723487        46.8985 
 310   0.0000       1.725733        46.9596 
 311   0.0000       1.732909        47.1549 
 312   0.0000       1.741637        47.3924 
 313   0.0000       1.759079        47.8670 
 314   0.0000       1.771464        48.2040 
 315   0.0000       1.776549        48.3424 
 316   0.0000       1.780005        48.4364 
 317   0.0000       1.793184        48.7950 
 318   0.0000       1.808498        49.2117 
 319   0.0000       1.818969        49.4967 
 320   0.0000       1.826851        49.7111 
 321   0.0000       1.832720        49.8708 
 322   0.0000       1.844668        50.1960 
 323   0.0000       1.850560        50.3563 
 324   0.0000       1.862632        50.6848 
 325   0.0000       1.871695        50.9314 
 326   0.0000       1.893576        51.5268 
 327   0.0000       1.905555        51.8528 
 328   0.0000       1.913978        52.0820 
 329   0.0000       1.929976        52.5173 
 330   0.0000       1.936304        52.6895 
 331   0.0000       1.940850        52.8132 
 332   0.0000       1.943512        52.8856 
 333   0.0000       1.957445        53.2648 
 334   0.0000       1.988665        54.1143 
 335   0.0000       1.993599        54.2486 
 336   0.0000       1.997613        54.3578 
 337   0.0000       2.007027        54.6140 
 338   0.0000       2.015038        54.8320 
 339   0.0000       2.026592        55.1464 
 340   0.0000       2.039026        55.4847 
 341   0.0000       2.045737        55.6673 
 342   0.0000       2.075189        56.4688 
 343   0.0000       2.084125        56.7119 
 344   0.0000       2.090204        56.8773 
 345   0.0000       2.114018        57.5253 
 346   0.0000       2.128368        57.9158 
 347   0.0000       2.137419        58.1621 
 348   0.0000       2.149941        58.5029 
 349   0.0000       2.160547        58.7915 
 350   0.0000       2.186681        59.5026 
 351   0.0000       2.198279        59.8182 
 352   0.0000       2.215791        60.2947 
 353   0.0000       2.225925        60.5705 
 354   0.0000       2.235723        60.8371 
 355   0.0000       2.265214        61.6396 
 356   0.0000       2.274476        61.8916 
 357   0.0000       2.278441        61.9995 
 358   0.0000       2.289952        62.3128 
 359   0.0000       2.304924        62.7202 
 360   0.0000       2.319991        63.1302 
 361   0.0000       2.331739        63.4498 
 362   0.0000       2.344814        63.8056 
 363   0.0000       2.365258        64.3619 
 364   0.0000       2.372132        64.5490 
 365   0.0000       2.374763        64.6206 
 366   0.0000       2.387419        64.9650 
 367   0.0000       2.392051        65.0910 
 368   0.0000       2.416956        65.7687 
 369   0.0000       2.433132        66.2089 
 370   0.0000       2.464496        67.0623 
 371   0.0000       2.473240        67.3003 
 372   0.0000       2.474372        67.3311 
 373   0.0000       2.481759        67.5321 
 374   0.0000       2.489146        67.7331 
 375   0.0000       2.505873        68.1883 
 376   0.0000       2.524546        68.6964 
 377   0.0000       2.534062        68.9553 
 378   0.0000       2.549313        69.3703 
 379   0.0000       2.561261        69.6955 
 380   0.0000       2.579476        70.1911 
 381   0.0000       2.582184        70.2648 
 382   0.0000       2.607853        70.9633 
 383   0.0000       2.613037        71.1044 
 384   0.0000       2.622676        71.3666 
 385   0.0000       2.628524        71.5258 
 386   0.0000       2.639717        71.8303 
 387   0.0000       2.651120        72.1407 
 388   0.0000       2.663375        72.4741 
 389   0.0000       2.668251        72.6068 
 390   0.0000       2.681127        72.9572 
 391   0.0000       2.700089        73.4732 
 392   0.0000       2.720894        74.0393 
 393   0.0000       2.723212        74.1024 
 394   0.0000       2.728105        74.2355 
 395   0.0000       2.733635        74.3860 
 396   0.0000       2.740804        74.5811 
 397   0.0000       2.752602        74.9021 
 398   0.0000       2.768805        75.3430 
 399   0.0000       2.780495        75.6611 
 400   0.0000       2.787901        75.8626 
 401   0.0000       2.797352        76.1198 
 402   0.0000       2.808189        76.4147 
 403   0.0000       2.822913        76.8154 
 404   0.0000       2.828587        76.9698 
 405   0.0000       2.838037        77.2269 
 406   0.0000       2.851374        77.5898 
 407   0.0000       2.857308        77.7513 
 408   0.0000       2.864753        77.9539 
 409   0.0000       2.874810        78.2276 
 410   0.0000       2.884108        78.4806 
 411   0.0000       2.898308        78.8670 
 412   0.0000       2.903364        79.0045 
 413   0.0000       2.911915        79.2372 
 414   0.0000       2.913854        79.2900 
 415   0.0000       2.923763        79.5596 
 416   0.0000       2.932192        79.7890 
 417   0.0000       2.949934        80.2718 
 418   0.0000       2.953774        80.3763 
 419   0.0000       2.967603        80.7526 
 420   0.0000       2.970953        80.8438 
 421   0.0000       2.976170        80.9857 
 422   0.0000       2.987364        81.2903 
 423   0.0000       2.990056        81.3636 
 424   0.0000       2.997372        81.5626 
 425   0.0000       3.011453        81.9458 
 426   0.0000       3.023520        82.2742 
 427   0.0000       3.030652        82.4682 
 428   0.0000       3.031939        82.5032 
 429   0.0000       3.043820        82.8265 
 430   0.0000       3.052541        83.0639 
 431   0.0000       3.064159        83.3800 
 432   0.0000       3.067003        83.4574 
 433   0.0000       3.073578        83.6363 
 434   0.0000       3.077610        83.7460 
 435   0.0000       3.082586        83.8814 
 436   0.0000       3.086350        83.9838 
 437   0.0000       3.095041        84.2204 
 438   0.0000       3.101854        84.4057 
 439   0.0000       3.115183        84.7684 
 440   0.0000       3.118257        84.8521 
 441   0.0000       3.127168        85.0946 
 442   0.0000       3.139732        85.4365 
 443   0.0000       3.143985        85.5522 
 444   0.0000       3.150360        85.7257 
 445   0.0000       3.154813        85.8468 
 446   0.0000       3.163191        86.0748 
 447   0.0000       3.171498        86.3008 
 448   0.0000       3.175251        86.4030 
 449   0.0000       3.188936        86.7754 
 450   0.0000       3.198908        87.0467 
 451   0.0000       3.206623        87.2566 
 452   0.0000       3.214822        87.4798 
 453   0.0000       3.226321        87.7926 
 454   0.0000       3.227446        87.8233 
 455   0.0000       3.241401        88.2030 
 456   0.0000       3.246740        88.3483 
 457   0.0000       3.258249        88.6615 
 458   0.0000       3.262133        88.7671 
 459   0.0000       3.264398        88.8288 
 460   0.0000       3.268152        88.9309 
 461   0.0000       3.276880        89.1685 
 462   0.0000       3.288176        89.4758 
 463   0.0000       3.291046        89.5539 
 464   0.0000       3.301218        89.8307 
 465   0.0000       3.307188        89.9932 
 466   0.0000       3.311948        90.1227 
 467   0.0000       3.315781        90.2270 
 468   0.0000       3.331047        90.6424 
 469   0.0000       3.334486        90.7360 
 470   0.0000       3.339483        90.8720 
 471   0.0000       3.348250        91.1105 
 472   0.0000       3.352077        91.2146 
 473   0.0000       3.361465        91.4701 
 474   0.0000       3.368931        91.6733 
 475   0.0000       3.374489        91.8245 
 476   0.0000       3.379871        91.9710 
 477   0.0000       3.381433        92.0135 
 478   0.0000       3.387874        92.1887 
 479   0.0000       3.394490        92.3688 
 480   0.0000       3.399527        92.5058 
 481   0.0000       3.404953        92.6535 
 482   0.0000       3.415567        92.9423 
 483   0.0000       3.418342        93.0178 
 484   0.0000       3.426912        93.2510 
 485   0.0000       3.429370        93.3179 
 486   0.0000       3.430811        93.3571 
 487   0.0000       3.437943        93.5512 
 488   0.0000       3.440322        93.6159 
 489   0.0000       3.443392        93.6995 
 490   0.0000       3.446857        93.7937 
 491   0.0000       3.454358        93.9979 
 492   0.0000       3.463645        94.2506 
 493   0.0000       3.464929        94.2855 
 494   0.0000       3.473939        94.5307 
 495   0.0000       3.479394        94.6791 
 496   0.0000       3.486443        94.8710 
 497   0.0000       3.496872        95.1547 
 498   0.0000       3.506236        95.4095 
 499   0.0000       3.507755        95.4509 
 500   0.0000       3.518645        95.7472 
 501   0.0000       3.522375        95.8487 
 502   0.0000       3.534517        96.1791 
 503   0.0000       3.543531        96.4244 
 504   0.0000       3.549934        96.5986 
 505   0.0000       3.561140        96.9036 
 506   0.0000       3.563141        96.9580 
 507   0.0000       3.571203        97.1774 
 508   0.0000       3.580416        97.4281 
 509   0.0000       3.583194        97.5037 
 510   0.0000       3.589350        97.6712 
 511   0.0000       3.596006        97.8523 
 512   0.0000       3.608075        98.1807 
 513   0.0000       3.620821        98.5275 
 514   0.0000       3.621703        98.5515 
 515   0.0000       3.628836        98.7456 
 516   0.0000       3.634869        98.9098 
 517   0.0000       3.638264        99.0022 
 518   0.0000       3.642922        99.1290 
 519   0.0000       3.652689        99.3947 
 520   0.0000       3.655064        99.4593 
 521   0.0000       3.657894        99.5364 
 522   0.0000       3.668587        99.8273 
 523   0.0000       3.674315        99.9832 
 524   0.0000       3.687167       100.3329 
 525   0.0000       3.688136       100.3593 
 526   0.0000       3.694383       100.5293 
 527   0.0000       3.701532       100.7238 
 528   0.0000       3.709032       100.9279 
 529   0.0000       3.715335       101.0994 
 530   0.0000       3.722760       101.3014 
 531   0.0000       3.723496       101.3215 
 532   0.0000       3.732802       101.5747 
 533   0.0000       3.741367       101.8078 
 534   0.0000       3.751375       102.0801 
 535   0.0000       3.759684       102.3062 
 536   0.0000       3.759862       102.3111 
 537   0.0000       3.763619       102.4133 
 538   0.0000       3.771176       102.6189 
 539   0.0000       3.777001       102.7774 
 540   0.0000       3.788694       103.0956 
 541   0.0000       3.792210       103.1913 
 542   0.0000       3.796973       103.3209 
 543   0.0000       3.809847       103.6712 
 544   0.0000       3.812037       103.7308 
 545   0.0000       3.824737       104.0764 
 546   0.0000       3.833354       104.3109 
 547   0.0000       3.834191       104.3336 
 548   0.0000       3.839031       104.4654 
 549   0.0000       3.847581       104.6980 
 550   0.0000       3.853416       104.8568 
 551   0.0000       3.864544       105.1596 
 552   0.0000       3.879059       105.5546 
 553   0.0000       3.885000       105.7162 
 554   0.0000       3.895810       106.0104 
 555   0.0000       3.904726       106.2530 
 556   0.0000       3.913191       106.4833 
 557   0.0000       3.914657       106.5232 
 558   0.0000       3.920710       106.6879 
 559   0.0000       3.931403       106.9789 
 560   0.0000       3.935921       107.1019 
 561   0.0000       3.950120       107.4882 
 562   0.0000       3.968419       107.9862 
 563   0.0000       3.974341       108.1473 
 564   0.0000       3.974547       108.1529 
 565   0.0000       3.986491       108.4779 
 566   0.0000       4.004166       108.9589 
 567   0.0000       4.007995       109.0631 
 568   0.0000       4.017459       109.3206 
 569   0.0000       4.025596       109.5420 
 570   0.0000       4.038928       109.9048 
 571   0.0000       4.047333       110.1335 
 572   0.0000       4.049855       110.2022 
 573   0.0000       4.052229       110.2668 
 574   0.0000       4.066336       110.6506 
 575   0.0000       4.070920       110.7754 
 576   0.0000       4.077299       110.9489 
 577   0.0000       4.084974       111.1578 
 578   0.0000       4.090304       111.3028 
 579   0.0000       4.103061       111.6500 
 580   0.0000       4.108334       111.7935 
 581   0.0000       4.113549       111.9354 
 582   0.0000       4.133118       112.4679 
 583   0.0000       4.146130       112.8219 
 584   0.0000       4.158114       113.1480 
 585   0.0000       4.160995       113.2264 
 586   0.0000       4.164464       113.3208 
 587   0.0000       4.169677       113.4627 
 588   0.0000       4.179651       113.7341 
 589   0.0000       4.180394       113.7543 
 590   0.0000       4.182983       113.8248 
 591   0.0000       4.187027       113.9348 
 592   0.0000       4.198049       114.2347 
 593   0.0000       4.205054       114.4253 
 594   0.0000       4.214072       114.6707 
 595   0.0000       4.216050       114.7246 
 596   0.0000       4.219435       114.8167 
 597   0.0000       4.227719       115.0421 
 598   0.0000       4.240677       115.3947 
 599   0.0000       4.246459       115.5520 
 600   0.0000       4.251788       115.6970 
 601   0.0000       4.257959       115.8649 
 602   0.0000       4.271020       116.2204 
 603   0.0000       4.277174       116.3878 
 604   0.0000       4.290433       116.7486 
 605   0.0000       4.300976       117.0355 
 606   0.0000       4.313930       117.3880 
 607   0.0000       4.318307       117.5071 
 608   0.0000       4.322904       117.6322 
 609   0.0000       4.329902       117.8226 
 610   0.0000       4.336770       118.0095 
 611   0.0000       4.343475       118.1920 
 612   0.0000       4.352110       118.4269 
 613   0.0000       4.368196       118.8647 
 614   0.0000       4.378200       119.1369 
 615   0.0000       4.387534       119.3909 
 616   0.0000       4.395078       119.5961 
 617   0.0000       4.398494       119.6891 
 618   0.0000       4.403930       119.8370 
 619   0.0000       4.409745       119.9953 
 620   0.0000       4.425828       120.4329 
 621   0.0000       4.436998       120.7368 
 622   0.0000       4.439275       120.7988 
 623   0.0000       4.448244       121.0429 
 624   0.0000       4.456796       121.2756 
 625   0.0000       4.464523       121.4858 
 626   0.0000       4.471494       121.6755 
 627   0.0000       4.479750       121.9002 
 628   0.0000       4.494188       122.2931 
 629   0.0000       4.498033       122.3977 
 630   0.0000       4.505350       122.5968 
 631   0.0000       4.513921       122.8300 
 632   0.0000       4.523891       123.1013 
 633   0.0000       4.533148       123.3532 
 634   0.0000       4.542039       123.5952 
 635   0.0000       4.550015       123.8122 
 636   0.0000       4.557096       124.0049 
 637   0.0000       4.564496       124.2062 
 638   0.0000       4.585191       124.7694 
 639   0.0000       4.594679       125.0276 
 640   0.0000       4.596553       125.0786 
 641   0.0000       4.604000       125.2812 
 642   0.0000       4.613234       125.5325 
 643   0.0000       4.615902       125.6051 
 644   0.0000       4.627539       125.9217 
 645   0.0000       4.633010       126.0706 
 646   0.0000       4.640959       126.2869 
 647   0.0000       4.642304       126.3235 
 648   0.0000       4.653050       126.6159 
 649   0.0000       4.663055       126.8882 
 650   0.0000       4.667299       127.0037 
 651   0.0000       4.669435       127.0618 
 652   0.0000       4.677746       127.2879 
 653   0.0000       4.684333       127.4672 
 654   0.0000       4.700503       127.9072 
 655   0.0000       4.707221       128.0900 
 656   0.0000       4.720113       128.4408 
 657   0.0000       4.727066       128.6300 
 658   0.0000       4.737754       128.9208 
 659   0.0000       4.755153       129.3943 
 660   0.0000       4.768506       129.7576 
 661   0.0000       4.778737       130.0361 
 662   0.0000       4.793562       130.4395 
 663   0.0000       4.807028       130.8059 
 664   0.0000       4.808911       130.8571 
 665   0.0000       4.836685       131.6129 
 666   0.0000       4.844298       131.8201 
 667   0.0000       4.859107       132.2230 
 668   0.0000       4.869749       132.5126 
 669   0.0000       4.885641       132.9451 
 670   0.0000       4.903629       133.4345 
 671   0.0000       4.935410       134.2993 
 672   0.0000       4.944483       134.5462 
 673   0.0000       4.963798       135.0718 
 674   0.0000       4.969627       135.2304 
 675   0.0000       4.975166       135.3812 
 676   0.0000       5.014831       136.4605 
 677   0.0000       5.018736       136.5667 
 678   0.0000       5.031322       136.9092 
 679   0.0000       5.049627       137.4073 
 680   0.0000       5.054462       137.5389 
 681   0.0000       5.058771       137.6562 
 682   0.0000       5.076200       138.1304 
 683   0.0000       5.101008       138.8055 
 684   0.0000       5.108933       139.0211 
 685   0.0000       5.118569       139.2833 
 686   0.0000       5.126885       139.5096 
 687   0.0000       5.135070       139.7323 
 688   0.0000       5.142166       139.9255 
 689   0.0000       5.151826       140.1883 
 690   0.0000       5.173293       140.7725 
 691   0.0000       5.182406       141.0204 
 692   0.0000       5.193076       141.3108 
 693   0.0000       5.209951       141.7700 
 694   0.0000       5.212285       141.8335 
 695   0.0000       5.216864       141.9581 
 696   0.0000       5.218793       142.0106 
 697   0.0000       5.227676       142.2523 
 698   0.0000       5.236947       142.5046 
 699   0.0000       5.252207       142.9198 
 700   0.0000       5.273095       143.4882 
 701   0.0000       5.286995       143.8665 
 702   0.0000       5.293070       144.0318 
 703   0.0000       5.309786       144.4866 
 704   0.0000       5.327705       144.9742 
 705   0.0000       5.339896       145.3059 
 706   0.0000       5.351777       145.6293 
 707   0.0000       5.367165       146.0480 
 708   0.0000       5.374579       146.2497 
 709   0.0000       5.383648       146.4965 
 710   0.0000       5.391723       146.7162 
 711   0.0000       5.396385       146.8431 
 712   0.0000       5.419132       147.4621 
 713   0.0000       5.455767       148.4590 
 714   0.0000       5.468562       148.8071 
 715   0.0000       5.483706       149.2192 
 716   0.0000       5.487122       149.3122 
 717   0.0000       5.504881       149.7954 
 718   0.0000       5.512592       150.0052 
 719   0.0000       5.523058       150.2901 
 720   0.0000       5.537614       150.6861 
 721   0.0000       5.555617       151.1760 
 722   0.0000       5.561211       151.3282 
 723   0.0000       5.573312       151.6575 
 724   0.0000       5.581296       151.8748 
 725   0.0000       5.613480       152.7506 
 726   0.0000       5.616913       152.8440 
 727   0.0000       5.631388       153.2379 
 728   0.0000       5.637633       153.4078 
 729   0.0000       5.647139       153.6665 
 730   0.0000       5.656938       153.9331 
 731   0.0000       5.666398       154.1905 
 732   0.0000       5.684562       154.6848 
 733   0.0000       5.707130       155.2989 
 734   0.0000       5.715010       155.5133 
 735   0.0000       5.719238       155.6284 
 736   0.0000       5.725837       155.8079 
 737   0.0000       5.734837       156.0528 
 738   0.0000       5.749336       156.4474 
 739   0.0000       5.758304       156.6914 
 740   0.0000       5.773673       157.1096 
 741   0.0000       5.784980       157.4173 
 742   0.0000       5.801655       157.8711 
 743   0.0000       5.817526       158.3029 
 744   0.0000       5.832606       158.7133 
 745   0.0000       5.842318       158.9776 
 746   0.0000       5.848208       159.1378 
 747   0.0000       5.864504       159.5813 
 748   0.0000       5.913144       160.9048 
 749   0.0000       5.921666       161.1367 
 750   0.0000       5.943089       161.7197 
 751   0.0000       5.965966       162.3422 
 752   0.0000       5.977987       162.6693 
 753   0.0000       5.997217       163.1926 
 754   0.0000       6.018133       163.7617 
 755   0.0000       6.032133       164.1427 
 756   0.0000       6.045644       164.5103 
 757   0.0000       6.058881       164.8705 
 758   0.0000       6.073365       165.2647 
 759   0.0000       6.089480       165.7032 
 760   0.0000       6.100741       166.0096 
 761   0.0000       6.158086       167.5700 
 762   0.0000       6.215635       169.1360 
 763   0.0000       6.233767       169.6294 
 764   0.0000       6.244484       169.9210 
 765   0.0000       6.289108       171.1353 
 766   0.0000       6.331183       172.2803 
 767   0.0000       6.341630       172.5645 
 768   0.0000       6.359862       173.0606 
 769   0.0000       6.374612       173.4620 
 770   0.0000       6.375642       173.4900 
 771   0.0000       6.381766       173.6567 
 772   0.0000       6.403539       174.2491 
 773   0.0000       6.452985       175.5947 
 774   0.0000       6.466720       175.9684 
 775   0.0000       6.472249       176.1188 
 776   0.0000       6.507029       177.0653 
 777   0.0000       6.550368       178.2446 
 778   0.0000       6.587542       179.2561 
 779   0.0000       6.638556       180.6443 
 780   0.0000       6.663406       181.3205 
 781   0.0000       6.685795       181.9297 
 782   0.0000       6.740511       183.4186 
 783   0.0000       6.787242       184.6902 
 784   0.0000       6.832577       185.9239 
 785   0.0000       6.903444       187.8523 
 786   0.0000       6.906005       187.9220 
 787   0.0000       6.919926       188.3008 
 788   0.0000       6.962131       189.4492 
 789   0.0000       7.035217       191.4380 
 790   0.0000       7.046806       191.7534 
 791   0.0000       7.060835       192.1351 
 792   0.0000       7.077260       192.5820 
 793   0.0000       7.112080       193.5295 
 794   0.0000       7.220624       196.4832 
 795   0.0000       7.254189       197.3965 
 796   0.0000       7.266090       197.7203 
 797   0.0000       7.278347       198.0539 
 798   0.0000       7.339031       199.7052 
 799   0.0000       7.392738       201.1666 
 800   0.0000       7.417896       201.8512 
 801   0.0000       7.566704       205.9005 
 802   0.0000       7.580026       206.2630 
 803   0.0000       7.630582       207.6387 
 804   0.0000       7.706168       209.6955 
 805   0.0000       7.810276       212.5284 
 806   0.0000       7.823007       212.8749 
 807   0.0000       7.878794       214.3929 
 808   0.0000       7.929050       215.7604 
 809   0.0000       9.434606       256.7287 
 810   0.0000       9.543763       259.6990 
 811   0.0000      10.722444       291.7725 
 812   0.0000      11.364477       309.2431 
 813   0.0000      12.006189       326.7050 
 814   0.0000      12.601261       342.8977 
 815   0.0000      12.901768       351.0749 
 816   0.0000      13.047118       355.0301 
 817   0.0000      13.069900       355.6501 
 818   0.0000      13.160870       358.1255 
 819   0.0000      13.370964       363.8424 
 820   0.0000      13.553397       368.8067 
 821   0.0000      13.735686       373.7670 
 822   0.0000      13.943371       379.4184 
 823   0.0000      14.078599       383.0981 
 824   0.0000      14.133689       384.5972 
 825   0.0000      14.490087       394.2953 
 826   0.0000      14.696084       399.9008 
 827   0.0000      16.039662       436.4614 

                    ********************************
                    * MULLIKEN POPULATION ANALYSIS *
                    ********************************

-----------------------
MULLIKEN ATOMIC CHARGES
-----------------------
   0 C :   -0.339497
   1 C :    0.033010
   2 O :   -0.388219
   3 C :    0.496192
   4 O :   -0.400547
   5 C :   -0.289172
   6 C :    0.173195
   7 C :   -0.268379
   8 N :   -0.126948
   9 C :    0.207906
  10 S :   -0.438277
  11 N :   -0.211812
  12 C :    0.062142
  13 C :    0.037942
  14 C :   -0.175268
  15 C :   -0.135283
  16 C :   -0.274297
  17 C :    0.323881
  18 O :   -0.357472
  19 C :   -0.285798
  20 H :    0.110158
  21 H :    0.113535
  22 H :    0.118310
  23 H :    0.113985
  24 H :    0.120456
  25 H :    0.136412
  26 H :    0.094281
  27 H :    0.126708
  28 H :    0.199518
  29 H :    0.200649
  30 H :    0.151701
  31 H :    0.154201
  32 H :    0.166017
  33 H :    0.134168
  34 H :    0.241701
  35 H :    0.174901
Sum of atomic charges:    0.0000000

--------------------------------
MULLIKEN REDUCED ORBITAL CHARGES
--------------------------------
  0 C s       :     3.273093  s :     3.273093
      pz      :     1.022455  p :     2.988696
      px      :     0.970277
      py      :     0.995964
      dz2     :     0.013044  d :     0.073381
      dxz     :     0.007380
      dyz     :     0.024741
      dx2y2   :     0.007111
      dxy     :     0.021105
      f0      :     0.000402  f :     0.004326
      f+1     :     0.000360
      f-1     :     0.001246
      f+2     :     0.000114
      f-2     :     0.000650
      f+3     :     0.000316
      f-3     :     0.001237
  1 C s       :     3.162396  s :     3.162396
      pz      :     1.018284  p :     2.635131
      px      :     0.694329
      py      :     0.922517
      dz2     :     0.019782  d :     0.157931
      dxz     :     0.029762
      dyz     :     0.040295
      dx2y2   :     0.032649
      dxy     :     0.035443
      f0      :     0.001260  f :     0.011532
      f+1     :     0.001383
      f-1     :     0.001662
      f+2     :     0.000821
      f-2     :     0.001775
      f+3     :     0.002401
      f-3     :     0.002230
  2 O s       :     3.726359  s :     3.726359
      pz      :     1.820442  p :     4.628237
      px      :     1.502041
      py      :     1.305754
      dz2     :     0.004095  d :     0.031343
      dxz     :     0.002940
      dyz     :     0.005073
      dx2y2   :     0.013303
      dxy     :     0.005932
      f0      :     0.000355  f :     0.002280
      f+1     :     0.000208
      f-1     :     0.000414
      f+2     :     0.000314
      f-2     :     0.000200
      f+3     :     0.000244
      f-3     :     0.000544
  3 C s       :     2.988858  s :     2.988858
      pz      :     0.827705  p :     2.201814
      px      :     0.642519
      py      :     0.731591
      dz2     :     0.068839  d :     0.286490
      dxz     :     0.057372
      dyz     :     0.094419
      dx2y2   :     0.029748
      dxy     :     0.036113
      f0      :     0.005289  f :     0.026646
      f+1     :     0.003882
      f-1     :     0.007652
      f+2     :     0.003494
      f-2     :     0.001981
      f+3     :     0.002641
      f-3     :     0.001706
  4 O s       :     3.776177  s :     3.776177
      pz      :     1.381818  p :     4.586654
      px      :     1.406218
      py      :     1.798617
      dz2     :     0.013884  d :     0.035286
      dxz     :     0.011909
      dyz     :     0.008061
      dx2y2   :     0.000585
      dxy     :     0.000846
      f0      :     0.000841  f :     0.002430
      f+1     :     0.000602
      f-1     :     0.000700
      f+2     :     0.000116
      f-2     :     0.000157
      f+3     :     0.000003
      f-3     :     0.000011
  5 C s       :     3.197727  s :     3.197727
      pz      :     0.935957  p :     2.998979
      px      :     1.170634
      py      :     0.892388
      dz2     :     0.011319  d :     0.082351
      dxz     :     0.011555
      dyz     :     0.033753
      dx2y2   :     0.007425
      dxy     :     0.018298
      f0      :     0.001040  f :     0.010115
      f+1     :     0.001148
      f-1     :     0.002057
      f+2     :     0.002103
      f-2     :     0.000757
      f+3     :     0.001711
      f-3     :     0.001299
  6 C s       :     3.187032  s :     3.187032
      pz      :     0.839845  p :     2.446614
      px      :     0.790333
      py      :     0.816436
      dz2     :     0.034089  d :     0.178697
      dxz     :     0.020535
      dyz     :     0.048663
      dx2y2   :     0.017266
      dxy     :     0.058144
      f0      :     0.001924  f :     0.014461
      f+1     :     0.001121
      f-1     :     0.002889
      f+2     :     0.002756
      f-2     :     0.002115
      f+3     :     0.002417
      f-3     :     0.001238
  7 C s       :     3.268294  s :     3.268294
      pz      :     0.921410  p :     2.926499
      px      :     1.028468
      py      :     0.976621
      dz2     :     0.014959  d :     0.068928
      dxz     :     0.017927
      dyz     :     0.010565
      dx2y2   :     0.015215
      dxy     :     0.010261
      f0      :     0.000377  f :     0.004659
      f+1     :     0.001103
      f-1     :     0.000776
      f+2     :     0.000767
      f-2     :     0.000714
      f+3     :     0.000254
      f-3     :     0.000668
  8 N s       :     3.345028  s :     3.345028
      pz      :     1.184281  p :     3.717903
      px      :     1.457723
      py      :     1.075899
      dz2     :     0.014915  d :     0.059068
      dxz     :     0.010105
      dyz     :     0.014859
      dx2y2   :     0.011425
      dxy     :     0.007764
      f0      :     0.000654  f :     0.004948
      f+1     :     0.001080
      f-1     :     0.000667
      f+2     :     0.000924
      f-2     :     0.000865
      f+3     :     0.000303
      f-3     :     0.000454
  9 C s       :     3.158349  s :     3.158349
      pz      :     0.786957  p :     2.354081
      px      :     0.715583
      py      :     0.851541
      dz2     :     0.063993  d :     0.262066
      dxz     :     0.034042
      dyz     :     0.053698
      dx2y2   :     0.053669
      dxy     :     0.056664
      f0      :     0.002939  f :     0.017597
      f+1     :     0.002131
      f-1     :     0.002620
      f+2     :     0.003315
      f-2     :     0.001621
      f+3     :     0.002633
      f-3     :     0.002337
 10 S s       :     5.855316  s :     5.855316
      pz      :     3.448502  p :    10.487939
      px      :     3.592331
      py      :     3.447106
      dz2     :     0.010534  d :     0.084899
      dxz     :     0.010292
      dyz     :     0.036544
      dx2y2   :     0.008743
      dxy     :     0.018786
      f0      :     0.001077  f :     0.010123
      f+1     :     0.000414
      f-1     :     0.002292
      f+2     :     0.001948
      f-2     :     0.002558
      f+3     :     0.001195
      f-3     :     0.000640
 11 N s       :     3.384277  s :     3.384277
      pz      :     1.294337  p :     3.765270
      px      :     1.460708
      py      :     1.010226
      dz2     :     0.009366  d :     0.057829
      dxz     :     0.007205
      dyz     :     0.015379
      dx2y2   :     0.011299
      dxy     :     0.014579
      f0      :     0.000338  f :     0.004436
      f+1     :     0.000586
      f-1     :     0.000591
      f+2     :     0.000689
      f-2     :     0.000632
      f+3     :     0.000820
      f-3     :     0.000781
 12 C s       :     3.128169  s :     3.128169
      pz      :     0.825423  p :     2.612813
      px      :     0.958924
      py      :     0.828466
      dz2     :     0.034290  d :     0.185502
      dxz     :     0.033937
      dyz     :     0.039803
      dx2y2   :     0.031104
      dxy     :     0.046368
      f0      :     0.001232  f :     0.011375
      f+1     :     0.001183
      f-1     :     0.001935
      f+2     :     0.002143
      f-2     :     0.002366
      f+3     :     0.001262
      f-3     :     0.001254
 13 C s       :     3.094916  s :     3.094916
      pz      :     0.900701  p :     2.745640
      px      :     0.919495
      py      :     0.925443
      dz2     :     0.016369  d :     0.110210
      dxz     :     0.014582
      dyz     :     0.028316
      dx2y2   :     0.024045
      dxy     :     0.026898
      f0      :     0.001038  f :     0.011293
      f+1     :     0.001544
      f-1     :     0.001130
[...]
      f-1     :     0.004829
      f+2     :     0.006969
      f-2     :     0.005495
      f+3     :     0.006511
      f-3     :     0.009526
 15 C s       :     2.705835  s :     2.705835
      pz      :     0.887846  p :     2.796773
      px      :     0.948462
      py      :     0.960464
      dz2     :     0.084100  d :     0.416451
      dxz     :     0.073908
      dyz     :     0.052222
      dx2y2   :     0.104818
      dxy     :     0.101404
      f0      :     0.003078  f :     0.041034
      f+1     :     0.005157
      f-1     :     0.005340
      f+2     :     0.007250
      f-2     :     0.005924
      f+3     :     0.007404
      f-3     :     0.006879
 16 C s       :     2.701894  s :     2.701894
      pz      :     0.930840  p :     2.867692
      px      :     0.969726
      py      :     0.967126
      dz2     :     0.039052  d :     0.390989
      dxz     :     0.062498
      dyz     :     0.078123
      dx2y2   :     0.097734
      dxy     :     0.113583
      f0      :     0.003852  f :     0.040305
      f+1     :     0.004946
      f-1     :     0.003345
      f+2     :     0.005779
      f-2     :     0.005214
      f+3     :     0.008293
      f-3     :     0.008877
 17 C s       :     2.701385  s :     2.701385
      pz      :     0.847272  p :     2.681769
      px      :     0.820864
      py      :     1.013633
      dz2     :     0.116991  d :     0.708857
      dxz     :     0.118219
      dyz     :     0.123454
      dx2y2   :     0.176263
      dxy     :     0.173931
      f0      :     0.008174  f :     0.099285
      f+1     :     0.016691
      f-1     :     0.007733
      f+2     :     0.015498
      f-2     :     0.014022
      f+3     :     0.016575
      f-3     :     0.020593
 18 O s       :     3.177042  s :     3.177042
      pz      :     1.453874  p :     4.346226
      px      :     1.393752
      py      :     1.498601
      dz2     :     0.007393  d :     0.075542
      dxz     :     0.017388
      dyz     :     0.016245
      dx2y2   :     0.018516
      dxy     :     0.015999
      f0      :     0.000563  f :     0.005063
      f+1     :     0.000756
      f-1     :     0.000339
      f+2     :     0.000714
      f-2     :     0.000856
      f+3     :     0.000802
      f-3     :     0.001032
 19 C s       :     2.695186  s :     2.695186
      pz      :     0.922053  p :     2.839434
      px      :     0.957797
      py      :     0.959585
      dz2     :     0.069519  d :     0.389500
      dxz     :     0.069718
      dyz     :     0.055800
      dx2y2   :     0.092988
      dxy     :     0.101476
      f0      :     0.003139  f :     0.040883
      f+1     :     0.005230
      f-1     :     0.005023
      f+2     :     0.007243
      f-2     :     0.006532
      f+3     :     0.007211
      f-3     :     0.006504
 20 H s       :     0.847523  s :     0.847523
      pz      :     0.061502  p :     0.159181
      px      :     0.040260
      py      :     0.057419
      dz2     :     0.008179  d :     0.027966
      dxz     :     0.004252
      dyz     :     0.007061
      dx2y2   :     0.003539
      dxy     :     0.004935
 21 H s       :     0.842072  s :     0.842072
      pz      :     0.042444  p :     0.151826
      px      :     0.060841
      py      :     0.048541
      dz2     :     0.003004  d :     0.027557
      dxz     :     0.005788
      dyz     :     0.003674
      dx2y2   :     0.008123
      dxy     :     0.006968
 22 H s       :     0.845706  s :     0.845706
      pz      :     0.065491  p :     0.153254
      px      :     0.040081
      py      :     0.047682
      dz2     :     0.008427  d :     0.027557
      dxz     :     0.006619
      dyz     :     0.007752
      dx2y2   :     0.001867
      dxy     :     0.002891
 23 H s       :     0.851337  s :     0.851337
      pz      :     0.072217  p :     0.149458
      px      :     0.028720
      py      :     0.048521
      dz2     :     0.009270  d :     0.027124
      dxz     :     0.004390
      dyz     :     0.008548
      dx2y2   :     0.002120
      dxy     :     0.002796
 24 H s       :     0.854462  s :     0.854462
      pz      :     0.060618  p :     0.145883
      px      :     0.030709
      py      :     0.054557
      dz2     :     0.007401  d :     0.027058
      dxz     :     0.004168
      dyz     :     0.007829
      dx2y2   :     0.003729
      dxy     :     0.003931
 25 H s       :     0.824326  s :     0.824326
      pz      :     0.060211  p :     0.151838
      px      :     0.053184
      py      :     0.038443
      dz2     :     0.008071  d :     0.027740
      dxz     :     0.007012
      dyz     :     0.005325
      dx2y2   :     0.003621
      dxy     :     0.003711
 26 H s       :     0.844993  s :     0.844993
      pz      :     0.036953  p :     0.150501
      px      :     0.042983
      py      :     0.070565
      dz2     :     0.002608  d :     0.027712
      dxz     :     0.001038
      dyz     :     0.007954
      dx2y2   :     0.007076
      dxy     :     0.009034
 27 H s       :     0.828575  s :     0.828575
      pz      :     0.041342  p :     0.149846
      px      :     0.062774
      py      :     0.045731
      dz2     :     0.003272  d :     0.027768
      dxz     :     0.007112
      dyz     :     0.002566
      dx2y2   :     0.008342
      dxy     :     0.006477
 28 H s       :     0.741550  s :     0.741550
      pz      :     0.055806  p :     0.253369
      px      :     0.078916
      py      :     0.118647
      dz2     :     0.006119  d :     0.061763
      dxz     :     0.000947
      dyz     :     0.017747
      dx2y2   :     0.015637
      dxy     :     0.021313
 29 H s       :     0.748244  s :     0.748244
      pz      :     0.114181  p :     0.254050
      px      :     0.096396
      py      :     0.043473
      dz2     :     0.021467  d :     0.061423
      dxz     :     0.016009
      dyz     :     0.011264
      dx2y2   :     0.007240
      dxy     :     0.005443
 30 H s       :     0.828175  s :     0.828175
      pz      :     0.043048  p :     0.153795
      px      :     0.066823
      py      :     0.043924
      dz2     :     0.003579  d :     0.029402
      dxz     :     0.007743
      dyz     :     0.003391
      dx2y2   :     0.007460
      dxy     :     0.007229
 31 H s       :     0.842279  s :     0.842279
      pz      :     0.051334  p :     0.156809
      px      :     0.069341
      py      :     0.036135
      dz2     :     0.004581  d :     0.027489
      dxz     :     0.007240
      dyz     :     0.002521
      dx2y2   :     0.006424
      dxy     :     0.006723
 32 H s       :     0.842007  s :     0.842007
      pz      :     0.038094  p :     0.151409
      px      :     0.041341
      py      :     0.071974
      dz2     :     0.002705  d :     0.026449
      dxz     :     0.001303
      dyz     :     0.006709
      dx2y2   :     0.007813
      dxy     :     0.007919
 33 H s       :     0.847724  s :     0.847724
      pz      :     0.057853  p :     0.158750
      px      :     0.046441
      py      :     0.054456
      dz2     :     0.005900  d :     0.027720
      dxz     :     0.004547
      dyz     :     0.006106
      dx2y2   :     0.005825
      dxy     :     0.005342
 34 H s       :     0.705871  s :     0.705871
      pz      :     0.117141  p :     0.347357
      px      :     0.081126
      py      :     0.149090
      dz2     :     0.023897  d :     0.099451
      dxz     :     0.011463
      dyz     :     0.024471
      dx2y2   :     0.020337
      dxy     :     0.019282
 35 H s       :     0.838181  s :     0.838181
      pz      :     0.040430  p :     0.156419
      px      :     0.042367
      py      :     0.073622
      dz2     :     0.002718  d :     0.027978
      dxz     :     0.001407
      dyz     :     0.007451
      dx2y2   :     0.008227
      dxy     :     0.008176


                      *****************************
                      * MAYER POPULATION ANALYSIS *
                      *****************************

  NA   - Mulliken gross atomic population
  ZA   - Total nuclear charge
  QA   - Mulliken gross atomic charge
  VA   - Mayer's total valence
  BVA  - Mayer's bonded valence
  FA   - Mayer's free valence

  ATOM       NA         ZA         QA         VA         BVA        FA
  0 C      6.3395     6.0000    -0.3395     3.8658     3.8658    -0.0000
  1 C      5.9670     6.0000     0.0330     3.8683     3.8683    -0.0000
  2 O      8.3882     8.0000    -0.3882     1.9849     1.9849    -0.0000
  3 C      5.5038     6.0000     0.4962     4.2502     4.2502    -0.0000
  4 O      8.4005     8.0000    -0.4005     2.1128     2.1128     0.0000
  5 C      6.2892     6.0000    -0.2892     3.6283     3.6283     0.0000
  6 C      5.8268     6.0000     0.1732     3.8502     3.8502    -0.0000
  7 C      6.2684     6.0000    -0.2684     3.9062     3.9062    -0.0000
  8 N      7.1269     7.0000    -0.1269     3.3056     3.3056    -0.0000
  9 C      5.7921     6.0000     0.2079     4.1561     4.1561     0.0000
 10 S     16.4383    16.0000    -0.4383     1.7597     1.7597    -0.0000
 11 N      7.2118     7.0000    -0.2118     3.2421     3.2421    -0.0000
 12 C      5.9379     6.0000     0.0621     3.9312     3.9312     0.0000
 13 C      5.9621     6.0000     0.0379     3.7261     3.7261    -0.0000
 14 C      6.1753     6.0000    -0.1753     3.8397     3.8397     0.0000
 15 C      6.1353     6.0000    -0.1353     3.7911     3.7911     0.0000
 16 C      6.2743     6.0000    -0.2743     3.7919     3.7919     0.0000
 17 C      5.6761     6.0000     0.3239     3.8544     3.8544     0.0000
 18 O      8.3575     8.0000    -0.3575     2.1178     2.1178     0.0000
 19 C      6.2858     6.0000    -0.2858     3.8257     3.8257     0.0000
 20 H      0.8898     1.0000     0.1102     0.9768     0.9768    -0.0000
 21 H      0.8865     1.0000     0.1135     0.9838     0.9838    -0.0000
 22 H      0.8817     1.0000     0.1183     0.9817     0.9817     0.0000
 23 H      0.8860     1.0000     0.1140     0.9623     0.9623    -0.0000
 24 H      0.8795     1.0000     0.1205     0.9758     0.9758    -0.0000
 25 H      0.8636     1.0000     0.1364     0.9791     0.9791    -0.0000
 26 H      0.9057     1.0000     0.0943     0.9847     0.9847     0.0000
 27 H      0.8733     1.0000     0.1267     0.9795     0.9795    -0.0000
 28 H      0.8005     1.0000     0.1995     1.0206     1.0206    -0.0000
 29 H      0.7994     1.0000     0.2006     1.0151     1.0151     0.0000
 30 H      0.8483     1.0000     0.1517     0.9853     0.9853     0.0000
 31 H      0.8458     1.0000     0.1542     0.9873     0.9873     0.0000
 32 H      0.8340     1.0000     0.1660     0.9754     0.9754     0.0000
 33 H      0.8658     1.0000     0.1342     0.9905     0.9905     0.0000
 34 H      0.7583     1.0000     0.2417     1.0102     1.0102     0.0000
 35 H      0.8251     1.0000     0.1749     0.9829     0.9829     0.0000

  Mayer bond orders larger than 0.100000
B(  0-C ,  1-C ) :   0.9584 B(  0-C , 20-H ) :   0.9690 B(  0-C , 21-H ) :   0.9758 
B(  0-C , 22-H ) :   0.9726 B(  1-C ,  2-O ) :   0.8908 B(  1-C , 23-H ) :   0.9719 
B(  1-C , 24-H ) :   0.9870 B(  2-O ,  3-C ) :   1.1034 B(  3-C ,  4-O ) :   2.0443 
B(  3-C ,  5-C ) :   1.0366 B(  5-C ,  6-C ) :   1.6366 B(  5-C , 12-C ) :   0.9599 
B(  6-C ,  7-C ) :   0.9642 B(  6-C ,  8-N ) :   1.1509 B(  7-C , 25-H ) :   0.9551 
B(  7-C , 26-H ) :   0.9881 B(  7-C , 27-H ) :   0.9669 B(  8-N ,  9-C ) :   1.1867 
B(  8-N , 28-H ) :   0.9471 B(  9-C , 10-S ) :   1.6124 B(  9-C , 11-N ) :   1.3045 
B( 11-N , 12-C ) :   0.9714 B( 11-N , 29-H ) :   0.9484 B( 12-C , 13-C ) :   0.9609 
B( 12-C , 30-H ) :   1.0027 B( 13-C , 14-C ) :   1.3523 B( 13-C , 19-C ) :   1.3576 
B( 14-C , 15-C ) :   1.3935 B( 14-C , 31-H ) :   0.9729 B( 15-C , 16-C ) :   1.3558 
B( 15-C , 32-H ) :   0.9699 B( 16-C , 17-C ) :   1.3333 B( 16-C , 33-H ) :   0.9837 
B( 17-C , 18-O ) :   1.1071 B( 17-C , 19-C ) :   1.3565 B( 18-O , 34-H ) :   0.9791 
B( 19-C , 35-H ) :   0.9577 

-------
TIMINGS
-------

Total SCF time: 0 days 2 hours 4 min 18 sec 

Total time                  ....    7458.280 sec
Sum of individual times     ....    7445.344 sec  ( 99.8%)

Fock matrix formation       ....    7408.145 sec  ( 99.3%)
Diagonalization             ....       2.245 sec  (  0.0%)
Density matrix formation    ....       0.303 sec  (  0.0%)
Population analysis         ....       0.389 sec  (  0.0%)
Initial guess               ....       6.101 sec  (  0.1%)
Orbital Transformation      ....       0.000 sec  (  0.0%)
Orbital Orthonormalization  ....       0.000 sec  (  0.0%)
DIIS solution               ....      23.189 sec  (  0.3%)
SOSCF solution              ....       3.519 sec  (  0.0%)

------------------------------------------------------------------------------
                                ORCA  MP2 
------------------------------------------------------------------------------

Freezing NCore=48 chemical core electrons

-------------
RI-MP2 ENERGY
-------------
Dimension of the basis                    ...  828
Memory devoted to MP2                     ...  256 MB   
Data format for buffers                   ... DOUBLE
Compression type for matrix containers    ... UNCOMPRESSED
Overall scaling of the MP2 energy         ...   1.000e+00
Calculating two index integrals           ... done (    0.047 sec)
Cholesky decomposition of V**-1           ... done (    0.457 sec)

-----------------
RI-TRANSFORMATION (AUX index driven)
-----------------

Dimension of the orbital-basis         ... 828
Dimension of the aux-basis             ... 2141
Transformation of internal/external MOs...   24-  76 to   77- 827
Number Format for Storage              ... Double (8 Byte)
Integral mode                          ... Direct

First Phase: integral generation and transformation of MO indices
  Aux angular momentum 0               ... done (    5.782 sec)
  Aux angular momentum 1               ... done (   10.505 sec)
  Aux angular momentum 2               ... done (   13.176 sec)
  Aux angular momentum 3               ... done (   10.590 sec)
  Aux angular momentum 4               ... done (    3.481 sec)
Closing buffer VIA ( 0.63 GB; CompressionRatio= 1.00)
  Phase 1 completed in    43.916 sec
Second Phase: sorting and transformation of aux index

IA-Transformation
Memory available                       ... 167 MB 
Max. # MO pairs treated in a batch     ... 12    
# of internal orbitals                 ... 53
# batches for internal orbitals        ... 5
Closing buffer IAV ( 0.63 GB; CompressionRatio= 1.00)
(ia|v) transformation done in    59.136 sec

  Phase 2 completed in    59.192 sec
RI-Integral transformation completed in   103.122 sec
Opening buffers                              ... done

Starting loop over batches of integrals:

Operator 0  - window                       ... ( 24- 76)x( 77-827)
Operator 0  - Memory available             ...   256 MB
Operator 0  - Memory needed per MO         ...  12.3 MB
Operator 0  - Number of orbitals per batch ... 13
Operator 0  - Number of batches            ... 5

OPERATOR  0   PASS   0:  MOs    24 ...   36
  Reading integrals       ... ok
  Internal MO  26
  Internal MO  29
  Internal MO  32
  Internal MO  35
OPERATOR  0   PASS   1:  MOs    37 ...   49
  Reading integrals       ... ok
  Internal MO  38
  Internal MO  41
  Internal MO  44
  Internal MO  47
OPERATOR  0   PASS   2:  MOs    50 ...   62
  Reading integrals       ... ok
  Internal MO  50
  Internal MO  53
  Internal MO  56
  Internal MO  59
  Internal MO  62
OPERATOR  0   PASS   3:  MOs    63 ...   75
  Reading integrals       ... ok
  Internal MO  65
  Internal MO  68
  Internal MO  71
  Internal MO  74
OPERATOR  0   PASS   4:  MOs    76 ...   76
  Reading integrals       ... ok
Time spent in pair loops =   150.055 sec
Deleting buffer (Ka|jb)[aa] ...done

-----------------------------------------------
 RI-MP2 CORRELATION ENERGY:     -3.535774642 Eh
-----------------------------------------------


-------
TIMINGS
-------

Total time                :  254.334 sec
Integral trafo            :  103.141 sec ( 40.6%)
I/O of integrals          :    5.436 sec (  2.1%)
K(i,j) Operators          :   62.621 sec ( 24.6%)
T(i,j) pair energies      :   10.756 sec (  4.2%)
V-calculation             :    0.047 sec (  0.0%)
V**(-1/2)                 :    0.457 sec (  0.2%)
Gamma(ia|P)               :    0.000 sec (  0.0%)
Gamma-Trafo               :    0.000 sec (  0.0%)
D(virtual)                :    0.000 sec (  0.0%)
D(internal)               :    0.000 sec (  0.0%)
W(virtual)                :    0.000 sec (  0.0%)
W(internal)               :    0.000 sec (  0.0%)
L(virtual)                :    0.000 sec (  0.0%)
L(internal)               :    0.000 sec (  0.0%)
G(D)                      :    0.000 sec (  0.0%)
G(Z)                      :    0.000 sec (  0.0%)
Z-Vector Solution         :    0.000 sec (  0.0%)
3-Index Derivative        :    0.000 sec (  0.0%)
2-Index Derivative        :    0.000 sec (  0.0%)
Separable Gradient        :    0.000 sec (  0.0%)


---------------------------------------
MP2 TOTAL ENERGY:    -1274.322046442 Eh
---------------------------------------

-------------------------   --------------------
FINAL SINGLE POINT ENERGY     -1274.322046441737
-------------------------   --------------------


                            ***************************************
                            *     ORCA property calculations      *
                            ***************************************


  WARNING: The energy has been calculated at the MP2 level but the densities
           used in the property calculations are still SCF densities
           MP2 response densities have not been calculated 
           use %mp2 Density relaxed end
           or  %mp2 Density unrelaxed end

                                    ---------------------
                                    Active property flags
                                    ---------------------
   (+) Dipole Moment


------------------------------------------------------------------------------
                       ORCA ELECTRIC PROPERTIES CALCULATION
------------------------------------------------------------------------------

Dipole Moment Calculation                       ... on
Quadrupole Moment Calculation                   ... off
Polarizability Calculation                      ... off
GBWName                                         ... CONFS/Conf457.orca.gbw
Electron density file                           ... CONFS/Conf457.orca.scfp
The origin for moment calculation is the CENTER OF MASS  = (31.839361, 32.969627 33.275282)

-------------
DIPOLE MOMENT
-------------
                                X             Y             Z
Electronic contribution:      9.26468       8.06497       6.05718
Nuclear contribution   :    -10.43637      -9.66382      -5.85025
                        -----------------------------------------
Total Dipole Moment    :     -1.17169      -1.59885       0.20692
                        -----------------------------------------
Magnitude (a.u.)       :      1.99299
Magnitude (Debye)      :      5.06577



--------------------
Rotational spectrum 
--------------------
 
Rotational constants in cm-1:     0.012382     0.009015     0.006328 
Rotational constants in MHz :   371.214864   270.260043   189.721127 

 Dipole components along the rotational axes: 
x,y,z [a.u.] :    -1.936796    -0.217795     0.416398 
x,y,z [Debye]:    -4.922943    -0.553590     1.058399 

 

Timings for individual modules:

Sum of individual times         ...     7715.678 sec (= 128.595 min)
GTO integral calculation        ...        1.767 sec (=   0.029 min)   0.0 %
SCF iterations                  ...     7458.388 sec (= 124.306 min)  96.7 %
MP2 module                      ...      255.523 sec (=   4.259 min)   3.3 %
                             ****ORCA TERMINATED NORMALLY****
TOTAL RUN TIME: 0 days 2 hours 8 minutes 36 seconds 745 msec
