
                                 *****************
                                 * O   R   C   A *
                                 *****************

           --- An Ab Initio, DFT and Semiempirical electronic structure package ---

                  #######################################################
                  #                        -***-                        #
                  #          Department of theory and spectroscopy      #
                  #               Directorship: Frank Neese             #
                  #        Max Planck Institute fuer Kohlenforschung    #
                  #                Kaiser Wilhelm Platz 1               #
                  #                 D-45470 Muelheim/Ruhr               #
                  #                      Germany                        #
                  #                                                     #
                  #                  All rights reserved                #
                  #                        -***-                        #
                  #######################################################


                         Program Version 4.2.0 -  RELEASE  -


 With contributions from (in alphabetic order):
   Daniel Aravena         : Magnetic Suceptibility
   Michael Atanasov       : Ab Initio Ligand Field Theory (pilot matlab implementation)
   Alexander A. Auer      : GIAO ZORA, VPT2
   Ute Becker             : Parallelization
   Giovanni Bistoni       : ED, misc. LED, open-shell LED, HFLED
   Martin Brehm           : Molecular dynamics
   Dmytro Bykov           : SCF Hessian
   Vijay G. Chilkuri      : MRCI spin determinant printing, contributions to CSF-ICE
   Dipayan Datta          : RHF DLPNO-CCSD density
   Achintya Kumar Dutta   : EOM-CC, STEOM-CC
   Dmitry Ganyushin       : Spin-Orbit,Spin-Spin,Magnetic field MRCI
   Miquel Garcia          : C-PCM Hessian, Gaussian charge scheme
   Yang Guo               : DLPNO-NEVPT2, CIM, IAO-localization
   Andreas Hansen         : Spin unrestricted coupled pair/coupled cluster methods
   Benjamin Helmich-Paris : CASSCF linear response (MC-RPA)
   Lee Huntington         : MR-EOM, pCC
   Robert Izsak           : Overlap fitted RIJCOSX, COSX-SCS-MP3, EOM
   Christian Kollmar      : KDIIS, OOCD, Brueckner-CCSD(T), CCSD density
   Simone Kossmann        : Meta GGA functionals, TD-DFT gradient, OOMP2, MP2 Hessian
   Martin Krupicka        : AUTO-CI
   Lucas Lang             : DCDCAS
   Dagmar Lenk            : GEPOL surface, SMD
   Dimitrios Liakos       : Extrapolation schemes; Compound Job, initial MDCI parallelization
   Dimitrios Manganas     : Further ROCIS development; embedding schemes
   Dimitrios Pantazis     : SARC Basis sets
   Taras Petrenko         : DFT Hessian,TD-DFT gradient, ASA, ECA, R-Raman, ABS, FL, XAS/XES, NRVS
   Peter Pinski           : DLPNO-MP2, DLPNO-MP2 Gradient
   Christoph Reimann      : Effective Core Potentials
   Marius Retegan         : Local ZFS, SOC
   Christoph Riplinger    : Optimizer, TS searches, QM/MM, DLPNO-CCSD(T), (RO)-DLPNO pert. Triples
   Tobias Risthaus        : Range-separated hybrids, TD-DFT gradient, RPA, STAB
   Michael Roemelt        : Original ROCIS implementation
   Masaaki Saitow         : Open-shell DLPNO-CCSD energy and density
   Barbara Sandhoefer     : DKH picture change effects
   Avijit Sen             : IP-ROCIS
   Kantharuban Sivalingam : CASSCF convergence, NEVPT2, FIC-MRCI
   Bernardo de Souza      : ESD, SOC TD-DFT
   Georgi Stoychev        : AutoAux, RI-MP2 NMR
   Willem Van den Heuvel  : Paramagnetic NMR
   Boris Wezisla          : Elementary symmetry handling
   Frank Wennmohs         : Technical directorship


 We gratefully acknowledge several colleagues who have allowed us to
 interface, adapt or use parts of their codes:
   Stefan Grimme, W. Hujo, H. Kruse,             : VdW corrections, initial TS optimization,
                  C. Bannwarth                     DFT functionals, gCP, sTDA/sTD-DF
   Ed Valeev, F. Pavosevic, A. Kumar             : LibInt (2-el integral package), F12 methods
   Garnet Chan, S. Sharma, J. Yang, R. Olivares  : DMRG
   Ulf Ekstrom                                   : XCFun DFT Library
   Mihaly Kallay                                 : mrcc  (arbitrary order and MRCC methods)
   Andreas Klamt, Michael Diedenhofen            : otool_cosmo (COSMO solvation model)
   Jiri Pittner, Ondrej Demel                    : Mk-CCSD
   Frank Weinhold                                : gennbo (NPA and NBO analysis)
   Christopher J. Cramer and Donald G. Truhlar   : smd solvation model
   Lars Goerigk                                  : TD-DFT with DH, B97 family of functionals
   V. Asgeirsson, H. Jonsson                     : NEB implementation
   FAccTs GmbH                                   : IRC, NEB, NEB-TS, Multilevel, MM, QM/MM, CI optimization
   S Lehtola, MJT Oliveira, MAL Marques          : LibXC Library


 Your calculation uses the libint2 library for the computation of 2-el integrals
 For citations please refer to: http://libint.valeyev.net

 Your ORCA version has been built with support for libXC version: 4.2.3
 For citations please refer to: https://tddft.org/programs/libxc/

 This ORCA versions uses:
   CBLAS   interface :  Fast vector & matrix operations
   LAPACKE interface :  Fast linear algebra routines
   SCALAPACK package :  Parallel linear algebra routines


----- Orbital basis set information -----
Your calculation utilizes the basis: cc-pVTZ 
       H, B-Ne : Obtained from the ccRepo (grant-hill.group.shef.ac.uk/ccrepo) Feb. 2017
                 T. H. Dunning, Jr., J. Chem. Phys. 90, 1007 (1989)
            He : Obtained from the ccRepo (grant-hill.group.shef.ac.uk/ccrepo) Feb. 2017
                 D. E. Woon, T. H. Dunning, Jr., J. Chem. Phys. 100, 2975 (1994)
  Li-Be, Na-Mg : Obtained from the ccRepo (grant-hill.group.shef.ac.uk/ccrepo) Feb. 2017
                 B. P. Prascher, D. E. Woon, K. A. Peterson, T. H. Dunning, Jr., A. K. Wilson, Theor. Chem. Acc. 128, 69 (2011)
         Al-Ar : Obtained from the ccRepo (grant-hill.group.shef.ac.uk/ccrepo) Feb. 2017
                 D. E. Woon, T. H. Dunning, Jr., J. Chem. Phys. 98, 1358 (1993)
            Ca : Obtained from the Peterson Research Group Website (tyr0.chem.wsu.edu/~kipeters) Feb. 2017
                 J. Koput, K. A. Peterson, J. Phys. Chem. 106, 9595 (2002)
         Sc-Zn : Obtained from the ccRepo (grant-hill.group.shef.ac.uk/ccrepo) Feb. 2017
                 N. B. Balabanov, K. A. Peterson, J. Chem. Phys. 123, 064107 (2005)
                 N. B. Balabanov, K. A. Peterson, J. Chem. Phys. 125, 074110 (2006)
         Ga-Kr : Obtained from the ccRepo (grant-hill.group.shef.ac.uk/ccrepo) Feb. 2017
                 A. K. Wilson, D. E. Woon, K. A. Peterson, T. H. Dunning, Jr., J. Chem. Phys. 110, 7667 (1999)
             Y : Obtained from the ccRepo (grant-hill.group.shef.ac.uk/ccrepo) Feb. 2017
                 K. A. Peterson, D. Figgen, M. Dolg, H. Stoll, J. Chem. Phys. 126, 124101 (2007)
        Ag, Au : Obtained from the Peterson Research Group Website (tyr0.chem.wsu.edu/~kipeters) Feb. 2017
                 K. A. Peterson, C. Puzzarini, Theor. Chem. Acc. 114, 283 (2005)

----- AuxC basis set information -----
Your calculation utilizes the auxiliary basis: cc-pVTZ/C 
  Obtained from the EMSL Basis Set Exchange (bse.pnl.gov) Feb. 2017
  H-He, B-F, Al-Ar, Ga-Kr : F. Weigend, A. Kohn, C. Hattig, J. Chem. Phys. 116, 3175 (2002)
             Li-Be, Na-Mg : C. Haettig, Phys. Chem. Chem. Phys. 7, 59 (2005)
                       Ne : C. Haettig, Phys. Chem. Chem. Phys. 7, 59 (2005)
                            F. Weigend, A. Kohn, C. Hattig, J. Chem. Phys. 116, 3175 (2002)
                    Sc-Zn : J. G. Hill, J. A. Platts, J. Chem. Phys. 128, 044104 (2008)

================================================================================
                                        WARNINGS
                       Please study these warnings very carefully!
================================================================================


WARNING: No MP2 level density has been requested!
         To caclulate MP2 level properties use
         %mp2 Density relaxed end
         or
         %mp2 Density unrelaxed end

WARNING: Post HF methods need fully converged wavefunctions
  ===> : Setting SCFConvForced true
         You can overwrite this default with %scf ConvForced false 


INFO   : the flag for use of LIBINT has been found!

================================================================================
                                       INPUT FILE
================================================================================
NAME = CONFS/Conf7.orca
|  1> ! ri-mp2 cc-pvtz cc-pvtz/c TightSCF NoKeepInts
|  2> 
|  3> %scf
|  4>   MaxCore 4096
|  5> end
|  6> *xyz  0  1
|  7>     C       14.3963402   15.0801426   16.6489787
|  8>     C       15.7030948   14.6796207   15.9432740
|  9>     O       16.5326649   15.8539844   15.8881884
| 10>     C       17.7470285   15.8397338   16.5098285
| 11>     O       18.4080565   14.8187516   16.6065909
| 12>     C       17.9281402   16.9920283   17.4519274
| 13>     C       17.3771593   18.2198097   17.2738273
| 14>     C       16.5294405   18.6932043   16.1113115
| 15>     N       17.6359204   19.2378761   18.1968750
| 16>     C       18.5250606   19.1462439   19.2353046
| 17>     S       18.8529186   20.4359145   20.2175826
| 18>     N       19.1301702   17.9283373   19.4181855
| 19>     C       18.7899428   16.6956896   18.6828152
| 20>     C       18.0875258   15.7013334   19.6031864
| 21>     C       18.6094852   14.4078460   19.7879078
| 22>     C       17.9571333   13.4848726   20.6225052
| 23>     C       16.7707600   13.8568973   21.2774265
| 24>     C       16.2452103   15.1428096   21.0923538
| 25>     O       15.0946559   15.5021621   21.7154924
| 26>     C       16.8972788   16.0596105   20.2620923
| 27>     H       14.5997883   15.4195321   17.6728299
| 28>     H       13.7111581   14.2253929   16.7022098
| 29>     H       13.8940764   15.8905176   16.1064729
| 30>     H       16.1813319   13.8598325   16.4972105
| 31>     H       15.4866645   14.3281190   14.9262627
| 32>     H       16.9466113   18.3494659   15.1565380
| 33>     H       16.4634122   19.7866022   16.0563546
| 34>     H       15.5083991   18.3000352   16.1926041
| 35>     H       17.2018675   20.1395262   18.0797093
| 36>     H       19.7573351   17.8792856   20.2107683
| 37>     H       19.7293769   16.2427540   18.3342533
| 38>     H       19.5159974   14.1112764   19.2659993
| 39>     H       18.3681700   12.4853329   20.7523683
| 40>     H       16.2622713   13.1460413   21.9201477
| 41>     H       14.8271757   14.7608353   22.2792895
| 42>     H       16.4753772   17.0505825   20.1353280
| 43> *
| 44> 
| 45>                          ****END OF INPUT****
================================================================================

                       ****************************
                       * Single Point Calculation *
                       ****************************

---------------------------------
CARTESIAN COORDINATES (ANGSTROEM)
---------------------------------
  C     14.396340   15.080143   16.648979
  C     15.703095   14.679621   15.943274
  O     16.532665   15.853984   15.888188
  C     17.747028   15.839734   16.509829
  O     18.408056   14.818752   16.606591
  C     17.928140   16.992028   17.451927
  C     17.377159   18.219810   17.273827
  C     16.529440   18.693204   16.111311
  N     17.635920   19.237876   18.196875
  C     18.525061   19.146244   19.235305
  S     18.852919   20.435914   20.217583
  N     19.130170   17.928337   19.418185
  C     18.789943   16.695690   18.682815
  C     18.087526   15.701333   19.603186
  C     18.609485   14.407846   19.787908
  C     17.957133   13.484873   20.622505
  C     16.770760   13.856897   21.277427
  C     16.245210   15.142810   21.092354
  O     15.094656   15.502162   21.715492
  C     16.897279   16.059611   20.262092
  H     14.599788   15.419532   17.672830
  H     13.711158   14.225393   16.702210
  H     13.894076   15.890518   16.106473
  H     16.181332   13.859832   16.497211
  H     15.486664   14.328119   14.926263
  H     16.946611   18.349466   15.156538
  H     16.463412   19.786602   16.056355
  H     15.508399   18.300035   16.192604
  H     17.201867   20.139526   18.079709
  H     19.757335   17.879286   20.210768
  H     19.729377   16.242754   18.334253
  H     19.515997   14.111276   19.265999
  H     18.368170   12.485333   20.752368
  H     16.262271   13.146041   21.920148
  H     14.827176   14.760835   22.279290
  H     16.475377   17.050583   20.135328

----------------------------
CARTESIAN COORDINATES (A.U.)
----------------------------
  NO LB      ZA    FRAG     MASS         X           Y           Z
   0 C     6.0000    0    12.011   27.205140   28.497340   31.462010
   1 C     6.0000    0    12.011   29.674549   27.740463   30.128422
   2 O     8.0000    0    15.999   31.242209   29.959689   30.024325
   3 C     6.0000    0    12.011   33.537024   29.932759   31.199054
   4 O     8.0000    0    15.999   34.786185   28.003382   31.381909
   5 C     6.0000    0    12.011   33.879275   32.110280   32.979363
   6 C     6.0000    0    12.011   32.838072   34.430451   32.642803
   7 C     6.0000    0    12.011   31.236116   35.325037   30.445966
   8 N     7.0000    0    14.007   33.327060   36.354317   34.387110
   9 C     6.0000    0    12.011   35.007291   36.181157   36.349458
  10 S    16.0000    0    32.060   35.626853   38.618282   38.205694
  11 N     7.0000    0    14.007   36.150783   33.879648   36.695053
  12 C     6.0000    0    12.011   35.507846   31.550281   35.305404
  13 C     6.0000    0    12.011   34.180470   29.671220   37.044654
  14 C     6.0000    0    12.011   35.166831   27.226883   37.393727
  15 C     6.0000    0    12.011   33.934064   25.482716   38.970887
  16 C     6.0000    0    12.011   31.692143   26.185741   40.208509
  17 C     6.0000    0    12.011   30.698998   28.615763   39.858772
  18 O     8.0000    0    15.999   28.524766   29.294841   41.036333
  19 C     6.0000    0    12.011   31.931229   30.348266   38.289805
  20 H     1.0000    0     1.008   27.589602   29.138693   33.396809
  21 H     1.0000    0     1.008   25.910334   26.882097   31.562602
  22 H     1.0000    0     1.008   26.255999   30.028726   30.436823
  23 H     1.0000    0     1.008   30.578286   26.191288   31.175210
  24 H     1.0000    0     1.008   29.265555   27.076221   28.206549
  25 H     1.0000    0     1.008   32.024454   34.675465   28.641706
  26 H     1.0000    0     1.008   31.111340   37.391259   30.342113
  27 H     1.0000    0     1.008   29.306627   34.582055   30.599587
  28 H     1.0000    0     1.008   32.506819   38.058189   34.165699
  29 H     1.0000    0     1.008   37.335952   33.786953   38.192817
  30 H     1.0000    0     1.008   37.283119   30.694357   34.646718
  31 H     1.0000    0     1.008   36.879890   26.666448   36.407462
  32 H     1.0000    0     1.008   34.710811   23.593860   39.216293
  33 H     1.0000    0     1.008   30.731239   24.842418   41.423076
  34 H     1.0000    0     1.008   28.019301   27.893936   42.101756
  35 H     1.0000    0     1.008   31.133951   32.220931   38.050256

--------------------------------
INTERNAL COORDINATES (ANGSTROEM)
--------------------------------
 C      0   0   0     0.000000000000     0.00000000     0.00000000
 C      1   0   0     1.538195208874     0.00000000     0.00000000
 O      2   1   0     1.438871458477   107.14797648     0.00000000
 C      3   2   1     1.364301450022   119.15740695   119.12896073
 O      4   3   2     1.220133448257   121.80984175    31.84003484
 C      4   3   2     1.499378004370   112.69241719   233.00041970
 C      6   4   3     1.357478089684   124.30692357   328.23604389
 C      7   6   4     1.514652632267   127.62891408   357.93951957
 N      7   6   4     1.398368176897   119.78653257   181.59343283
 C      9   7   6     1.370146995577   124.86693503     6.63827808
 S     10   9   7     1.653968317094   121.77579944   175.49013318
 N     10   9   7     1.372187865389   116.52178122   355.50443444
 C     12  10   9     1.475108305904   124.99650667   353.13020223
 C     13  12  10     1.526177263674   110.48492107   250.59326281
 C     14  13  12     1.407008622868   120.49091371   237.00122498
 C     15  14  13     1.404989579544   120.64148259   180.72977399
 C     16  15  14     1.405277870585   119.66411323     0.09481649
 C     17  16  15     1.401436703796   119.86495227     0.12591120
 O     18  17  16     1.356912436904   120.02191830   179.52070206
 C     18  17  16     1.398231517781   120.34238784   359.81620334
 H      1   2   3     1.097655520573   110.54781844   298.50383972
 H      1   2   3     1.096770308596   110.49159087   178.82066160
 H      1   2   3     1.096945353447   110.75939079    58.83429876
 H      2   1   3     1.098912672922   109.43234897   121.83732017
 H      2   1   3     1.097591683728   109.93631992   240.66198340
 H      8   7   6     1.097169084649   110.92708841   317.06615264
 H      8   7   6     1.096767507261   112.56528272   197.26406529
 H      8   7   6     1.097139903806   110.60893091    76.66214506
 H      9   7   6     1.007523014171   119.67323802   182.01297737
 H     12  10   9     1.011893954879   114.88090785   182.02277018
 H     13  12  10     1.099628339086   107.76852154   132.30321095
 H     15  14  13     1.087247156246   119.80474812   359.56240320
 H     16  15  14     1.088528918019   119.91807894   179.64010852
 H     17  16  15     1.084881353740   119.88954758   179.79983430
 H     19  18  17     0.969008901795   107.37624526     3.57378758
 H     20  18  17     1.084479438542   119.15218783   180.20641354

---------------------------
INTERNAL COORDINATES (A.U.)
---------------------------
 C      0   0   0     0.000000000000     0.00000000     0.00000000
 C      1   0   0     2.906767685282     0.00000000     0.00000000
 O      2   1   0     2.719072998437   107.14797648     0.00000000
 C      3   2   1     2.578156104654   119.15740695   119.12896073
 O      4   3   2     2.305718064042   121.80984175    31.84003484
 C      4   3   2     2.833413799485   112.69241719   233.00041970
 C      6   4   3     2.565261822300   124.30692357   328.23604389
 C      7   6   4     2.862278663007   127.62891408   357.93951957
 N      7   6   4     2.642532888726   119.78653257   181.59343283
 C      9   7   6     2.589202584856   124.86693503     6.63827808
 S     10   9   7     3.125547153491   121.77579944   175.49013318
 N     10   9   7     2.593059269875   116.52178122   355.50443444
 C     12  10   9     2.787550716032   124.99650667   353.13020223
 C     13  12  10     2.884057060162   110.48492107   250.59326281
 C     14  13  12     2.658860965286   120.49091371   237.00122498
 C     15  14  13     2.655045526352   120.64148259   180.72977399
 C     16  15  14     2.655590317466   119.66411323     0.09481649
 C     17  16  15     2.648331564200   119.86495227     0.12591120
 O     18  17  16     2.564192893461   120.02191830   179.52070206
 C     18  17  16     2.642274640423   120.34238784   359.81620334
 H      1   2   3     2.074268323271   110.54781844   298.50383972
 H      1   2   3     2.072595515063   110.49159087   178.82066160
 H      1   2   3     2.072926301892   110.75939079    58.83429876
 H      2   1   3     2.076643996917   109.43234897   121.83732017
 H      2   1   3     2.074147689115   109.93631992   240.66198340
 H      8   7   6     2.073349092592   110.92708841   317.06615264
 H      8   7   6     2.072590221306   112.56528272   197.26406529
 H      8   7   6     2.073293948790   110.60893091    76.66214506
 H      9   7   6     1.903942570407   119.67323802   182.01297737
 H     12  10   9     1.912202451292   114.88090785   182.02277018
 H     13  12  10     2.077996409972   107.76852154   132.30321095
 H     15  14  13     2.054599365190   119.80474812   359.56240320
 H     16  15  14     2.057021543910   119.91807894   179.64010852
 H     17  16  15     2.050128646367   119.88954758   179.79983430
 H     19  18  17     1.831161445725   107.37624526     3.57378758
 H     20  18  17     2.049369136714   119.15218783   180.20641354

---------------------
BASIS SET INFORMATION
---------------------
There are 5 groups of distinct atoms

 Group   1 Type C   : 18s5p2d1f contracted to 4s3p2d1f pattern {8811/311/11/1}
 Group   2 Type O   : 18s5p2d1f contracted to 4s3p2d1f pattern {8811/311/11/1}
 Group   3 Type N   : 18s5p2d1f contracted to 4s3p2d1f pattern {8811/311/11/1}
 Group   4 Type S   : 41s16p2d1f contracted to 5s4p2d1f pattern {13131311/7711/11/1}
 Group   5 Type H   : 5s2p1d contracted to 3s2p1d pattern {311/11/1}

Atom   0C    basis set group =>   1
Atom   1C    basis set group =>   1
Atom   2O    basis set group =>   2
Atom   3C    basis set group =>   1
Atom   4O    basis set group =>   2
Atom   5C    basis set group =>   1
Atom   6C    basis set group =>   1
Atom   7C    basis set group =>   1
Atom   8N    basis set group =>   3
Atom   9C    basis set group =>   1
Atom  10S    basis set group =>   4
Atom  11N    basis set group =>   3
Atom  12C    basis set group =>   1
Atom  13C    basis set group =>   1
Atom  14C    basis set group =>   1
Atom  15C    basis set group =>   1
Atom  16C    basis set group =>   1
Atom  17C    basis set group =>   1
Atom  18O    basis set group =>   2
Atom  19C    basis set group =>   1
Atom  20H    basis set group =>   5
Atom  21H    basis set group =>   5
Atom  22H    basis set group =>   5
Atom  23H    basis set group =>   5
Atom  24H    basis set group =>   5
Atom  25H    basis set group =>   5
Atom  26H    basis set group =>   5
Atom  27H    basis set group =>   5
Atom  28H    basis set group =>   5
Atom  29H    basis set group =>   5
Atom  30H    basis set group =>   5
Atom  31H    basis set group =>   5
Atom  32H    basis set group =>   5
Atom  33H    basis set group =>   5
Atom  34H    basis set group =>   5
Atom  35H    basis set group =>   5
---------------------------------
AUXILIARY/C BASIS SET INFORMATION
---------------------------------
There are 5 groups of distinct atoms

 Group   1 Type C   : 8s6p5d3f1g contracted to 8s6p5d3f1g pattern {11111111/111111/11111/111/1}
 Group   2 Type O   : 8s6p5d3f1g contracted to 8s6p5d3f1g pattern {11111111/111111/11111/111/1}
 Group   3 Type N   : 8s6p5d3f1g contracted to 8s6p5d3f1g pattern {11111111/111111/11111/111/1}
 Group   4 Type S   : 10s8p7d5f2g contracted to 10s8p7d5f2g pattern {1111111111/11111111/1111111/11111/11}
 Group   5 Type H   : 4s3p2d1f contracted to 4s3p2d1f pattern {1111/111/11/1}

Atom   0C    basis set group =>   1
Atom   1C    basis set group =>   1
Atom   2O    basis set group =>   2
Atom   3C    basis set group =>   1
Atom   4O    basis set group =>   2
Atom   5C    basis set group =>   1
Atom   6C    basis set group =>   1
Atom   7C    basis set group =>   1
Atom   8N    basis set group =>   3
Atom   9C    basis set group =>   1
Atom  10S    basis set group =>   4
Atom  11N    basis set group =>   3
Atom  12C    basis set group =>   1
Atom  13C    basis set group =>   1
Atom  14C    basis set group =>   1
Atom  15C    basis set group =>   1
Atom  16C    basis set group =>   1
Atom  17C    basis set group =>   1
Atom  18O    basis set group =>   2
Atom  19C    basis set group =>   1
Atom  20H    basis set group =>   5
Atom  21H    basis set group =>   5
Atom  22H    basis set group =>   5
Atom  23H    basis set group =>   5
Atom  24H    basis set group =>   5
Atom  25H    basis set group =>   5
Atom  26H    basis set group =>   5
Atom  27H    basis set group =>   5
Atom  28H    basis set group =>   5
Atom  29H    basis set group =>   5
Atom  30H    basis set group =>   5
Atom  31H    basis set group =>   5
Atom  32H    basis set group =>   5
Atom  33H    basis set group =>   5
Atom  34H    basis set group =>   5
Atom  35H    basis set group =>   5
------------------------------------------------------------------------------
                           ORCA GTO INTEGRAL CALCULATION
------------------------------------------------------------------------------

                         BASIS SET STATISTICS AND STARTUP INFO

 # of primitive gaussian shells          ...  682
 # of primitive gaussian functions       ... 1312
 # of contracted shells                  ...  298
 # of contracted basis functions         ...  828
 Highest angular momentum                ...    3
 Maximum contraction depth               ...   13
 Integral package used                   ... LIBINT
 Integral threshhold            Thresh   ...  2.500e-11
 Primitive cut-off              TCut     ...  2.500e-12


------------------------------ INTEGRAL EVALUATION ----------------------------


 * One electron integrals 
 Pre-screening matrix                    ... done
 Shell pair data                         ... done (   0.014 sec)

-------------------------------------------------------------------------------
                                 ORCA SCF
-------------------------------------------------------------------------------

------------
SCF SETTINGS
------------
Hamiltonian:
 Ab initio Hamiltonian  Method          .... Hartree-Fock(GTOs)


General Settings:
 Integral files         IntName         .... CONFS/Conf7.orca
 Hartree-Fock type      HFTyp           .... RHF
 Total Charge           Charge          ....    0
 Multiplicity           Mult            ....    1
 Number of Electrons    NEL             ....  154
 Basis Dimension        Dim             ....  828
 Nuclear Repulsion      ENuc            ....   1714.5202577449 Eh

Convergence Acceleration:
 DIIS                   CNVDIIS         .... on
   Start iteration      DIISMaxIt       ....    12
   Startup error        DIISStart       ....  0.200000
   # of expansion vecs  DIISMaxEq       ....     5
   Bias factor          DIISBfac        ....   1.050
   Max. coefficient     DIISMaxC        ....  10.000
 Newton-Raphson         CNVNR           .... off
 SOSCF                  CNVSOSCF        .... on
   Start iteration      SOSCFMaxIt      ....   150
   Startup grad/error   SOSCFStart      ....  0.003300
 Level Shifting         CNVShift        .... on
   Level shift para.    LevelShift      ....    0.2500
   Turn off err/grad.   ShiftErr        ....    0.0010
 Zerner damping         CNVZerner       .... off
 Static damping         CNVDamp         .... on
   Fraction old density DampFac         ....    0.7000
   Max. Damping (<1)    DampMax         ....    0.9800
   Min. Damping (>=0)   DampMin         ....    0.0000
   Turn off err/grad.   DampErr         ....    0.1000
 Fernandez-Rico         CNVRico         .... off

SCF Procedure:
 Maximum # iterations   MaxIter         ....   125
 SCF integral mode      SCFMode         .... Direct
   Integral package                     .... LIBINT
 Reset frequency        DirectResetFreq ....    20
 Integral Threshold     Thresh          ....  2.500e-11 Eh
 Primitive CutOff       TCut            ....  2.500e-12 Eh

Convergence Tolerance:
 Convergence Check Mode ConvCheckMode   .... Total+1el-Energy
 Convergence forced     ConvForced      .... 1
 Energy Change          TolE            ....  1.000e-08 Eh
 1-El. energy change                    ....  1.000e-05 Eh
 Orbital Gradient       TolG            ....  1.000e-05
 Orbital Rotation angle TolX            ....  1.000e-05
 DIIS Error             TolErr          ....  5.000e-07


Diagonalization of the overlap matrix:
Smallest eigenvalue                        ... 3.427e-05
Time for diagonalization                   ...    0.142 sec
Threshold for overlap eigenvalues          ... 1.000e-08
Number of eigenvalues below threshold      ... 0
Time for construction of square roots      ...    0.082 sec
Total time needed                          ...    0.227 sec

-------------------
DFT GRID GENERATION
-------------------

General Integration Accuracy     IntAcc      ...  4.340
Radial Grid Type                 RadialGrid  ... Gauss-Chebyshev
Angular Grid (max. acc.)         AngularGrid ... Lebedev-110
Angular grid pruning method      GridPruning ... 3 (G Style)
Weight generation scheme         WeightScheme... Becke
Basis function cutoff            BFCut       ...    1.0000e-11
Integration weight cutoff        WCut        ...    1.0000e-14
Grids for H and He will be reduced by one unit

# of grid points (after initial pruning)     ...  46246 (   0.0 sec)
# of grid points (after weights+screening)   ...  41242 (   0.3 sec)
nearest neighbour list constructed           ...    0.0 sec
Grid point re-assignment to atoms done       ...    0.0 sec
Grid point division into batches done        ...    0.0 sec
Reduced shell lists constructed in    0.9 sec

Total number of grid points                  ...    41242
Total number of batches                      ...      662
Average number of points per batch           ...       62
Average number of grid points per atom       ...     1146
Average number of shells per batch           ...   150.29 (50.43%)
Average number of basis functions per batch  ...   381.57 (46.08%)
Average number of large shells per batch     ...    95.95 (63.84%)
Average number of large basis fcns per batch ...   246.05 (64.48%)
Maximum spatial batch extension              ...  21.74, 25.60, 20.88 au
Average spatial batch extension              ...   3.46,  3.40,  3.34 au

Time for grid setup =    1.266 sec

------------------------------
INITIAL GUESS: MODEL POTENTIAL
------------------------------
Loading Hartree-Fock densities                     ... done
Calculating cut-offs                               ... done
Setting up the integral package                    ... done
Initializing the effective Hamiltonian             ... done
Starting the Coulomb interaction                   ... done (   3.1 sec)
Reading the grid                                   ... done
Mapping shells                                     ... done
Starting the XC term evaluation                    ... done (   1.3 sec)
Transforming the Hamiltonian                       ... done (   0.1 sec)
Diagonalizing the Hamiltonian                      ... done (   0.1 sec)
Back transforming the eigenvectors                 ... done (   0.0 sec)
Now organizing SCF variables                       ... done
                      ------------------
                      INITIAL GUESS DONE (   6.2 sec)
                      ------------------
--------------
SCF ITERATIONS
--------------
ITER       Energy         Delta-E        Max-DP      RMS-DP      [F,P]     Damp
               ***  Starting incremental Fock matrix formation  ***
  0  -1270.0042518722   0.000000000000 0.04929386  0.00043766  0.3091129 0.7000
  1  -1270.2730546218  -0.268802749595 0.03606773  0.00035299  0.1812937 0.7000
                               ***Turning on DIIS***
  2  -1270.4403861589  -0.167331537059 0.02583040  0.00023693  0.1097333 0.7000
  3  -1272.5970822825  -2.156696123594 0.06312658  0.00051484  0.0828927 0.0000
  4  -1270.7485616111   1.848520671401 0.01058564  0.00009744  0.0068861 0.0000
  5  -1270.8114867520  -0.062925140930 0.00447813  0.00005261  0.0036838 0.0000
                      *** Initiating the SOSCF procedure ***
                           *** Shutting down DIIS ***
                      *** Re-Reading the Fockian *** 
                      *** Removing any level shift *** 
ITER      Energy       Delta-E        Grad      Rot      Max-DP    RMS-DP
  6  -1270.78926421   0.0222225455  0.001656  0.001656  0.002285  0.000027
               *** Restarting incremental Fock matrix formation ***
  7  -1270.80368282  -0.0144186140  0.000925  0.002379  0.001512  0.000017
  8  -1270.80373112  -0.0000483041  0.000422  0.002795  0.001632  0.000018
  9  -1270.80374953  -0.0000184098  0.000188  0.000379  0.000369  0.000004
 10  -1270.80375188  -0.0000023503  0.000058  0.000156  0.000119  0.000001
 11  -1270.80375211  -0.0000002230  0.000022  0.000116  0.000066  0.000001
 12  -1270.80375217  -0.0000000617  0.000011  0.000038  0.000029  0.000000
 13  -1270.80375217  -0.0000000019  0.000003  0.000009  0.000005  0.000000
                  ***Gradient check signals convergence***
              ***Rediagonalizing the Fockian in SOSCF/NRSCF***

               *****************************************************
               *                     SUCCESS                       *
               *           SCF CONVERGED AFTER  14 CYCLES          *
               *****************************************************


----------------
TOTAL SCF ENERGY
----------------

Total Energy       :        -1270.80375216 Eh          -34580.32813 eV

Components:
Nuclear Repulsion  :         1714.52025774 Eh           46654.46808 eV
Electronic Energy  :        -2985.32400991 Eh          -81234.79621 eV
One Electron Energy:        -5150.31980496 Eh         -140147.32685 eV
Two Electron Energy:         2164.99579505 Eh           58912.53064 eV

Virial components:
Potential Energy   :        -2539.79642250 Eh          -69111.37421 eV
Kinetic Energy     :         1268.99267034 Eh           34531.04608 eV
Virial Ratio       :            2.00142718


---------------
SCF CONVERGENCE
---------------

  Last Energy change         ...    7.7048e-09  Tolerance :   1.0000e-08
  Last MAX-Density change    ...    1.6551e-06  Tolerance :   1.0000e-07
  Last RMS-Density change    ...    3.0363e-08  Tolerance :   5.0000e-09
  Last Orbital Gradient      ...    1.0409e-06  Tolerance :   1.0000e-05
  Last Orbital Rotation      ...    2.8137e-06  Tolerance :   1.0000e-05

             **** THE GBW FILE WAS UPDATED (CONFS/Conf7.orca.gbw) ****
             **** DENSITY FILE WAS UPDATED (CONFS/Conf7.orca.scfp) ****
             **** ENERGY FILE WAS UPDATED (CONFS/Conf7.orca.en.tmp) ****
             **** THE GBW FILE WAS UPDATED (CONFS/Conf7.orca.gbw) ****
             **** DENSITY FILE WAS UPDATED (CONFS/Conf7.orca.scfp) ****
----------------
ORBITAL ENERGIES
----------------

  NO   OCC          E(Eh)            E(eV) 
   0   2.0000     -91.888196     -2500.4049 
   1   2.0000     -20.594903      -560.4158 
   2   2.0000     -20.594819      -560.4135 
   3   2.0000     -20.550066      -559.1957 
   4   2.0000     -15.627898      -425.2567 
   5   2.0000     -15.607593      -424.7042 
   6   2.0000     -11.395335      -310.0828 
   7   2.0000     -11.383554      -309.7623 
   8   2.0000     -11.333649      -308.4043 
   9   2.0000     -11.310814      -307.7829 
  10   2.0000     -11.307489      -307.6924 
  11   2.0000     -11.298259      -307.4412 
  12   2.0000     -11.259799      -306.3947 
  13   2.0000     -11.259217      -306.3789 
  14   2.0000     -11.256317      -306.3000 
  15   2.0000     -11.250933      -306.1535 
  16   2.0000     -11.240486      -305.8692 
  17   2.0000     -11.236457      -305.7595 
  18   2.0000     -11.233727      -305.6852 
  19   2.0000     -11.230416      -305.5952 
  20   2.0000      -8.893273      -241.9983 
  21   2.0000      -6.574852      -178.9108 
  22   2.0000      -6.572843      -178.8561 
  23   2.0000      -6.572259      -178.8403 
  24   2.0000      -1.453238       -39.5446 
  25   2.0000      -1.414641       -38.4944 
  26   2.0000      -1.357172       -36.9305 
  27   2.0000      -1.339110       -36.4390 
  28   2.0000      -1.237306       -33.6688 
  29   2.0000      -1.155056       -31.4307 
  30   2.0000      -1.120664       -30.4948 
  31   2.0000      -1.044270       -28.4160 
  32   2.0000      -1.036085       -28.1933 
  33   2.0000      -1.012421       -27.5494 
  34   2.0000      -0.998745       -27.1772 
  35   2.0000      -0.984280       -26.7836 
  36   2.0000      -0.922545       -25.1037 
  37   2.0000      -0.888711       -24.1831 
  38   2.0000      -0.847277       -23.0556 
  39   2.0000      -0.836898       -22.7731 
  40   2.0000      -0.830973       -22.6119 
  41   2.0000      -0.817881       -22.2557 
  42   2.0000      -0.759307       -20.6618 
  43   2.0000      -0.736380       -20.0379 
  44   2.0000      -0.727045       -19.7839 
  45   2.0000      -0.693284       -18.8652 
  46   2.0000      -0.685159       -18.6441 
  47   2.0000      -0.678196       -18.4547 
  48   2.0000      -0.676757       -18.4155 
  49   2.0000      -0.661117       -17.9899 
  50   2.0000      -0.650930       -17.7127 
  51   2.0000      -0.644852       -17.5473 
  52   2.0000      -0.635678       -17.2977 
  53   2.0000      -0.603931       -16.4338 
  54   2.0000      -0.602038       -16.3823 
  55   2.0000      -0.598294       -16.2804 
  56   2.0000      -0.590726       -16.0745 
  57   2.0000      -0.581616       -15.8266 
  58   2.0000      -0.575608       -15.6631 
  59   2.0000      -0.566829       -15.4242 
  60   2.0000      -0.560470       -15.2512 
  61   2.0000      -0.555997       -15.1294 
  62   2.0000      -0.540986       -14.7210 
  63   2.0000      -0.520153       -14.1541 
  64   2.0000      -0.519931       -14.1480 
  65   2.0000      -0.511279       -13.9126 
  66   2.0000      -0.500357       -13.6154 
  67   2.0000      -0.497209       -13.5297 
  68   2.0000      -0.482528       -13.1303 
  69   2.0000      -0.463374       -12.6091 
  70   2.0000      -0.457728       -12.4554 
  71   2.0000      -0.454917       -12.3789 
  72   2.0000      -0.353664        -9.6237 
  73   2.0000      -0.346769        -9.4361 
  74   2.0000      -0.327504        -8.9118 
  75   2.0000      -0.317947        -8.6518 
  76   2.0000      -0.315108        -8.5745 
  77   0.0000       0.074539         2.0283 
  78   0.0000       0.107320         2.9203 
  79   0.0000       0.119645         3.2557 
  80   0.0000       0.133229         3.6253 
  81   0.0000       0.141363         3.8467 
  82   0.0000       0.143406         3.9023 
  83   0.0000       0.151084         4.1112 
  84   0.0000       0.157163         4.2766 
  85   0.0000       0.162181         4.4132 
  86   0.0000       0.169898         4.6232 
  87   0.0000       0.174810         4.7568 
  88   0.0000       0.190880         5.1941 
  89   0.0000       0.192979         5.2512 
  90   0.0000       0.204755         5.5717 
  91   0.0000       0.208086         5.6623 
  92   0.0000       0.216095         5.8802 
  93   0.0000       0.216775         5.8987 
  94   0.0000       0.223619         6.0850 
  95   0.0000       0.232433         6.3248 
  96   0.0000       0.234545         6.3823 
  97   0.0000       0.246484         6.7072 
  98   0.0000       0.254926         6.9369 
  99   0.0000       0.284547         7.7429 
 100   0.0000       0.294969         8.0265 
 101   0.0000       0.309824         8.4307 
 102   0.0000       0.315887         8.5957 
 103   0.0000       0.325519         8.8578 
 104   0.0000       0.326695         8.8898 
 105   0.0000       0.338924         9.2226 
 106   0.0000       0.339969         9.2510 
 107   0.0000       0.348517         9.4836 
 108   0.0000       0.355046         9.6613 
 109   0.0000       0.364881         9.9289 
 110   0.0000       0.368754        10.0343 
 111   0.0000       0.382223        10.4008 
 112   0.0000       0.387504        10.5445 
 113   0.0000       0.393052        10.6955 
 114   0.0000       0.396370        10.7858 
 115   0.0000       0.406347        11.0573 
 116   0.0000       0.415113        11.2958 
 117   0.0000       0.427693        11.6381 
 118   0.0000       0.431320        11.7368 
 119   0.0000       0.438671        11.9369 
 120   0.0000       0.441567        12.0157 
 121   0.0000       0.451821        12.2947 
 122   0.0000       0.455990        12.4081 
 123   0.0000       0.460262        12.5244 
 124   0.0000       0.462937        12.5971 
 125   0.0000       0.466340        12.6898 
 126   0.0000       0.479845        13.0572 
 127   0.0000       0.485305        13.2058 
 128   0.0000       0.496858        13.5202 
 129   0.0000       0.499302        13.5867 
 130   0.0000       0.504480        13.7276 
 131   0.0000       0.508572        13.8389 
 132   0.0000       0.510976        13.9044 
 133   0.0000       0.517811        14.0904 
 134   0.0000       0.527721        14.3600 
 135   0.0000       0.530692        14.4409 
 136   0.0000       0.536403        14.5963 
 137   0.0000       0.540501        14.7078 
 138   0.0000       0.546160        14.8618 
 139   0.0000       0.553013        15.0483 
 140   0.0000       0.558829        15.2065 
 141   0.0000       0.560648        15.2560 
 142   0.0000       0.562537        15.3074 
 143   0.0000       0.571414        15.5490 
 144   0.0000       0.575051        15.6479 
 145   0.0000       0.577318        15.7096 
 146   0.0000       0.579891        15.7796 
 147   0.0000       0.588045        16.0015 
 148   0.0000       0.592591        16.1252 
 149   0.0000       0.597190        16.2504 
 150   0.0000       0.603023        16.4091 
 151   0.0000       0.609838        16.5945 
 152   0.0000       0.615743        16.7552 
 153   0.0000       0.617278        16.7970 
 154   0.0000       0.621087        16.9006 
 155   0.0000       0.625355        17.0168 
 156   0.0000       0.630409        17.1543 
 157   0.0000       0.633099        17.2275 
 158   0.0000       0.636935        17.3319 
 159   0.0000       0.643680        17.5154 
 160   0.0000       0.648935        17.6584 
 161   0.0000       0.651171        17.7193 
 162   0.0000       0.655899        17.8479 
 163   0.0000       0.661675        18.0051 
 164   0.0000       0.671695        18.2778 
 165   0.0000       0.678700        18.4684 
 166   0.0000       0.680810        18.5258 
 167   0.0000       0.684596        18.6288 
 168   0.0000       0.687755        18.7148 
 169   0.0000       0.691916        18.8280 
 170   0.0000       0.699234        19.0271 
 171   0.0000       0.705809        19.2060 
 172   0.0000       0.717708        19.5298 
 173   0.0000       0.721128        19.6229 
 174   0.0000       0.726113        19.7585 
 175   0.0000       0.732865        19.9423 
 176   0.0000       0.736007        20.0278 
 177   0.0000       0.743492        20.2314 
 178   0.0000       0.747331        20.3359 
 179   0.0000       0.750941        20.4341 
 180   0.0000       0.759466        20.6661 
 181   0.0000       0.767794        20.8927 
 182   0.0000       0.771711        20.9993 
 183   0.0000       0.785250        21.3677 
 184   0.0000       0.793542        21.5934 
 185   0.0000       0.799380        21.7522 
 186   0.0000       0.809585        22.0299 
 187   0.0000       0.819296        22.2942 
 188   0.0000       0.826001        22.4766 
 189   0.0000       0.827853        22.5270 
 190   0.0000       0.839298        22.8385 
 191   0.0000       0.840893        22.8819 
 192   0.0000       0.848335        23.0844 
 193   0.0000       0.860076        23.4038 
 194   0.0000       0.867102        23.5951 
 195   0.0000       0.872892        23.7526 
 196   0.0000       0.887735        24.1565 
 197   0.0000       0.889592        24.2070 
 198   0.0000       0.900015        24.4907 
 199   0.0000       0.904769        24.6200 
 200   0.0000       0.913920        24.8690 
 201   0.0000       0.924160        25.1477 
 202   0.0000       0.930196        25.3119 
 203   0.0000       0.935613        25.4593 
 204   0.0000       0.943615        25.6771 
 205   0.0000       0.953052        25.9339 
 206   0.0000       0.963681        26.2231 
 207   0.0000       0.968258        26.3476 
 208   0.0000       0.974549        26.5188 
 209   0.0000       0.975460        26.5436 
 210   0.0000       0.979580        26.6557 
 211   0.0000       0.986265        26.8376 
 212   0.0000       0.994302        27.0563 
 213   0.0000       0.996430        27.1142 
 214   0.0000       1.012071        27.5398 
 215   0.0000       1.021028        27.7836 
 216   0.0000       1.025032        27.8925 
 217   0.0000       1.037119        28.2214 
 218   0.0000       1.042375        28.3645 
 219   0.0000       1.047707        28.5096 
 220   0.0000       1.051002        28.5992 
 221   0.0000       1.060599        28.8604 
 222   0.0000       1.064889        28.9771 
 223   0.0000       1.072855        29.1939 
 224   0.0000       1.082652        29.4605 
 225   0.0000       1.096418        29.8351 
 226   0.0000       1.099849        29.9284 
 227   0.0000       1.110500        30.2182 
 228   0.0000       1.117722        30.4148 
 229   0.0000       1.119639        30.4669 
 230   0.0000       1.127565        30.6826 
 231   0.0000       1.133772        30.8515 
 232   0.0000       1.138737        30.9866 
 233   0.0000       1.142777        31.0966 
 234   0.0000       1.158466        31.5235 
 235   0.0000       1.160816        31.5874 
 236   0.0000       1.168489        31.7962 
 237   0.0000       1.176378        32.0109 
 238   0.0000       1.176936        32.0261 
 239   0.0000       1.184190        32.2235 
 240   0.0000       1.187690        32.3187 
 241   0.0000       1.199656        32.6443 
 242   0.0000       1.209812        32.9207 
 243   0.0000       1.215366        33.0718 
 244   0.0000       1.221679        33.2436 
 245   0.0000       1.226843        33.3841 
 246   0.0000       1.237208        33.6661 
 247   0.0000       1.241783        33.7906 
 248   0.0000       1.245850        33.9013 
 249   0.0000       1.262664        34.3588 
 250   0.0000       1.263260        34.3751 
 251   0.0000       1.269441        34.5432 
 252   0.0000       1.276525        34.7360 
 253   0.0000       1.288721        35.0679 
 254   0.0000       1.293490        35.1977 
 255   0.0000       1.296036        35.2669 
 256   0.0000       1.308277        35.6000 
 257   0.0000       1.315831        35.8056 
 258   0.0000       1.325546        36.0699 
 259   0.0000       1.328585        36.1526 
 260   0.0000       1.335341        36.3365 
 261   0.0000       1.339256        36.4430 
 262   0.0000       1.353082        36.8192 
 263   0.0000       1.356207        36.9043 
 264   0.0000       1.362920        37.0869 
 265   0.0000       1.375273        37.4231 
 266   0.0000       1.378595        37.5135 
 267   0.0000       1.395843        37.9828 
 268   0.0000       1.402891        38.1746 
 269   0.0000       1.407911        38.3112 
 270   0.0000       1.414532        38.4914 
 271   0.0000       1.426917        38.8284 
 272   0.0000       1.436251        39.0824 
 273   0.0000       1.443480        39.2791 
 274   0.0000       1.453838        39.5610 
 275   0.0000       1.457023        39.6476 
 276   0.0000       1.464707        39.8567 
 277   0.0000       1.471359        40.0377 
 278   0.0000       1.482539        40.3419 
 279   0.0000       1.486233        40.4424 
 280   0.0000       1.490892        40.5692 
 281   0.0000       1.493667        40.6448 
 282   0.0000       1.502773        40.8925 
 283   0.0000       1.505616        40.9699 
 284   0.0000       1.519280        41.3417 
 285   0.0000       1.522066        41.4175 
 286   0.0000       1.531774        41.6817 
 287   0.0000       1.538789        41.8726 
 288   0.0000       1.541827        41.9552 
 289   0.0000       1.550546        42.1925 
 290   0.0000       1.554782        42.3078 
 291   0.0000       1.562148        42.5082 
 292   0.0000       1.567589        42.6563 
 293   0.0000       1.582427        43.0600 
 294   0.0000       1.590053        43.2676 
 295   0.0000       1.600572        43.5538 
 296   0.0000       1.602895        43.6170 
 297   0.0000       1.605741        43.6944 
 298   0.0000       1.618365        44.0380 
 299   0.0000       1.625981        44.2452 
 300   0.0000       1.632987        44.4358 
 301   0.0000       1.642943        44.7068 
 302   0.0000       1.646321        44.7987 
 303   0.0000       1.651159        44.9303 
 304   0.0000       1.660013        45.1712 
 305   0.0000       1.671496        45.4837 
 306   0.0000       1.682824        45.7920 
 307   0.0000       1.690500        46.0008 
 308   0.0000       1.698644        46.2224 
 309   0.0000       1.711929        46.5840 
 310   0.0000       1.719521        46.7906 
 311   0.0000       1.724866        46.9360 
 312   0.0000       1.727820        47.0164 
 313   0.0000       1.739380        47.3309 
 314   0.0000       1.746207        47.5167 
 315   0.0000       1.753717        47.7211 
 316   0.0000       1.766678        48.0738 
 317   0.0000       1.770934        48.1896 
 318   0.0000       1.787694        48.6456 
 319   0.0000       1.800650        48.9982 
 320   0.0000       1.805362        49.1264 
 321   0.0000       1.821045        49.5532 
 322   0.0000       1.830044        49.7980 
 323   0.0000       1.837870        50.0110 
 324   0.0000       1.841423        50.1077 
 325   0.0000       1.863442        50.7068 
 326   0.0000       1.872231        50.9460 
 327   0.0000       1.888447        51.3873 
 328   0.0000       1.906414        51.8762 
 329   0.0000       1.916863        52.1605 
 330   0.0000       1.928675        52.4819 
 331   0.0000       1.934844        52.6498 
 332   0.0000       1.940611        52.8067 
 333   0.0000       1.953573        53.1594 
 334   0.0000       1.962883        53.4128 
 335   0.0000       1.980704        53.8977 
 336   0.0000       2.000158        54.4271 
 337   0.0000       2.002626        54.4942 
 338   0.0000       2.020142        54.9709 
 339   0.0000       2.025348        55.1125 
 340   0.0000       2.033141        55.3246 
 341   0.0000       2.039500        55.4976 
 342   0.0000       2.052828        55.8603 
 343   0.0000       2.061348        56.0921 
 344   0.0000       2.086711        56.7823 
 345   0.0000       2.095642        57.0253 
 346   0.0000       2.123399        57.7806 
 347   0.0000       2.128566        57.9212 
 348   0.0000       2.150977        58.5311 
 349   0.0000       2.158143        58.7261 
 350   0.0000       2.169093        59.0240 
 351   0.0000       2.202515        59.9335 
 352   0.0000       2.207753        60.0760 
 353   0.0000       2.223755        60.5115 
 354   0.0000       2.234687        60.8089 
 355   0.0000       2.263992        61.6064 
 356   0.0000       2.278636        62.0048 
 357   0.0000       2.288763        62.2804 
 358   0.0000       2.303082        62.6700 
 359   0.0000       2.303831        62.6904 
 360   0.0000       2.312053        62.9142 
 361   0.0000       2.321394        63.1683 
 362   0.0000       2.344991        63.8104 
 363   0.0000       2.356850        64.1332 
 364   0.0000       2.364114        64.3308 
 365   0.0000       2.371589        64.5342 
 366   0.0000       2.386803        64.9482 
 367   0.0000       2.394427        65.1557 
 368   0.0000       2.408708        65.5443 
 369   0.0000       2.419034        65.8253 
 370   0.0000       2.431694        66.1698 
 371   0.0000       2.447542        66.6010 
 372   0.0000       2.452662        66.7403 
 373   0.0000       2.471218        67.2452 
 374   0.0000       2.492503        67.8245 
 375   0.0000       2.499693        68.0201 
 376   0.0000       2.518417        68.5296 
 377   0.0000       2.519938        68.5710 
 378   0.0000       2.530925        68.8700 
 379   0.0000       2.568932        69.9042 
 380   0.0000       2.575192        70.0745 
 381   0.0000       2.579288        70.1860 
 382   0.0000       2.595654        70.6313 
 383   0.0000       2.611666        71.0670 
 384   0.0000       2.615628        71.1749 
 385   0.0000       2.620093        71.2963 
 386   0.0000       2.628077        71.5136 
 387   0.0000       2.643944        71.9454 
 388   0.0000       2.653856        72.2151 
 389   0.0000       2.666114        72.5487 
 390   0.0000       2.678433        72.8839 
 391   0.0000       2.688583        73.1601 
 392   0.0000       2.700437        73.4826 
 393   0.0000       2.701649        73.5156 
 394   0.0000       2.715854        73.9022 
 395   0.0000       2.725056        74.1525 
 396   0.0000       2.737988        74.5044 
 397   0.0000       2.746206        74.7281 
 398   0.0000       2.756627        75.0116 
 399   0.0000       2.759395        75.0870 
 400   0.0000       2.783067        75.7311 
 401   0.0000       2.783183        75.7343 
 402   0.0000       2.797079        76.1124 
 403   0.0000       2.810771        76.4850 
 404   0.0000       2.812638        76.5358 
 405   0.0000       2.832137        77.0664 
 406   0.0000       2.834076        77.1191 
 407   0.0000       2.839946        77.2789 
 408   0.0000       2.852779        77.6281 
 409   0.0000       2.859833        77.8200 
 410   0.0000       2.867690        78.0338 
 411   0.0000       2.878617        78.3312 
 412   0.0000       2.880082        78.3710 
 413   0.0000       2.895124        78.7803 
 414   0.0000       2.904281        79.0295 
 415   0.0000       2.916685        79.3670 
 416   0.0000       2.926286        79.6283 
 417   0.0000       2.939518        79.9883 
 418   0.0000       2.945313        80.1460 
 419   0.0000       2.950774        80.2946 
 420   0.0000       2.963548        80.6422 
 421   0.0000       2.976654        80.9989 
 422   0.0000       2.982037        81.1454 
 423   0.0000       2.994803        81.4927 
 424   0.0000       2.996469        81.5381 
 425   0.0000       3.007811        81.8467 
 426   0.0000       3.015150        82.0464 
 427   0.0000       3.024137        82.2910 
 428   0.0000       3.032428        82.5166 
 429   0.0000       3.041213        82.7556 
 430   0.0000       3.043223        82.8103 
 431   0.0000       3.052447        83.0613 
 432   0.0000       3.059033        83.2405 
 433   0.0000       3.070364        83.5488 
 434   0.0000       3.077848        83.7525 
 435   0.0000       3.083003        83.8928 
 436   0.0000       3.088094        84.0313 
 437   0.0000       3.097102        84.2764 
 438   0.0000       3.097448        84.2859 
 439   0.0000       3.108440        84.5849 
 440   0.0000       3.110473        84.6403 
 441   0.0000       3.114872        84.7600 
 442   0.0000       3.126124        85.0662 
 443   0.0000       3.131753        85.2193 
 444   0.0000       3.145870        85.6035 
 445   0.0000       3.148932        85.6868 
 446   0.0000       3.158040        85.9346 
 447   0.0000       3.176203        86.4289 
 448   0.0000       3.185295        86.6763 
 449   0.0000       3.191079        86.8337 
 450   0.0000       3.193763        86.9067 
 451   0.0000       3.202145        87.1348 
 452   0.0000       3.205165        87.2170 
 453   0.0000       3.212884        87.4270 
 454   0.0000       3.219867        87.6170 
 455   0.0000       3.224078        87.7316 
 456   0.0000       3.231876        87.9438 
 457   0.0000       3.242031        88.2202 
 458   0.0000       3.248849        88.4057 
 459   0.0000       3.256675        88.6186 
 460   0.0000       3.269293        88.9620 
 461   0.0000       3.273263        89.0700 
 462   0.0000       3.274148        89.0941 
 463   0.0000       3.291220        89.5587 
 464   0.0000       3.301182        89.8297 
 465   0.0000       3.306796        89.9825 
 466   0.0000       3.313392        90.1620 
 467   0.0000       3.320563        90.3571 
 468   0.0000       3.323624        90.4404 
 469   0.0000       3.329058        90.5883 
 470   0.0000       3.332377        90.6786 
 471   0.0000       3.335792        90.7715 
 472   0.0000       3.339994        90.8859 
 473   0.0000       3.351438        91.1973 
 474   0.0000       3.362221        91.4907 
 475   0.0000       3.368092        91.6504 
 476   0.0000       3.370785        91.7237 
 477   0.0000       3.377818        91.9151 
 478   0.0000       3.378429        91.9317 
 479   0.0000       3.394800        92.3772 
 480   0.0000       3.397401        92.4480 
 481   0.0000       3.398648        92.4819 
 482   0.0000       3.402202        92.5786 
 483   0.0000       3.403265        92.6076 
 484   0.0000       3.414160        92.9040 
 485   0.0000       3.418227        93.0147 
 486   0.0000       3.424132        93.1754 
 487   0.0000       3.427693        93.2723 
 488   0.0000       3.433421        93.4281 
 489   0.0000       3.438133        93.5564 
 490   0.0000       3.443060        93.6904 
 491   0.0000       3.451584        93.9224 
 492   0.0000       3.457599        94.0861 
 493   0.0000       3.460219        94.1574 
 494   0.0000       3.465497        94.3010 
 495   0.0000       3.471388        94.4613 
 496   0.0000       3.474943        94.5580 
 497   0.0000       3.478076        94.6433 
 498   0.0000       3.496526        95.1453 
 499   0.0000       3.502115        95.2974 
 500   0.0000       3.509330        95.4937 
 501   0.0000       3.514014        95.6212 
 502   0.0000       3.526321        95.9561 
 503   0.0000       3.538500        96.2875 
 504   0.0000       3.546697        96.5105 
 505   0.0000       3.548814        96.5681 
 506   0.0000       3.560409        96.8837 
 507   0.0000       3.568580        97.1060 
 508   0.0000       3.578045        97.3636 
 509   0.0000       3.589130        97.6652 
 510   0.0000       3.593674        97.7889 
 511   0.0000       3.603513        98.0566 
 512   0.0000       3.614369        98.3520 
 513   0.0000       3.616874        98.4202 
 514   0.0000       3.622236        98.5661 
 515   0.0000       3.623580        98.6026 
 516   0.0000       3.629052        98.7515 
 517   0.0000       3.632428        98.8434 
 518   0.0000       3.635775        98.9345 
 519   0.0000       3.643178        99.1359 
 520   0.0000       3.647569        99.2554 
 521   0.0000       3.651496        99.3623 
 522   0.0000       3.664832        99.7251 
 523   0.0000       3.669159        99.8429 
 524   0.0000       3.674288        99.9824 
 525   0.0000       3.686188       100.3063 
 526   0.0000       3.686997       100.3283 
 527   0.0000       3.691473       100.4501 
 528   0.0000       3.697348       100.6099 
 529   0.0000       3.702920       100.7616 
 530   0.0000       3.718901       101.1964 
 531   0.0000       3.723592       101.3241 
 532   0.0000       3.730767       101.5193 
 533   0.0000       3.742184       101.8300 
 534   0.0000       3.747827       101.9836 
 535   0.0000       3.753577       102.1400 
 536   0.0000       3.759161       102.2920 
 537   0.0000       3.763526       102.4108 
 538   0.0000       3.765377       102.4611 
 539   0.0000       3.767053       102.5067 
 540   0.0000       3.781954       102.9122 
 541   0.0000       3.788748       103.0971 
 542   0.0000       3.794255       103.2469 
 543   0.0000       3.805889       103.5635 
 544   0.0000       3.811019       103.7031 
 545   0.0000       3.815947       103.8372 
 546   0.0000       3.821626       103.9917 
 547   0.0000       3.826927       104.1360 
 548   0.0000       3.831212       104.2526 
 549   0.0000       3.837539       104.4247 
 550   0.0000       3.849128       104.7401 
 551   0.0000       3.866123       105.2026 
 552   0.0000       3.868727       105.2734 
 553   0.0000       3.876858       105.4947 
 554   0.0000       3.896862       106.0390 
 555   0.0000       3.905562       106.2757 
 556   0.0000       3.909283       106.3770 
 557   0.0000       3.919799       106.6631 
 558   0.0000       3.928344       106.8957 
 559   0.0000       3.934803       107.0714 
 560   0.0000       3.948350       107.4401 
 561   0.0000       3.956190       107.6534 
 562   0.0000       3.963683       107.8573 
 563   0.0000       3.970114       108.0323 
 564   0.0000       3.978338       108.2561 
 565   0.0000       3.981740       108.3486 
 566   0.0000       3.985494       108.4508 
 567   0.0000       3.991287       108.6084 
 568   0.0000       3.999431       108.8301 
 569   0.0000       4.013002       109.1993 
 570   0.0000       4.026370       109.5631 
 571   0.0000       4.035352       109.8075 
 572   0.0000       4.040180       109.9389 
 573   0.0000       4.048930       110.1770 
 574   0.0000       4.056370       110.3794 
 575   0.0000       4.074844       110.8821 
 576   0.0000       4.079320       111.0039 
 577   0.0000       4.084792       111.1528 
 578   0.0000       4.094921       111.4285 
 579   0.0000       4.097653       111.5028 
 580   0.0000       4.112508       111.9070 
 581   0.0000       4.120981       112.1376 
 582   0.0000       4.127821       112.3237 
 583   0.0000       4.132449       112.4497 
 584   0.0000       4.141747       112.7027 
 585   0.0000       4.147818       112.8679 
 586   0.0000       4.154980       113.0628 
 587   0.0000       4.163849       113.3041 
 588   0.0000       4.171193       113.5039 
 589   0.0000       4.179484       113.7295 
 590   0.0000       4.183824       113.8476 
 591   0.0000       4.187879       113.9580 
 592   0.0000       4.190549       114.0306 
 593   0.0000       4.193093       114.0999 
 594   0.0000       4.199030       114.2614 
 595   0.0000       4.209082       114.5349 
 596   0.0000       4.214530       114.6832 
 597   0.0000       4.224619       114.9577 
 598   0.0000       4.231824       115.1538 
 599   0.0000       4.239259       115.3561 
 600   0.0000       4.246674       115.5579 
 601   0.0000       4.256786       115.8330 
 602   0.0000       4.262607       115.9914 
 603   0.0000       4.271074       116.2218 
 604   0.0000       4.278835       116.4330 
 605   0.0000       4.295744       116.8931 
 606   0.0000       4.301818       117.0584 
 607   0.0000       4.304956       117.1438 
 608   0.0000       4.319025       117.5266 
 609   0.0000       4.325187       117.6943 
 610   0.0000       4.330327       117.8342 
 611   0.0000       4.346116       118.2638 
 612   0.0000       4.348470       118.3279 
 613   0.0000       4.354087       118.4807 
 614   0.0000       4.359611       118.6310 
 615   0.0000       4.368449       118.8715 
 616   0.0000       4.371702       118.9601 
 617   0.0000       4.379780       119.1799 
 618   0.0000       4.387773       119.3974 
 619   0.0000       4.393722       119.5592 
 620   0.0000       4.398951       119.7015 
 621   0.0000       4.404111       119.8420 
 622   0.0000       4.422646       120.3463 
 623   0.0000       4.427085       120.4671 
 624   0.0000       4.440021       120.8191 
 625   0.0000       4.448357       121.0460 
 626   0.0000       4.454067       121.2013 
 627   0.0000       4.467561       121.5685 
 628   0.0000       4.477270       121.8327 
 629   0.0000       4.485311       122.0515 
 630   0.0000       4.506545       122.6293 
 631   0.0000       4.512967       122.8041 
 632   0.0000       4.518640       122.9584 
 633   0.0000       4.528089       123.2156 
 634   0.0000       4.532187       123.3271 
 635   0.0000       4.541566       123.5823 
 636   0.0000       4.548249       123.7642 
 637   0.0000       4.557106       124.0052 
 638   0.0000       4.560834       124.1066 
 639   0.0000       4.570643       124.3735 
 640   0.0000       4.579963       124.6271 
 641   0.0000       4.582656       124.7004 
 642   0.0000       4.595720       125.0559 
 643   0.0000       4.606163       125.3401 
 644   0.0000       4.610282       125.4521 
 645   0.0000       4.627394       125.9178 
 646   0.0000       4.629021       125.9621 
 647   0.0000       4.643119       126.3457 
 648   0.0000       4.645833       126.4196 
 649   0.0000       4.646392       126.4348 
 650   0.0000       4.658669       126.7688 
 651   0.0000       4.660400       126.8159 
 652   0.0000       4.674195       127.1913 
 653   0.0000       4.678914       127.3197 
 654   0.0000       4.691480       127.6617 
 655   0.0000       4.698736       127.8591 
 656   0.0000       4.701744       127.9410 
 657   0.0000       4.717928       128.3814 
 658   0.0000       4.727394       128.6389 
 659   0.0000       4.733355       128.8011 
 660   0.0000       4.747504       129.1862 
 661   0.0000       4.770772       129.8193 
 662   0.0000       4.779022       130.0438 
 663   0.0000       4.781732       130.1175 
 664   0.0000       4.801816       130.6640 
 665   0.0000       4.824138       131.2715 
 666   0.0000       4.836469       131.6070 
 667   0.0000       4.848081       131.9230 
 668   0.0000       4.855275       132.1188 
 669   0.0000       4.875724       132.6752 
 670   0.0000       4.895184       133.2047 
 671   0.0000       4.907909       133.5510 
 672   0.0000       4.918470       133.8384 
 673   0.0000       4.937871       134.3663 
 674   0.0000       4.970117       135.2438 
 675   0.0000       4.990028       135.7856 
 676   0.0000       5.008910       136.2994 
 677   0.0000       5.017210       136.5252 
 678   0.0000       5.026845       136.7874 
 679   0.0000       5.046309       137.3171 
 680   0.0000       5.055008       137.5538 
 681   0.0000       5.077515       138.1662 
 682   0.0000       5.093359       138.5974 
 683   0.0000       5.101398       138.8161 
 684   0.0000       5.107803       138.9904 
 685   0.0000       5.116234       139.2198 
 686   0.0000       5.120954       139.3483 
 687   0.0000       5.139873       139.8631 
 688   0.0000       5.143644       139.9657 
 689   0.0000       5.154087       140.2498 
 690   0.0000       5.159505       140.3973 
 691   0.0000       5.170702       140.7020 
 692   0.0000       5.190957       141.2531 
 693   0.0000       5.203690       141.5996 
 694   0.0000       5.204548       141.6229 
 695   0.0000       5.217716       141.9813 
 696   0.0000       5.225450       142.1917 
 697   0.0000       5.230432       142.3273 
 698   0.0000       5.237964       142.5322 
 699   0.0000       5.252275       142.9217 
 700   0.0000       5.255810       143.0179 
 701   0.0000       5.273503       143.4993 
 702   0.0000       5.299735       144.2131 
 703   0.0000       5.306329       144.3926 
 704   0.0000       5.323897       144.8706 
 705   0.0000       5.338023       145.2550 
 706   0.0000       5.344115       145.4208 
 707   0.0000       5.350757       145.6015 
 708   0.0000       5.366061       146.0180 
 709   0.0000       5.382449       146.4639 
 710   0.0000       5.394263       146.7854 
 711   0.0000       5.403978       147.0497 
 712   0.0000       5.430527       147.7721 
 713   0.0000       5.451081       148.3315 
 714   0.0000       5.466643       148.7549 
 715   0.0000       5.484582       149.2431 
 716   0.0000       5.498090       149.6106 
 717   0.0000       5.506632       149.8431 
 718   0.0000       5.515753       150.0913 
 719   0.0000       5.531375       150.5164 
 720   0.0000       5.536910       150.6670 
 721   0.0000       5.541192       150.7835 
 722   0.0000       5.555091       151.1617 
 723   0.0000       5.569785       151.5616 
 724   0.0000       5.585243       151.9822 
 725   0.0000       5.601744       152.4312 
 726   0.0000       5.615171       152.7966 
 727   0.0000       5.630718       153.2196 
 728   0.0000       5.639586       153.4609 
 729   0.0000       5.642890       153.5509 
 730   0.0000       5.646563       153.6508 
 731   0.0000       5.658986       153.9888 
 732   0.0000       5.670120       154.2918 
 733   0.0000       5.673686       154.3888 
 734   0.0000       5.699087       155.0800 
 735   0.0000       5.708871       155.3463 
 736   0.0000       5.722852       155.7267 
 737   0.0000       5.728737       155.8869 
 738   0.0000       5.737103       156.1145 
 739   0.0000       5.754120       156.5776 
 740   0.0000       5.760803       156.7594 
 741   0.0000       5.776754       157.1935 
 742   0.0000       5.784967       157.4170 
 743   0.0000       5.797924       157.7695 
 744   0.0000       5.819562       158.3583 
 745   0.0000       5.843491       159.0095 
 746   0.0000       5.863970       159.5667 
 747   0.0000       5.869689       159.7224 
 748   0.0000       5.903739       160.6489 
 749   0.0000       5.928182       161.3140 
 750   0.0000       5.938713       161.6006 
 751   0.0000       5.973206       162.5392 
 752   0.0000       5.981609       162.7679 
 753   0.0000       5.993762       163.0986 
 754   0.0000       6.012902       163.6194 
 755   0.0000       6.021136       163.8434 
 756   0.0000       6.056269       164.7995 
 757   0.0000       6.060478       164.9140 
 758   0.0000       6.083000       165.5268 
 759   0.0000       6.095293       165.8614 
 760   0.0000       6.099275       165.9697 
 761   0.0000       6.178212       168.1177 
 762   0.0000       6.219058       169.2292 
 763   0.0000       6.229071       169.5016 
 764   0.0000       6.247850       170.0126 
 765   0.0000       6.259140       170.3199 
 766   0.0000       6.285190       171.0287 
 767   0.0000       6.318143       171.9254 
 768   0.0000       6.350069       172.7942 
 769   0.0000       6.357267       172.9900 
 770   0.0000       6.370000       173.3365 
 771   0.0000       6.383284       173.6980 
 772   0.0000       6.405640       174.3063 
 773   0.0000       6.441428       175.2802 
 774   0.0000       6.458854       175.7543 
 775   0.0000       6.462546       175.8548 
 776   0.0000       6.503370       176.9657 
 777   0.0000       6.558549       178.4672 
 778   0.0000       6.587077       179.2435 
 779   0.0000       6.603217       179.6827 
 780   0.0000       6.636737       180.5948 
 781   0.0000       6.676865       181.6867 
 782   0.0000       6.723143       182.9460 
 783   0.0000       6.757583       183.8832 
 784   0.0000       6.794771       184.8951 
 785   0.0000       6.898041       187.7052 
 786   0.0000       6.914293       188.1475 
 787   0.0000       6.925198       188.4442 
 788   0.0000       6.970917       189.6883 
 789   0.0000       6.987901       190.1505 
 790   0.0000       7.056948       192.0293 
 791   0.0000       7.064441       192.2332 
 792   0.0000       7.084329       192.7744 
 793   0.0000       7.138476       194.2478 
 794   0.0000       7.196759       195.8338 
 795   0.0000       7.260895       197.5790 
 796   0.0000       7.267027       197.7459 
 797   0.0000       7.284014       198.2081 
 798   0.0000       7.342770       199.8069 
 799   0.0000       7.389563       201.0802 
 800   0.0000       7.397927       201.3078 
 801   0.0000       7.553158       205.5319 
 802   0.0000       7.579955       206.2611 
 803   0.0000       7.588167       206.4845 
 804   0.0000       7.650189       208.1722 
 805   0.0000       7.811415       212.5594 
 806   0.0000       7.824677       212.9203 
 807   0.0000       7.916821       215.4277 
 808   0.0000       7.936185       215.9546 
 809   0.0000       9.364040       254.8085 
 810   0.0000       9.533813       259.4282 
 811   0.0000      10.845565       295.1228 
 812   0.0000      11.251153       306.1594 
 813   0.0000      11.885811       323.4294 
 814   0.0000      12.599812       342.8583 
 815   0.0000      12.922901       351.6500 
 816   0.0000      13.086867       356.1118 
 817   0.0000      13.107278       356.6672 
 818   0.0000      13.215539       359.6131 
 819   0.0000      13.402263       364.6941 
 820   0.0000      13.485033       366.9464 
 821   0.0000      13.732216       373.6726 
 822   0.0000      13.917448       378.7130 
 823   0.0000      13.983889       380.5210 
 824   0.0000      14.030240       381.7822 
 825   0.0000      14.554267       396.0417 
 826   0.0000      14.671812       399.2403 
 827   0.0000      15.973258       434.6544 

                    ********************************
                    * MULLIKEN POPULATION ANALYSIS *
                    ********************************

-----------------------
MULLIKEN ATOMIC CHARGES
-----------------------
   0 C :   -0.282032
   1 C :    0.036148
   2 O :   -0.358399
   3 C :    0.445072
   4 O :   -0.413356
   5 C :   -0.182809
   6 C :    0.139959
   7 C :   -0.284820
   8 N :   -0.124770
   9 C :    0.205074
  10 S :   -0.440574
  11 N :   -0.200045
  12 C :    0.050691
  13 C :    0.053635
  14 C :   -0.160388
  15 C :   -0.132497
  16 C :   -0.280287
  17 C :    0.317295
  18 O :   -0.360988
  19 C :   -0.288968
  20 H :    0.107485
  21 H :    0.101305
  22 H :    0.089497
  23 H :    0.109486
  24 H :    0.100216
  25 H :    0.124994
  26 H :    0.104456
  27 H :    0.126116
  28 H :    0.196969
  29 H :    0.194222
  30 H :    0.153962
  31 H :    0.153883
  32 H :    0.160312
  33 H :    0.129693
  34 H :    0.240830
  35 H :    0.168634
Sum of atomic charges:    0.0000000

--------------------------------
MULLIKEN REDUCED ORBITAL CHARGES
--------------------------------
  0 C s       :     3.260094  s :     3.260094
      pz      :     0.994364  p :     2.944249
      px      :     0.938045
      py      :     1.011841
      dz2     :     0.020528  d :     0.073186
      dxz     :     0.013491
      dyz     :     0.011124
      dx2y2   :     0.007748
      dxy     :     0.020294
      f0      :     0.000728  f :     0.004503
      f+1     :     0.000658
      f-1     :     0.000562
      f+2     :     0.000558
      f-2     :     0.000641
      f+3     :     0.000844
      f-3     :     0.000512
  1 C s       :     3.175577  s :     3.175577
      pz      :     1.005180  p :     2.624577
      px      :     0.838554
      py      :     0.780843
      dz2     :     0.026893  d :     0.151968
      dxz     :     0.024520
      dyz     :     0.030280
      dx2y2   :     0.028912
      dxy     :     0.041363
      f0      :     0.001770  f :     0.011731
      f+1     :     0.000999
      f-1     :     0.001144
      f+2     :     0.000660
      f-2     :     0.002166
      f+3     :     0.002263
      f-3     :     0.002728
  2 O s       :     3.715751  s :     3.715751
      pz      :     1.721755  p :     4.607537
      px      :     1.328275
      py      :     1.557507
      dz2     :     0.003932  d :     0.032811
      dxz     :     0.007535
      dyz     :     0.003519
      dx2y2   :     0.011530
      dxy     :     0.006295
      f0      :     0.000264  f :     0.002299
      f+1     :     0.000357
      f-1     :     0.000172
      f+2     :     0.000433
      f-2     :     0.000206
      f+3     :     0.000532
      f-3     :     0.000335
  3 C s       :     3.058321  s :     3.058321
      pz      :     0.687830  p :     2.179417
      px      :     0.696421
      py      :     0.795165
      dz2     :     0.035886  d :     0.290821
      dxz     :     0.057897
      dyz     :     0.048056
      dx2y2   :     0.089461
      dxy     :     0.059522
      f0      :     0.002240  f :     0.026370
      f+1     :     0.003564
      f-1     :     0.001781
      f+2     :     0.003221
      f-2     :     0.004445
      f+3     :     0.004020
      f-3     :     0.007099
  4 O s       :     3.775123  s :     3.775123
      pz      :     1.572568  p :     4.600365
      px      :     1.581887
      py      :     1.445909
      dz2     :     0.003831  d :     0.035457
      dxz     :     0.002840
      dyz     :     0.007827
      dx2y2   :     0.009145
      dxy     :     0.011814
      f0      :     0.000251  f :     0.002411
      f+1     :     0.000141
      f-1     :     0.000286
      f+2     :     0.000105
      f-2     :     0.000340
      f+3     :     0.000694
      f-3     :     0.000594
  5 C s       :     3.186732  s :     3.186732
      pz      :     0.957860  p :     2.904039
      px      :     1.056647
      py      :     0.889532
      dz2     :     0.015008  d :     0.081262
      dxz     :     0.010659
      dyz     :     0.027728
      dx2y2   :     0.012427
      dxy     :     0.015439
      f0      :     0.000865  f :     0.010776
      f+1     :     0.001337
      f-1     :     0.001765
      f+2     :     0.001962
      f-2     :     0.001483
      f+3     :     0.001376
      f-3     :     0.001988
  6 C s       :     3.193289  s :     3.193289
      pz      :     0.858894  p :     2.476370
      px      :     0.835814
      py      :     0.781662
      dz2     :     0.032496  d :     0.176127
      dxz     :     0.020809
      dyz     :     0.048373
      dx2y2   :     0.033810
      dxy     :     0.040639
      f0      :     0.001850  f :     0.014255
      f+1     :     0.001207
      f-1     :     0.002551
      f+2     :     0.002330
      f-2     :     0.002483
      f+3     :     0.001709
      f-3     :     0.002125
  7 C s       :     3.280058  s :     3.280058
      pz      :     0.938615  p :     2.931120
      px      :     0.983632
      py      :     1.008872
      dz2     :     0.019073  d :     0.068987
      dxz     :     0.013810
      dyz     :     0.008111
      dx2y2   :     0.020793
      dxy     :     0.007200
      f0      :     0.000375  f :     0.004656
      f+1     :     0.001429
      f-1     :     0.000701
      f+2     :     0.000444
      f-2     :     0.000549
      f+3     :     0.000144
      f-3     :     0.001013
  8 N s       :     3.340821  s :     3.340821
      pz      :     1.229219  p :     3.719710
      px      :     1.369933
      py      :     1.120558
      dz2     :     0.014062  d :     0.059295
      dxz     :     0.010413
      dyz     :     0.013445
      dx2y2   :     0.009712
      dxy     :     0.011664
      f0      :     0.000592  f :     0.004944
      f+1     :     0.000990
      f-1     :     0.000686
      f+2     :     0.000987
      f-2     :     0.000910
      f+3     :     0.000445
      f-3     :     0.000334
  9 C s       :     3.160717  s :     3.160717
      pz      :     0.773054  p :     2.354545
      px      :     0.712411
      py      :     0.869079
      dz2     :     0.062227  d :     0.262070
      dxz     :     0.035904
      dyz     :     0.048990
      dx2y2   :     0.056714
      dxy     :     0.058235
      f0      :     0.002614  f :     0.017595
      f+1     :     0.002468
      f-1     :     0.002310
      f+2     :     0.002689
      f-2     :     0.002353
      f+3     :     0.002317
      f-3     :     0.002844
 10 S s       :     5.855741  s :     5.855741
      pz      :     3.464890  p :    10.490091
      px      :     3.710025
      py      :     3.315176
      dz2     :     0.010480  d :     0.084616
      dxz     :     0.005275
      dyz     :     0.039260
      dx2y2   :     0.015140
      dxy     :     0.014461
      f0      :     0.001110  f :     0.010126
      f+1     :     0.000135
      f-1     :     0.002316
      f+2     :     0.002920
      f-2     :     0.001547
      f+3     :     0.001252
      f-3     :     0.000847
 11 N s       :     3.370287  s :     3.370287
      pz      :     1.321918  p :     3.767382
      px      :     1.394566
      py      :     1.050898
      dz2     :     0.008415  d :     0.057927
      dxz     :     0.008207
      dyz     :     0.014156
      dx2y2   :     0.012940
      dxy     :     0.014208
      f0      :     0.000371  f :     0.004449
      f+1     :     0.000581
      f-1     :     0.000562
      f+2     :     0.000656
      f-2     :     0.000693
      f+3     :     0.000837
      f-3     :     0.000750
 12 C s       :     3.118673  s :     3.118673
      pz      :     0.851273  p :     2.636858
      px      :     0.988125
      py      :     0.797461
      dz2     :     0.035871  d :     0.182497
      dxz     :     0.029654
      dyz     :     0.041226
      dx2y2   :     0.034270
      dxy     :     0.041476
      f0      :     0.001162  f :     0.011281
      f+1     :     0.001223
      f-1     :     0.001980
      f+2     :     0.002363
      f-2     :     0.001985
      f+3     :     0.001321
      f-3     :     0.001247
 13 C s       :     3.093123  s :     3.093123
      pz      :     0.899935  p :     2.733998
      px      :     0.910043
      py      :     0.924021
      dz2     :     0.016934  d :     0.107953
      dxz     :     0.014133
      dyz     :     0.027088
      dx2y2   :     0.023086
      dxy     :     0.026712
      f0      :     0.001044  f :     0.011291
      f+1     :     0.001544
      f-1     :     0.001193
      f+2     :     0.001744
[...]
      f-1     :     0.004889
      f+2     :     0.007022
      f-2     :     0.005434
      f+3     :     0.006453
      f-3     :     0.009426
 15 C s       :     2.705812  s :     2.705812
      pz      :     0.889749  p :     2.796012
      px      :     0.946352
      py      :     0.959910
      dz2     :     0.084859  d :     0.415659
      dxz     :     0.073225
      dyz     :     0.052997
      dx2y2   :     0.104680
      dxy     :     0.099898
      f0      :     0.003079  f :     0.040996
      f+1     :     0.005233
      f-1     :     0.005393
      f+2     :     0.007254
      f-2     :     0.005941
      f+3     :     0.007320
      f-3     :     0.006778
 16 C s       :     2.701868  s :     2.701868
      pz      :     0.933197  p :     2.869065
      px      :     0.969193
      py      :     0.966674
      dz2     :     0.039363  d :     0.390952
      dxz     :     0.062658
      dyz     :     0.078996
      dx2y2   :     0.097112
      dxy     :     0.112823
      f0      :     0.003880  f :     0.040320
      f+1     :     0.004987
      f-1     :     0.003406
      f+2     :     0.005795
      f-2     :     0.005276
      f+3     :     0.008225
      f-3     :     0.008752
 17 C s       :     2.701553  s :     2.701553
      pz      :     0.851655  p :     2.684450
      px      :     0.820516
      py      :     1.012279
      dz2     :     0.117884  d :     0.708416
      dxz     :     0.118542
      dyz     :     0.123387
      dx2y2   :     0.175446
      dxy     :     0.173156
      f0      :     0.008227  f :     0.099264
      f+1     :     0.016736
      f-1     :     0.007771
      f+2     :     0.015543
      f-2     :     0.014010
      f+3     :     0.016530
      f-3     :     0.020448
 18 O s       :     3.177233  s :     3.177233
      pz      :     1.454969  p :     4.348980
      px      :     1.395417
      py      :     1.498594
      dz2     :     0.007418  d :     0.075578
      dxz     :     0.017359
      dyz     :     0.016314
      dx2y2   :     0.018503
      dxy     :     0.015983
      f0      :     0.000563  f :     0.005077
      f+1     :     0.000759
      f-1     :     0.000340
      f+2     :     0.000718
      f-2     :     0.000859
      f+3     :     0.000804
      f-3     :     0.001033
 19 C s       :     2.695223  s :     2.695223
      pz      :     0.927673  p :     2.846942
      px      :     0.959772
      py      :     0.959496
      dz2     :     0.069518  d :     0.388626
      dxz     :     0.069572
      dyz     :     0.055490
      dx2y2   :     0.092614
      dxy     :     0.101431
      f0      :     0.003197  f :     0.040832
      f+1     :     0.005214
      f-1     :     0.005006
      f+2     :     0.007293
      f-2     :     0.006444
      f+3     :     0.007284
      f-3     :     0.006393
 20 H s       :     0.847046  s :     0.847046
      pz      :     0.069891  p :     0.150860
      px      :     0.038471
      py      :     0.042499
      dz2     :     0.009145  d :     0.027457
      dxz     :     0.007703
      dyz     :     0.008146
      dx2y2   :     0.000894
      dxy     :     0.001568
 21 H s       :     0.846481  s :     0.846481
      pz      :     0.039679  p :     0.150757
      px      :     0.052519
      py      :     0.058559
      dz2     :     0.002233  d :     0.027403
      dxz     :     0.003630
      dyz     :     0.005806
      dx2y2   :     0.008706
      dxy     :     0.007028
 22 H s       :     0.852569  s :     0.852569
      pz      :     0.046986  p :     0.151028
      px      :     0.045960
      py      :     0.058082
      dz2     :     0.005516  d :     0.027511
      dxz     :     0.003667
      dyz     :     0.005483
      dx2y2   :     0.006434
      dxy     :     0.006412
 23 H s       :     0.849117  s :     0.849117
      pz      :     0.050317  p :     0.148830
      px      :     0.043100
      py      :     0.055413
      dz2     :     0.006005  d :     0.027251
      dxz     :     0.003063
      dyz     :     0.006379
      dx2y2   :     0.005463
      dxy     :     0.006341
 24 H s       :     0.857695  s :     0.857695
      pz      :     0.073566  p :     0.144886
      px      :     0.036209
      py      :     0.035111
      dz2     :     0.008471  d :     0.026800
      dxz     :     0.007907
      dyz     :     0.008021
      dx2y2   :     0.001002
      dxy     :     0.001398
 25 H s       :     0.830258  s :     0.830258
      pz      :     0.064542  p :     0.150157
      px      :     0.042971
      py      :     0.042644
      dz2     :     0.008971  d :     0.027695
      dxz     :     0.007360
      dyz     :     0.006839
      dx2y2   :     0.002855
      dxy     :     0.001670
 26 H s       :     0.842393  s :     0.842393
      pz      :     0.037122  p :     0.150015
      px      :     0.039748
      py      :     0.073145
      dz2     :     0.002299  d :     0.027690
      dxz     :     0.000188
      dyz     :     0.009094
      dx2y2   :     0.006762
      dxy     :     0.009346
 27 H s       :     0.830945  s :     0.830945
      pz      :     0.038328  p :     0.151907
      px      :     0.069270
      py      :     0.044309
      dz2     :     0.002443  d :     0.027727
      dxz     :     0.008195
      dyz     :     0.000813
      dx2y2   :     0.008587
      dxy     :     0.007689
 28 H s       :     0.743021  s :     0.743021
      pz      :     0.058808  p :     0.254057
      px      :     0.083911
      py      :     0.111338
      dz2     :     0.005900  d :     0.061848
      dxz     :     0.003521
      dyz     :     0.015738
      dx2y2   :     0.018376
      dxy     :     0.018313
 29 H s       :     0.748567  s :     0.748567
      pz      :     0.112045  p :     0.254074
      px      :     0.098003
      py      :     0.044026
      dz2     :     0.020955  d :     0.061345
      dxz     :     0.015669
      dyz     :     0.010029
      dx2y2   :     0.008664
      dxy     :     0.006029
 30 H s       :     0.828248  s :     0.828248
      pz      :     0.040937  p :     0.148314
      px      :     0.067371
      py      :     0.040006
      dz2     :     0.003214  d :     0.028328
      dxz     :     0.007768
      dyz     :     0.002735
      dx2y2   :     0.007273
      dxy     :     0.007337
 31 H s       :     0.841674  s :     0.841674
      pz      :     0.051420  p :     0.155889
      px      :     0.068397
      py      :     0.036072
      dz2     :     0.004741  d :     0.027457
      dxz     :     0.007187
      dyz     :     0.002721
      dx2y2   :     0.006240
      dxy     :     0.006568
 32 H s       :     0.842945  s :     0.842945
      pz      :     0.037757  p :     0.151271
      px      :     0.041276
      py      :     0.072238
      dz2     :     0.002693  d :     0.026470
      dxz     :     0.001252
      dyz     :     0.006751
      dx2y2   :     0.007845
      dxy     :     0.007929
 33 H s       :     0.849008  s :     0.849008
      pz      :     0.058204  p :     0.159173
      px      :     0.046579
      py      :     0.054389
      dz2     :     0.005972  d :     0.027772
      dxz     :     0.004572
      dyz     :     0.006119
      dx2y2   :     0.005792
      dxy     :     0.005317
 34 H s       :     0.706720  s :     0.706720
      pz      :     0.117217  p :     0.347938
      px      :     0.081355
      py      :     0.149366
      dz2     :     0.023905  d :     0.099595
      dxz     :     0.011455
      dyz     :     0.024504
      dx2y2   :     0.020366
      dxy     :     0.019364
 35 H s       :     0.839740  s :     0.839740
      pz      :     0.041151  p :     0.157096
      px      :     0.042727
      py      :     0.073217
      dz2     :     0.002745  d :     0.028058
      dxz     :     0.001488
      dyz     :     0.007427
      dx2y2   :     0.008206
      dxy     :     0.008193


                      *****************************
                      * MAYER POPULATION ANALYSIS *
                      *****************************

  NA   - Mulliken gross atomic population
  ZA   - Total nuclear charge
  QA   - Mulliken gross atomic charge
  VA   - Mayer's total valence
  BVA  - Mayer's bonded valence
  FA   - Mayer's free valence

  ATOM       NA         ZA         QA         VA         BVA        FA
  0 C      6.2820     6.0000    -0.2820     3.8900     3.8900     0.0000
  1 C      5.9639     6.0000     0.0361     3.8562     3.8562     0.0000
  2 O      8.3584     8.0000    -0.3584     2.0264     2.0264     0.0000
  3 C      5.5549     6.0000     0.4451     4.2081     4.2081     0.0000
  4 O      8.4134     8.0000    -0.4134     2.0994     2.0994    -0.0000
  5 C      6.1828     6.0000    -0.1828     3.6278     3.6278     0.0000
  6 C      5.8600     6.0000     0.1400     3.8376     3.8376     0.0000
  7 C      6.2848     6.0000    -0.2848     3.8938     3.8938    -0.0000
  8 N      7.1248     7.0000    -0.1248     3.2897     3.2897     0.0000
  9 C      5.7949     6.0000     0.2051     4.1537     4.1537     0.0000
 10 S     16.4406    16.0000    -0.4406     1.7548     1.7548    -0.0000
 11 N      7.2000     7.0000    -0.2000     3.2594     3.2594     0.0000
 12 C      5.9493     6.0000     0.0507     3.9628     3.9628     0.0000
 13 C      5.9464     6.0000     0.0536     3.7350     3.7350     0.0000
 14 C      6.1604     6.0000    -0.1604     3.8650     3.8650    -0.0000
 15 C      6.1325     6.0000    -0.1325     3.8070     3.8070    -0.0000
 16 C      6.2803     6.0000    -0.2803     3.7956     3.7956    -0.0000
 17 C      5.6827     6.0000     0.3173     3.8680     3.8680     0.0000
 18 O      8.3610     8.0000    -0.3610     2.1121     2.1121     0.0000
 19 C      6.2890     6.0000    -0.2890     3.8449     3.8449     0.0000
 20 H      0.8925     1.0000     0.1075     0.9798     0.9798     0.0000
 21 H      0.8987     1.0000     0.1013     0.9854     0.9854     0.0000
 22 H      0.9105     1.0000     0.0895     0.9814     0.9814     0.0000
 23 H      0.8905     1.0000     0.1095     0.9867     0.9867    -0.0000
 24 H      0.8998     1.0000     0.1002     0.9783     0.9783     0.0000
 25 H      0.8750     1.0000     0.1250     0.9834     0.9834    -0.0000
 26 H      0.8955     1.0000     0.1045     0.9863     0.9863    -0.0000
 27 H      0.8739     1.0000     0.1261     0.9752     0.9752     0.0000
 28 H      0.8030     1.0000     0.1970     1.0229     1.0229     0.0000
 29 H      0.8058     1.0000     0.1942     1.0183     1.0183     0.0000
 30 H      0.8460     1.0000     0.1540     0.9960     0.9960     0.0000
 31 H      0.8461     1.0000     0.1539     0.9883     0.9883    -0.0000
 32 H      0.8397     1.0000     0.1603     0.9773     0.9773    -0.0000
 33 H      0.8703     1.0000     0.1297     0.9918     0.9918     0.0000
 34 H      0.7592     1.0000     0.2408     1.0108     1.0108    -0.0000
 35 H      0.8314     1.0000     0.1686     0.9860     0.9860     0.0000

  Mayer bond orders larger than 0.100000
B(  0-C ,  1-C ) :   0.9694 B(  0-C , 20-H ) :   0.9734 B(  0-C , 21-H ) :   0.9781 
B(  0-C , 22-H ) :   0.9791 B(  1-C ,  2-O ) :   0.8909 B(  1-C , 23-H ) :   0.9709 
B(  1-C , 24-H ) :   0.9848 B(  2-O ,  3-C ) :   1.1286 B(  3-C ,  4-O ) :   2.0085 
B(  3-C ,  5-C ) :   1.0307 B(  5-C ,  6-C ) :   1.6637 B(  5-C , 12-C ) :   0.9652 
B(  6-C ,  7-C ) :   0.9543 B(  6-C ,  8-N ) :   1.1425 B(  7-C , 25-H ) :   0.9692 
B(  7-C , 26-H ) :   0.9886 B(  7-C , 27-H ) :   0.9636 B(  8-N ,  9-C ) :   1.1835 
B(  8-N , 28-H ) :   0.9495 B(  9-C , 10-S ) :   1.6093 B(  9-C , 11-N ) :   1.3017 
B( 11-N , 12-C ) :   0.9928 B( 11-N , 29-H ) :   0.9517 B( 12-C , 13-C ) :   0.9452 
B( 12-C , 30-H ) :   0.9984 B( 13-C , 14-C ) :   1.3757 B( 13-C , 19-C ) :   1.3653 
B( 14-C , 15-C ) :   1.3935 B( 14-C , 31-H ) :   0.9648 B( 15-C , 16-C ) :   1.3636 
B( 15-C , 32-H ) :   0.9711 B( 16-C , 17-C ) :   1.3322 B( 16-C , 33-H ) :   0.9852 
B( 17-C , 18-O ) :   1.1059 B( 17-C , 19-C ) :   1.3736 B( 18-O , 34-H ) :   0.9802 
B( 19-C , 35-H ) :   0.9581 

-------
TIMINGS
-------

Total SCF time: 0 days 1 hours 33 min 55 sec 

Total time                  ....    5635.185 sec
Sum of individual times     ....    5624.992 sec  ( 99.8%)

Fock matrix formation       ....    5595.308 sec  ( 99.3%)
Diagonalization             ....       1.773 sec  (  0.0%)
Density matrix formation    ....       0.305 sec  (  0.0%)
Population analysis         ....       0.289 sec  (  0.0%)
Initial guess               ....       4.934 sec  (  0.1%)
Orbital Transformation      ....       0.000 sec  (  0.0%)
Orbital Orthonormalization  ....       0.000 sec  (  0.0%)
DIIS solution               ....      18.026 sec  (  0.3%)
SOSCF solution              ....       3.091 sec  (  0.1%)

------------------------------------------------------------------------------
                                ORCA  MP2 
------------------------------------------------------------------------------

Freezing NCore=48 chemical core electrons

-------------
RI-MP2 ENERGY
-------------
Dimension of the basis                    ...  828
Memory devoted to MP2                     ...  256 MB   
Data format for buffers                   ... DOUBLE
Compression type for matrix containers    ... UNCOMPRESSED
Overall scaling of the MP2 energy         ...   1.000e+00
Calculating two index integrals           ... done (    0.040 sec)
Cholesky decomposition of V**-1           ... done (    0.331 sec)

-----------------
RI-TRANSFORMATION (AUX index driven)
-----------------

Dimension of the orbital-basis         ... 828
Dimension of the aux-basis             ... 2141
Transformation of internal/external MOs...   24-  76 to   77- 827
Number Format for Storage              ... Double (8 Byte)
Integral mode                          ... Direct

First Phase: integral generation and transformation of MO indices
  Aux angular momentum 0               ... done (    4.989 sec)
  Aux angular momentum 1               ... done (    7.830 sec)
  Aux angular momentum 2               ... done (   11.423 sec)
  Aux angular momentum 3               ... done (    8.951 sec)
  Aux angular momentum 4               ... done (    2.912 sec)
Closing buffer VIA ( 0.63 GB; CompressionRatio= 1.00)
  Phase 1 completed in    36.332 sec
Second Phase: sorting and transformation of aux index

IA-Transformation
Memory available                       ... 167 MB 
Max. # MO pairs treated in a batch     ... 12    
# of internal orbitals                 ... 53
# batches for internal orbitals        ... 5
Closing buffer IAV ( 0.63 GB; CompressionRatio= 1.00)
(ia|v) transformation done in    31.038 sec

  Phase 2 completed in    31.102 sec
RI-Integral transformation completed in    67.448 sec
Opening buffers                              ... done

Starting loop over batches of integrals:

Operator 0  - window                       ... ( 24- 76)x( 77-827)
Operator 0  - Memory available             ...   256 MB
Operator 0  - Memory needed per MO         ...  12.3 MB
Operator 0  - Number of orbitals per batch ... 13
Operator 0  - Number of batches            ... 5

OPERATOR  0   PASS   0:  MOs    24 ...   36
  Reading integrals       ... ok
  Internal MO  26
  Internal MO  29
  Internal MO  32
  Internal MO  35
OPERATOR  0   PASS   1:  MOs    37 ...   49
  Reading integrals       ... ok
  Internal MO  38
  Internal MO  41
  Internal MO  44
  Internal MO  47
OPERATOR  0   PASS   2:  MOs    50 ...   62
  Reading integrals       ... ok
  Internal MO  50
  Internal MO  53
  Internal MO  56
  Internal MO  59
  Internal MO  62
OPERATOR  0   PASS   3:  MOs    63 ...   75
  Reading integrals       ... ok
  Internal MO  65
  Internal MO  68
  Internal MO  71
  Internal MO  74
OPERATOR  0   PASS   4:  MOs    76 ...   76
  Reading integrals       ... ok
Time spent in pair loops =    77.663 sec
Deleting buffer (Ka|jb)[aa] ...done

-----------------------------------------------
 RI-MP2 CORRELATION ENERGY:     -3.532781232 Eh
-----------------------------------------------


-------
TIMINGS
-------

Total time                :  145.601 sec
Integral trafo            :   67.483 sec ( 46.3%)
I/O of integrals          :    2.999 sec (  2.1%)
K(i,j) Operators          :   48.338 sec ( 33.2%)
T(i,j) pair energies      :    8.220 sec (  5.6%)
V-calculation             :    0.040 sec (  0.0%)
V**(-1/2)                 :    0.331 sec (  0.2%)
Gamma(ia|P)               :    0.000 sec (  0.0%)
Gamma-Trafo               :    0.000 sec (  0.0%)
D(virtual)                :    0.000 sec (  0.0%)
D(internal)               :    0.000 sec (  0.0%)
W(virtual)                :    0.000 sec (  0.0%)
W(internal)               :    0.000 sec (  0.0%)
L(virtual)                :    0.000 sec (  0.0%)
L(internal)               :    0.000 sec (  0.0%)
G(D)                      :    0.000 sec (  0.0%)
G(Z)                      :    0.000 sec (  0.0%)
Z-Vector Solution         :    0.000 sec (  0.0%)
3-Index Derivative        :    0.000 sec (  0.0%)
2-Index Derivative        :    0.000 sec (  0.0%)
Separable Gradient        :    0.000 sec (  0.0%)


---------------------------------------
MP2 TOTAL ENERGY:    -1274.336533395 Eh
---------------------------------------

-------------------------   --------------------
FINAL SINGLE POINT ENERGY     -1274.336533395497
-------------------------   --------------------


                            ***************************************
                            *     ORCA property calculations      *
                            ***************************************


  WARNING: The energy has been calculated at the MP2 level but the densities
           used in the property calculations are still SCF densities
           MP2 response densities have not been calculated 
           use %mp2 Density relaxed end
           or  %mp2 Density unrelaxed end

                                    ---------------------
                                    Active property flags
                                    ---------------------
   (+) Dipole Moment


------------------------------------------------------------------------------
                       ORCA ELECTRIC PROPERTIES CALCULATION
------------------------------------------------------------------------------

Dipole Moment Calculation                       ... on
Quadrupole Moment Calculation                   ... off
Polarizability Calculation                      ... off
GBWName                                         ... CONFS/Conf7.orca.gbw
Electron density file                           ... CONFS/Conf7.orca.scfp
The origin for moment calculation is the CENTER OF MASS  = (32.890606, 31.433705 35.317634)

-------------
DIPOLE MOMENT
-------------
                                X             Y             Z
Electronic contribution:     11.41353       8.34022       7.46330
Nuclear contribution   :    -12.77598      -9.68391      -8.27030
                        -----------------------------------------
Total Dipole Moment    :     -1.36245      -1.34369      -0.80700
                        -----------------------------------------
Magnitude (a.u.)       :      2.07678
Magnitude (Debye)      :      5.27876



--------------------
Rotational spectrum 
--------------------
 
Rotational constants in cm-1:     0.011315     0.009216     0.006597 
Rotational constants in MHz :   339.201637   276.295478   197.765303 

 Dipole components along the rotational axes: 
x,y,z [a.u.] :    -1.832066     0.736563     0.643452 
x,y,z [Debye]:    -4.656741     1.872194     1.635526 

 

Timings for individual modules:

Sum of individual times         ...     5786.731 sec (=  96.446 min)
GTO integral calculation        ...        3.661 sec (=   0.061 min)   0.1 %
SCF iterations                  ...     5636.735 sec (=  93.946 min)  97.4 %
MP2 module                      ...      146.335 sec (=   2.439 min)   2.5 %
                             ****ORCA TERMINATED NORMALLY****
TOTAL RUN TIME: 0 days 1 hours 36 minutes 27 seconds 596 msec
