
                                 *****************
                                 * O   R   C   A *
                                 *****************

           --- An Ab Initio, DFT and Semiempirical electronic structure package ---

                  #######################################################
                  #                        -***-                        #
                  #          Department of theory and spectroscopy      #
                  #               Directorship: Frank Neese             #
                  #        Max Planck Institute fuer Kohlenforschung    #
                  #                Kaiser Wilhelm Platz 1               #
                  #                 D-45470 Muelheim/Ruhr               #
                  #                      Germany                        #
                  #                                                     #
                  #                  All rights reserved                #
                  #                        -***-                        #
                  #######################################################


                         Program Version 4.2.0 -  RELEASE  -


 With contributions from (in alphabetic order):
   Daniel Aravena         : Magnetic Suceptibility
   Michael Atanasov       : Ab Initio Ligand Field Theory (pilot matlab implementation)
   Alexander A. Auer      : GIAO ZORA, VPT2
   Ute Becker             : Parallelization
   Giovanni Bistoni       : ED, misc. LED, open-shell LED, HFLED
   Martin Brehm           : Molecular dynamics
   Dmytro Bykov           : SCF Hessian
   Vijay G. Chilkuri      : MRCI spin determinant printing, contributions to CSF-ICE
   Dipayan Datta          : RHF DLPNO-CCSD density
   Achintya Kumar Dutta   : EOM-CC, STEOM-CC
   Dmitry Ganyushin       : Spin-Orbit,Spin-Spin,Magnetic field MRCI
   Miquel Garcia          : C-PCM Hessian, Gaussian charge scheme
   Yang Guo               : DLPNO-NEVPT2, CIM, IAO-localization
   Andreas Hansen         : Spin unrestricted coupled pair/coupled cluster methods
   Benjamin Helmich-Paris : CASSCF linear response (MC-RPA)
   Lee Huntington         : MR-EOM, pCC
   Robert Izsak           : Overlap fitted RIJCOSX, COSX-SCS-MP3, EOM
   Christian Kollmar      : KDIIS, OOCD, Brueckner-CCSD(T), CCSD density
   Simone Kossmann        : Meta GGA functionals, TD-DFT gradient, OOMP2, MP2 Hessian
   Martin Krupicka        : AUTO-CI
   Lucas Lang             : DCDCAS
   Dagmar Lenk            : GEPOL surface, SMD
   Dimitrios Liakos       : Extrapolation schemes; Compound Job, initial MDCI parallelization
   Dimitrios Manganas     : Further ROCIS development; embedding schemes
   Dimitrios Pantazis     : SARC Basis sets
   Taras Petrenko         : DFT Hessian,TD-DFT gradient, ASA, ECA, R-Raman, ABS, FL, XAS/XES, NRVS
   Peter Pinski           : DLPNO-MP2, DLPNO-MP2 Gradient
   Christoph Reimann      : Effective Core Potentials
   Marius Retegan         : Local ZFS, SOC
   Christoph Riplinger    : Optimizer, TS searches, QM/MM, DLPNO-CCSD(T), (RO)-DLPNO pert. Triples
   Tobias Risthaus        : Range-separated hybrids, TD-DFT gradient, RPA, STAB
   Michael Roemelt        : Original ROCIS implementation
   Masaaki Saitow         : Open-shell DLPNO-CCSD energy and density
   Barbara Sandhoefer     : DKH picture change effects
   Avijit Sen             : IP-ROCIS
   Kantharuban Sivalingam : CASSCF convergence, NEVPT2, FIC-MRCI
   Bernardo de Souza      : ESD, SOC TD-DFT
   Georgi Stoychev        : AutoAux, RI-MP2 NMR
   Willem Van den Heuvel  : Paramagnetic NMR
   Boris Wezisla          : Elementary symmetry handling
   Frank Wennmohs         : Technical directorship


 We gratefully acknowledge several colleagues who have allowed us to
 interface, adapt or use parts of their codes:
   Stefan Grimme, W. Hujo, H. Kruse,             : VdW corrections, initial TS optimization,
                  C. Bannwarth                     DFT functionals, gCP, sTDA/sTD-DF
   Ed Valeev, F. Pavosevic, A. Kumar             : LibInt (2-el integral package), F12 methods
   Garnet Chan, S. Sharma, J. Yang, R. Olivares  : DMRG
   Ulf Ekstrom                                   : XCFun DFT Library
   Mihaly Kallay                                 : mrcc  (arbitrary order and MRCC methods)
   Andreas Klamt, Michael Diedenhofen            : otool_cosmo (COSMO solvation model)
   Jiri Pittner, Ondrej Demel                    : Mk-CCSD
   Frank Weinhold                                : gennbo (NPA and NBO analysis)
   Christopher J. Cramer and Donald G. Truhlar   : smd solvation model
   Lars Goerigk                                  : TD-DFT with DH, B97 family of functionals
   V. Asgeirsson, H. Jonsson                     : NEB implementation
   FAccTs GmbH                                   : IRC, NEB, NEB-TS, Multilevel, MM, QM/MM, CI optimization
   S Lehtola, MJT Oliveira, MAL Marques          : LibXC Library


 Your calculation uses the libint2 library for the computation of 2-el integrals
 For citations please refer to: http://libint.valeyev.net

 Your ORCA version has been built with support for libXC version: 4.2.3
 For citations please refer to: https://tddft.org/programs/libxc/

 This ORCA versions uses:
   CBLAS   interface :  Fast vector & matrix operations
   LAPACKE interface :  Fast linear algebra routines
   SCALAPACK package :  Parallel linear algebra routines


----- Orbital basis set information -----
Your calculation utilizes the basis: cc-pVTZ 
       H, B-Ne : Obtained from the ccRepo (grant-hill.group.shef.ac.uk/ccrepo) Feb. 2017
                 T. H. Dunning, Jr., J. Chem. Phys. 90, 1007 (1989)
            He : Obtained from the ccRepo (grant-hill.group.shef.ac.uk/ccrepo) Feb. 2017
                 D. E. Woon, T. H. Dunning, Jr., J. Chem. Phys. 100, 2975 (1994)
  Li-Be, Na-Mg : Obtained from the ccRepo (grant-hill.group.shef.ac.uk/ccrepo) Feb. 2017
                 B. P. Prascher, D. E. Woon, K. A. Peterson, T. H. Dunning, Jr., A. K. Wilson, Theor. Chem. Acc. 128, 69 (2011)
         Al-Ar : Obtained from the ccRepo (grant-hill.group.shef.ac.uk/ccrepo) Feb. 2017
                 D. E. Woon, T. H. Dunning, Jr., J. Chem. Phys. 98, 1358 (1993)
            Ca : Obtained from the Peterson Research Group Website (tyr0.chem.wsu.edu/~kipeters) Feb. 2017
                 J. Koput, K. A. Peterson, J. Phys. Chem. 106, 9595 (2002)
         Sc-Zn : Obtained from the ccRepo (grant-hill.group.shef.ac.uk/ccrepo) Feb. 2017
                 N. B. Balabanov, K. A. Peterson, J. Chem. Phys. 123, 064107 (2005)
                 N. B. Balabanov, K. A. Peterson, J. Chem. Phys. 125, 074110 (2006)
         Ga-Kr : Obtained from the ccRepo (grant-hill.group.shef.ac.uk/ccrepo) Feb. 2017
                 A. K. Wilson, D. E. Woon, K. A. Peterson, T. H. Dunning, Jr., J. Chem. Phys. 110, 7667 (1999)
             Y : Obtained from the ccRepo (grant-hill.group.shef.ac.uk/ccrepo) Feb. 2017
                 K. A. Peterson, D. Figgen, M. Dolg, H. Stoll, J. Chem. Phys. 126, 124101 (2007)
        Ag, Au : Obtained from the Peterson Research Group Website (tyr0.chem.wsu.edu/~kipeters) Feb. 2017
                 K. A. Peterson, C. Puzzarini, Theor. Chem. Acc. 114, 283 (2005)

----- AuxC basis set information -----
Your calculation utilizes the auxiliary basis: cc-pVTZ/C 
  Obtained from the EMSL Basis Set Exchange (bse.pnl.gov) Feb. 2017
  H-He, B-F, Al-Ar, Ga-Kr : F. Weigend, A. Kohn, C. Hattig, J. Chem. Phys. 116, 3175 (2002)
             Li-Be, Na-Mg : C. Haettig, Phys. Chem. Chem. Phys. 7, 59 (2005)
                       Ne : C. Haettig, Phys. Chem. Chem. Phys. 7, 59 (2005)
                            F. Weigend, A. Kohn, C. Hattig, J. Chem. Phys. 116, 3175 (2002)
                    Sc-Zn : J. G. Hill, J. A. Platts, J. Chem. Phys. 128, 044104 (2008)

================================================================================
                                        WARNINGS
                       Please study these warnings very carefully!
================================================================================


WARNING: No MP2 level density has been requested!
         To caclulate MP2 level properties use
         %mp2 Density relaxed end
         or
         %mp2 Density unrelaxed end

WARNING: Post HF methods need fully converged wavefunctions
  ===> : Setting SCFConvForced true
         You can overwrite this default with %scf ConvForced false 


INFO   : the flag for use of LIBINT has been found!

================================================================================
                                       INPUT FILE
================================================================================
NAME = CONFS/Conf1.orca
|  1> ! ri-mp2 cc-pvtz cc-pvtz/c TightSCF NoKeepInts
|  2> 
|  3> %scf
|  4>   MaxCore 4096
|  5> end
|  6> *xyz  0  1
|  7>     C       15.0049383   14.1016981   14.9350991
|  8>     C       15.2774261   14.7204675   16.3164221
|  9>     O       16.2694880   15.7483379   16.1418117
| 10>     C       17.4663260   15.6363666   16.7877919
| 11>     O       17.9750127   14.5500401   17.0108517
| 12>     C       17.8342556   16.8597552   17.5753233
| 13>     C       17.4374361   18.1214511   17.2666321
| 14>     C       16.5928869   18.5672749   16.0906457
| 15>     N       17.8834399   19.1984255   18.0395175
| 16>     C       18.8300038   19.1151552   19.0264959
| 17>     S       19.3930834   20.4587604   19.8095486
| 18>     N       19.2871070   17.8579216   19.3310805
| 19>     C       18.7273201   16.6032391   18.7940080
| 20>     C       17.9639388   15.8505805   19.8808174
| 21>     C       18.2869047   14.5149336   20.1837320
| 22>     C       17.5837532   13.8155413   21.1788829
| 23>     C       16.5472387   14.4563692   21.8785909
| 24>     C       16.2195392   15.7852518   21.5773933
| 25>     O       15.2144637   16.4046858   22.2462828
| 26>     C       16.9207176   16.4785133   20.5858266
| 27>     H       15.9165632   13.6393078   14.5357302
| 28>     H       14.6643268   14.8667717   14.2265588
| 29>     H       14.2311980   13.3276658   15.0057450
| 30>     H       14.3533479   15.1631364   16.7097813
| 31>     H       15.6071874   13.9423825   17.0190039
| 32>     H       16.9282396   18.0860095   15.1633557
| 33>     H       16.6403976   19.6502425   15.9237463
| 34>     H       15.5402736   18.3003003   16.2467550
| 35>     H       17.5605118   20.1296092   17.8304679
| 36>     H       19.9621378   17.8209597   20.0840364
| 37>     H       19.5692662   15.9761213   18.4667305
| 38>     H       19.0764881   14.0113814   19.6311532
| 39>     H       17.8400889   12.7808346   21.3992671
| 40>     H       16.0006089   13.9193645   22.6465690
| 41>     H       14.8880894   15.7857189   22.9165313
| 42>     H       16.6529952   17.5074254   20.3718146
| 43> *
| 44> 
| 45>                          ****END OF INPUT****
================================================================================

                       ****************************
                       * Single Point Calculation *
                       ****************************

---------------------------------
CARTESIAN COORDINATES (ANGSTROEM)
---------------------------------
  C     15.004938   14.101698   14.935099
  C     15.277426   14.720467   16.316422
  O     16.269488   15.748338   16.141812
  C     17.466326   15.636367   16.787792
  O     17.975013   14.550040   17.010852
  C     17.834256   16.859755   17.575323
  C     17.437436   18.121451   17.266632
  C     16.592887   18.567275   16.090646
  N     17.883440   19.198425   18.039517
  C     18.830004   19.115155   19.026496
  S     19.393083   20.458760   19.809549
  N     19.287107   17.857922   19.331080
  C     18.727320   16.603239   18.794008
  C     17.963939   15.850580   19.880817
  C     18.286905   14.514934   20.183732
  C     17.583753   13.815541   21.178883
  C     16.547239   14.456369   21.878591
  C     16.219539   15.785252   21.577393
  O     15.214464   16.404686   22.246283
  C     16.920718   16.478513   20.585827
  H     15.916563   13.639308   14.535730
  H     14.664327   14.866772   14.226559
  H     14.231198   13.327666   15.005745
  H     14.353348   15.163136   16.709781
  H     15.607187   13.942383   17.019004
  H     16.928240   18.086009   15.163356
  H     16.640398   19.650243   15.923746
  H     15.540274   18.300300   16.246755
  H     17.560512   20.129609   17.830468
  H     19.962138   17.820960   20.084036
  H     19.569266   15.976121   18.466731
  H     19.076488   14.011381   19.631153
  H     17.840089   12.780835   21.399267
  H     16.000609   13.919365   22.646569
  H     14.888089   15.785719   22.916531
  H     16.652995   17.507425   20.371815

----------------------------
CARTESIAN COORDINATES (A.U.)
----------------------------
  NO LB      ZA    FRAG     MASS         X           Y           Z
   0 C     6.0000    0    12.011   28.355224   26.648347   28.223247
   1 C     6.0000    0    12.011   28.870151   27.817652   30.833569
   2 O     8.0000    0    15.999   30.744877   29.760046   30.503603
   3 C     6.0000    0    12.011   33.006573   29.548451   31.724329
   4 O     8.0000    0    15.999   33.967851   27.495591   32.145851
   5 C     6.0000    0    12.011   33.701859   31.860320   33.212548
   6 C     6.0000    0    12.011   32.951979   34.244580   32.629206
   7 C     6.0000    0    12.011   31.356012   35.087065   30.406914
   8 N     7.0000    0    14.007   33.794804   36.279766   34.089748
   9 C     6.0000    0    12.011   35.583550   36.122408   35.954867
  10 S    16.0000    0    32.060   36.647617   38.661454   37.434622
  11 N     7.0000    0    14.007   36.447350   33.746581   36.530448
  12 C     6.0000    0    12.011   35.389506   31.375575   35.515528
  13 C     6.0000    0    12.011   33.946925   29.953256   37.569300
  14 C     6.0000    0    12.011   34.557242   27.429249   38.141726
  15 C     6.0000    0    12.011   33.228478   26.107589   40.022289
  16 C     6.0000    0    12.011   31.269749   27.318579   41.344545
  17 C     6.0000    0    12.011   30.650487   29.829803   40.775364
  18 O     8.0000    0    15.999   28.751170   31.000363   42.039382
  19 C     6.0000    0    12.011   31.975522   31.139877   38.901575
  20 H     1.0000    0     1.008   30.077945   25.774556   27.468549
  21 H     1.0000    0     1.008   27.711562   28.094127   26.884300
  22 H     1.0000    0     1.008   26.893067   25.185638   28.356748
  23 H     1.0000    0     1.008   27.123897   28.654175   31.576910
  24 H     1.0000    0     1.008   29.493310   26.347285   32.161256
  25 H     1.0000    0     1.008   31.989737   34.177605   28.654590
  26 H     1.0000    0     1.008   31.445794   37.133577   30.091520
  27 H     1.0000    0     1.008   29.366861   34.582556   30.701918
  28 H     1.0000    0     1.008   33.184558   38.039449   33.694701
  29 H     1.0000    0     1.008   37.722973   33.676733   37.953328
  30 H     1.0000    0     1.008   36.980554   30.190494   34.897063
  31 H     1.0000    0     1.008   36.049338   26.477674   37.097503
  32 H     1.0000    0     1.008   33.712882   24.152277   40.438754
  33 H     1.0000    0     1.008   30.236769   26.303787   42.795813
  34 H     1.0000    0     1.008   28.134412   29.830686   43.305968
  35 H     1.0000    0     1.008   31.469600   33.084239   38.497150

--------------------------------
INTERNAL COORDINATES (ANGSTROEM)
--------------------------------
 C      0   0   0     0.000000000000     0.00000000     0.00000000
 C      1   0   0     1.537913652275     0.00000000     0.00000000
 O      2   1   0     1.439164050557   107.48889846     0.00000000
 C      3   2   1     1.364642513283   119.24416739   241.21450540
 O      4   3   2     1.220091430072   121.68547487    32.34328269
 C      4   3   2     1.500752332383   113.36166691   231.93887912
 C      6   4   3     1.358172491481   124.49808723   331.46010752
 C      7   6   4     1.514914593253   127.78515196   358.64981314
 N      7   6   4     1.398622568602   119.77258198   182.58124945
 C      9   7   6     1.370052379186   124.86261358     7.64097545
 S     10   9   7     1.653936244352   121.79683447   174.83598903
 N     10   9   7     1.371988133686   116.47513753   354.86386334
 C     12  10   9     1.475139457636   124.90046735   352.49056744
 C     13  12  10     1.526564983639   110.48240712   251.55857098
 C     14  13  12     1.407130722050   120.42942014   234.88389902
 C     15  14  13     1.404954424536   120.67212278   180.28223667
 C     16  15  14     1.405209589845   119.65957153     0.00000000
 C     17  16  15     1.401440659154   119.86037706     0.17855710
 O     18  17  16     1.356940825632   120.00744080   179.64994004
 C     18  17  16     1.398380197428   120.34736458   359.85691414
 H      1   2   3     1.097433490523   110.43834342    61.91236887
 H      1   2   3     1.096988224218   110.76512532   301.72751962
 H      1   2   3     1.096718239328   110.55504180   181.61410651
 H      2   1   3     1.097546233635   109.57286385   119.05843188
 H      2   1   3     1.098990431211   110.02983646   237.66266216
 H      8   7   6     1.097244076190   110.88959622   315.11427694
 H      8   7   6     1.096782338928   112.61644408   195.33211543
 H      8   7   6     1.097105423343   110.65928542    74.77132548
 H      9   7   6     1.007515447115   119.65764091   182.29848332
 H     12  10   9     1.011916671641   114.89214602   181.96346012
 H     13  12  10     1.099663826989   107.62977600   133.52788318
 H     15  14  13     1.087359229459   119.79111016   359.18735329
 H     16  15  14     1.088528888789   119.91662313   179.65080489
 H     17  16  15     1.084881812987   119.89500556   179.89247812
 H     19  18  17     0.968954724819   107.38907531     3.20371755
 H     20  18  17     1.084498284522   119.11053544   180.24058992

---------------------------
INTERNAL COORDINATES (A.U.)
---------------------------
 C      0   0   0     0.000000000000     0.00000000     0.00000000
 C      1   0   0     2.906235620419     0.00000000     0.00000000
 O      2   1   0     2.719625917338   107.48889846     0.00000000
 C      3   2   1     2.578800620811   119.24416739   241.21450540
 O      4   3   2     2.305638661180   121.68547487    32.34328269
 C      4   3   2     2.836010903047   113.36166691   231.93887912
 C      6   4   3     2.566574051524   124.49808723   331.46010752
 C      7   6   4     2.862773697530   127.78515196   358.64981314
 N      7   6   4     2.643013619379   119.77258198   182.58124945
 C      9   7   6     2.589023785788   124.86261358     7.64097545
 S     10   9   7     3.125486544791   121.79683447   174.83598903
 N     10   9   7     2.592681831657   116.47513753   354.86386334
 C     12  10   9     2.787609584273   124.90046735   352.49056744
 C     13  12  10     2.884789744711   110.48240712   251.55857098
 C     14  13  12     2.659091699300   120.42942014   234.88389902
 C     15  14  13     2.654979093013   120.67212278   180.28223667
 C     16  15  14     2.655461285567   119.65957153     0.00000000
 C     17  16  15     2.648339038742   119.86037706     0.17855710
 O     18  17  16     2.564246540381   120.00744080   179.64994004
 C     18  17  16     2.642555604237   120.34736458   359.85691414
 H      1   2   3     2.073848747282   110.43834342    61.91236887
 H      1   2   3     2.073007315909   110.76512532   301.72751962
 H      1   2   3     2.072497118406   110.55504180   181.61410651
 H      2   1   3     2.074061800888   109.57286385   119.05843188
 H      2   1   3     2.076790938789   110.02983646   237.66266216
 H      8   7   6     2.073490806067   110.88959622   315.11427694
 H      8   7   6     2.072618249096   112.61644408   195.33211543
 H      8   7   6     2.073228790158   110.65928542    74.77132548
 H      9   7   6     1.903928270743   119.65764091   182.29848332
 H     12  10   9     1.912245379751   114.89214602   181.96346012
 H     13  12  10     2.078063472389   107.62977600   133.52788318
 H     15  14  13     2.054811152869   119.79111016   359.18735329
 H     16  15  14     2.057021488674   119.91662313   179.65080489
 H     17  16  15     2.050129514217   119.89500556   179.89247812
 H     19  18  17     1.831059066076   107.38907531     3.20371755
 H     20  18  17     2.049404750455   119.11053544   180.24058992

---------------------
BASIS SET INFORMATION
---------------------
There are 5 groups of distinct atoms

 Group   1 Type C   : 18s5p2d1f contracted to 4s3p2d1f pattern {8811/311/11/1}
 Group   2 Type O   : 18s5p2d1f contracted to 4s3p2d1f pattern {8811/311/11/1}
 Group   3 Type N   : 18s5p2d1f contracted to 4s3p2d1f pattern {8811/311/11/1}
 Group   4 Type S   : 41s16p2d1f contracted to 5s4p2d1f pattern {13131311/7711/11/1}
 Group   5 Type H   : 5s2p1d contracted to 3s2p1d pattern {311/11/1}

Atom   0C    basis set group =>   1
Atom   1C    basis set group =>   1
Atom   2O    basis set group =>   2
Atom   3C    basis set group =>   1
Atom   4O    basis set group =>   2
Atom   5C    basis set group =>   1
Atom   6C    basis set group =>   1
Atom   7C    basis set group =>   1
Atom   8N    basis set group =>   3
Atom   9C    basis set group =>   1
Atom  10S    basis set group =>   4
Atom  11N    basis set group =>   3
Atom  12C    basis set group =>   1
Atom  13C    basis set group =>   1
Atom  14C    basis set group =>   1
Atom  15C    basis set group =>   1
Atom  16C    basis set group =>   1
Atom  17C    basis set group =>   1
Atom  18O    basis set group =>   2
Atom  19C    basis set group =>   1
Atom  20H    basis set group =>   5
Atom  21H    basis set group =>   5
Atom  22H    basis set group =>   5
Atom  23H    basis set group =>   5
Atom  24H    basis set group =>   5
Atom  25H    basis set group =>   5
Atom  26H    basis set group =>   5
Atom  27H    basis set group =>   5
Atom  28H    basis set group =>   5
Atom  29H    basis set group =>   5
Atom  30H    basis set group =>   5
Atom  31H    basis set group =>   5
Atom  32H    basis set group =>   5
Atom  33H    basis set group =>   5
Atom  34H    basis set group =>   5
Atom  35H    basis set group =>   5
---------------------------------
AUXILIARY/C BASIS SET INFORMATION
---------------------------------
There are 5 groups of distinct atoms

 Group   1 Type C   : 8s6p5d3f1g contracted to 8s6p5d3f1g pattern {11111111/111111/11111/111/1}
 Group   2 Type O   : 8s6p5d3f1g contracted to 8s6p5d3f1g pattern {11111111/111111/11111/111/1}
 Group   3 Type N   : 8s6p5d3f1g contracted to 8s6p5d3f1g pattern {11111111/111111/11111/111/1}
 Group   4 Type S   : 10s8p7d5f2g contracted to 10s8p7d5f2g pattern {1111111111/11111111/1111111/11111/11}
 Group   5 Type H   : 4s3p2d1f contracted to 4s3p2d1f pattern {1111/111/11/1}

Atom   0C    basis set group =>   1
Atom   1C    basis set group =>   1
Atom   2O    basis set group =>   2
Atom   3C    basis set group =>   1
Atom   4O    basis set group =>   2
Atom   5C    basis set group =>   1
Atom   6C    basis set group =>   1
Atom   7C    basis set group =>   1
Atom   8N    basis set group =>   3
Atom   9C    basis set group =>   1
Atom  10S    basis set group =>   4
Atom  11N    basis set group =>   3
Atom  12C    basis set group =>   1
Atom  13C    basis set group =>   1
Atom  14C    basis set group =>   1
Atom  15C    basis set group =>   1
Atom  16C    basis set group =>   1
Atom  17C    basis set group =>   1
Atom  18O    basis set group =>   2
Atom  19C    basis set group =>   1
Atom  20H    basis set group =>   5
Atom  21H    basis set group =>   5
Atom  22H    basis set group =>   5
Atom  23H    basis set group =>   5
Atom  24H    basis set group =>   5
Atom  25H    basis set group =>   5
Atom  26H    basis set group =>   5
Atom  27H    basis set group =>   5
Atom  28H    basis set group =>   5
Atom  29H    basis set group =>   5
Atom  30H    basis set group =>   5
Atom  31H    basis set group =>   5
Atom  32H    basis set group =>   5
Atom  33H    basis set group =>   5
Atom  34H    basis set group =>   5
Atom  35H    basis set group =>   5
------------------------------------------------------------------------------
                           ORCA GTO INTEGRAL CALCULATION
------------------------------------------------------------------------------

                         BASIS SET STATISTICS AND STARTUP INFO

 # of primitive gaussian shells          ...  682
 # of primitive gaussian functions       ... 1312
 # of contracted shells                  ...  298
 # of contracted basis functions         ...  828
 Highest angular momentum                ...    3
 Maximum contraction depth               ...   13
 Integral package used                   ... LIBINT
 Integral threshhold            Thresh   ...  2.500e-11
 Primitive cut-off              TCut     ...  2.500e-12


------------------------------ INTEGRAL EVALUATION ----------------------------


 * One electron integrals 
 Pre-screening matrix                    ... done
 Shell pair data                         ... done (   0.013 sec)

-------------------------------------------------------------------------------
                                 ORCA SCF
-------------------------------------------------------------------------------

------------
SCF SETTINGS
------------
Hamiltonian:
 Ab initio Hamiltonian  Method          .... Hartree-Fock(GTOs)


General Settings:
 Integral files         IntName         .... CONFS/Conf1.orca
 Hartree-Fock type      HFTyp           .... RHF
 Total Charge           Charge          ....    0
 Multiplicity           Mult            ....    1
 Number of Electrons    NEL             ....  154
 Basis Dimension        Dim             ....  828
 Nuclear Repulsion      ENuc            ....   1693.0604217397 Eh

Convergence Acceleration:
 DIIS                   CNVDIIS         .... on
   Start iteration      DIISMaxIt       ....    12
   Startup error        DIISStart       ....  0.200000
   # of expansion vecs  DIISMaxEq       ....     5
   Bias factor          DIISBfac        ....   1.050
   Max. coefficient     DIISMaxC        ....  10.000
 Newton-Raphson         CNVNR           .... off
 SOSCF                  CNVSOSCF        .... on
   Start iteration      SOSCFMaxIt      ....   150
   Startup grad/error   SOSCFStart      ....  0.003300
 Level Shifting         CNVShift        .... on
   Level shift para.    LevelShift      ....    0.2500
   Turn off err/grad.   ShiftErr        ....    0.0010
 Zerner damping         CNVZerner       .... off
 Static damping         CNVDamp         .... on
   Fraction old density DampFac         ....    0.7000
   Max. Damping (<1)    DampMax         ....    0.9800
   Min. Damping (>=0)   DampMin         ....    0.0000
   Turn off err/grad.   DampErr         ....    0.1000
 Fernandez-Rico         CNVRico         .... off

SCF Procedure:
 Maximum # iterations   MaxIter         ....   125
 SCF integral mode      SCFMode         .... Direct
   Integral package                     .... LIBINT
 Reset frequency        DirectResetFreq ....    20
 Integral Threshold     Thresh          ....  2.500e-11 Eh
 Primitive CutOff       TCut            ....  2.500e-12 Eh

Convergence Tolerance:
 Convergence Check Mode ConvCheckMode   .... Total+1el-Energy
 Convergence forced     ConvForced      .... 1
 Energy Change          TolE            ....  1.000e-08 Eh
 1-El. energy change                    ....  1.000e-05 Eh
 Orbital Gradient       TolG            ....  1.000e-05
 Orbital Rotation angle TolX            ....  1.000e-05
 DIIS Error             TolErr          ....  5.000e-07


Diagonalization of the overlap matrix:
Smallest eigenvalue                        ... 3.480e-05
Time for diagonalization                   ...    0.217 sec
Threshold for overlap eigenvalues          ... 1.000e-08
Number of eigenvalues below threshold      ... 0
Time for construction of square roots      ...    0.100 sec
Total time needed                          ...    0.319 sec

-------------------
DFT GRID GENERATION
-------------------

General Integration Accuracy     IntAcc      ...  4.340
Radial Grid Type                 RadialGrid  ... Gauss-Chebyshev
Angular Grid (max. acc.)         AngularGrid ... Lebedev-110
Angular grid pruning method      GridPruning ... 3 (G Style)
Weight generation scheme         WeightScheme... Becke
Basis function cutoff            BFCut       ...    1.0000e-11
Integration weight cutoff        WCut        ...    1.0000e-14
Grids for H and He will be reduced by one unit

# of grid points (after initial pruning)     ...  46246 (   0.0 sec)
# of grid points (after weights+screening)   ...  41360 (   0.3 sec)
nearest neighbour list constructed           ...    0.0 sec
Grid point re-assignment to atoms done       ...    0.0 sec
Grid point division into batches done        ...    0.0 sec
Reduced shell lists constructed in    1.0 sec

Total number of grid points                  ...    41360
Total number of batches                      ...      663
Average number of points per batch           ...       62
Average number of grid points per atom       ...     1149
Average number of shells per batch           ...   145.58 (48.85%)
Average number of basis functions per batch  ...   370.01 (44.69%)
Average number of large shells per batch     ...    92.80 (63.74%)
Average number of large basis fcns per batch ...   239.37 (64.69%)
Maximum spatial batch extension              ...  20.34, 20.84, 19.95 au
Average spatial batch extension              ...   3.53,  3.40,  3.44 au

Time for grid setup =    1.377 sec

------------------------------
INITIAL GUESS: MODEL POTENTIAL
------------------------------
Loading Hartree-Fock densities                     ... done
Calculating cut-offs                               ... done
Setting up the integral package                    ... done
Initializing the effective Hamiltonian             ... done
Starting the Coulomb interaction                   ... done (   3.0 sec)
Reading the grid                                   ... done
Mapping shells                                     ... done
Starting the XC term evaluation                    ... done (   1.2 sec)
Transforming the Hamiltonian                       ... done (   0.1 sec)
Diagonalizing the Hamiltonian                      ... done (   0.1 sec)
Back transforming the eigenvectors                 ... done (   0.0 sec)
Now organizing SCF variables                       ... done
                      ------------------
                      INITIAL GUESS DONE (   6.1 sec)
                      ------------------
--------------
SCF ITERATIONS
--------------
ITER       Energy         Delta-E        Max-DP      RMS-DP      [F,P]     Damp
               ***  Starting incremental Fock matrix formation  ***
  0  -1270.0037340760   0.000000000000 0.04930659  0.00043752  0.3106070 0.7000
  1  -1270.2731657616  -0.269431685631 0.03607557  0.00035295  0.1823970 0.7000
                               ***Turning on DIIS***
  2  -1270.4409678337  -0.167802072034 0.02583477  0.00023724  0.1097589 0.7000
  3  -1272.5931619957  -2.152194161987 0.06313036  0.00051575  0.0829023 0.0000
  4  -1270.7485929322   1.844569063412 0.00928346  0.00009717  0.0070761 0.0000
  5  -1270.8139958575  -0.065402925222 0.00375145  0.00005171  0.0034549 0.0000
                      *** Initiating the SOSCF procedure ***
                           *** Shutting down DIIS ***
                      *** Re-Reading the Fockian *** 
                      *** Removing any level shift *** 
ITER      Energy       Delta-E        Grad      Rot      Max-DP    RMS-DP
  6  -1270.79094878   0.0230470755  0.001488  0.001488  0.001912  0.000026
               *** Restarting incremental Fock matrix formation ***
  7  -1270.80522198  -0.0142731948  0.000823  0.002121  0.001264  0.000016
  8  -1270.80527087  -0.0000488960  0.000407  0.002485  0.001396  0.000018
  9  -1270.80528954  -0.0000186635  0.000172  0.000345  0.000367  0.000004
 10  -1270.80529189  -0.0000023581  0.000051  0.000138  0.000118  0.000001
 11  -1270.80529212  -0.0000002280  0.000020  0.000121  0.000067  0.000001
 12  -1270.80529219  -0.0000000641  0.000010  0.000035  0.000028  0.000000
                  ***Gradient check signals convergence***
              ***Rediagonalizing the Fockian in SOSCF/NRSCF***

               *****************************************************
               *                     SUCCESS                       *
               *           SCF CONVERGED AFTER  13 CYCLES          *
               *****************************************************


----------------
TOTAL SCF ENERGY
----------------

Total Energy       :        -1270.80529219 Eh          -34580.37003 eV

Components:
Nuclear Repulsion  :         1693.06042174 Eh           46070.51626 eV
Electronic Energy  :        -2963.86571393 Eh          -80650.88629 eV
One Electron Energy:        -5107.49315333 Eh         -138981.95441 eV
Two Electron Energy:         2143.62743940 Eh           58331.06812 eV

Virial components:
Potential Energy   :        -2539.78289247 Eh          -69111.00604 eV
Kinetic Energy     :         1268.97760028 Eh           34530.63601 eV
Virial Ratio       :            2.00144029


---------------
SCF CONVERGENCE
---------------

  Last Energy change         ...   -1.5207e-09  Tolerance :   1.0000e-08
  Last MAX-Density change    ...    5.6531e-06  Tolerance :   1.0000e-07
  Last RMS-Density change    ...    9.2359e-08  Tolerance :   5.0000e-09
  Last Orbital Gradient      ...    2.1080e-06  Tolerance :   1.0000e-05
  Last Orbital Rotation      ...    6.9888e-06  Tolerance :   1.0000e-05

             **** THE GBW FILE WAS UPDATED (CONFS/Conf1.orca.gbw) ****
             **** DENSITY FILE WAS UPDATED (CONFS/Conf1.orca.scfp) ****
             **** ENERGY FILE WAS UPDATED (CONFS/Conf1.orca.en.tmp) ****
             **** THE GBW FILE WAS UPDATED (CONFS/Conf1.orca.gbw) ****
             **** DENSITY FILE WAS UPDATED (CONFS/Conf1.orca.scfp) ****
----------------
ORBITAL ENERGIES
----------------

  NO   OCC          E(Eh)            E(eV) 
   0   2.0000     -91.888278     -2500.4072 
   1   2.0000     -20.594855      -560.4145 
   2   2.0000     -20.593132      -560.3676 
   3   2.0000     -20.550300      -559.2021 
   4   2.0000     -15.628323      -425.2683 
   5   2.0000     -15.607242      -424.6947 
   6   2.0000     -11.396126      -310.1044 
   7   2.0000     -11.383401      -309.7581 
   8   2.0000     -11.334893      -308.4381 
   9   2.0000     -11.309101      -307.7363 
  10   2.0000     -11.306769      -307.6728 
  11   2.0000     -11.299333      -307.4705 
  12   2.0000     -11.260212      -306.4059 
  13   2.0000     -11.259417      -306.3843 
  14   2.0000     -11.254964      -306.2631 
  15   2.0000     -11.249299      -306.1090 
  16   2.0000     -11.238891      -305.8258 
  17   2.0000     -11.234938      -305.7182 
  18   2.0000     -11.232065      -305.6400 
  19   2.0000     -11.227533      -305.5167 
  20   2.0000      -8.893345      -242.0002 
  21   2.0000      -6.574924      -178.9128 
  22   2.0000      -6.572915      -178.8581 
  23   2.0000      -6.572331      -178.8422 
  24   2.0000      -1.453432       -39.5499 
  25   2.0000      -1.412872       -38.4462 
  26   2.0000      -1.357411       -36.9370 
  27   2.0000      -1.339332       -36.4451 
  28   2.0000      -1.237210       -33.6662 
  29   2.0000      -1.153526       -31.3891 
  30   2.0000      -1.120189       -30.4819 
  31   2.0000      -1.043439       -28.3934 
  32   2.0000      -1.035282       -28.1715 
  33   2.0000      -1.010931       -27.5088 
  34   2.0000      -0.997951       -27.1556 
  35   2.0000      -0.983324       -26.7576 
  36   2.0000      -0.921874       -25.0855 
  37   2.0000      -0.886408       -24.1204 
  38   2.0000      -0.847811       -23.0701 
  39   2.0000      -0.836583       -22.7646 
  40   2.0000      -0.829426       -22.5698 
  41   2.0000      -0.821749       -22.3609 
  42   2.0000      -0.757912       -20.6238 
  43   2.0000      -0.735535       -20.0149 
  44   2.0000      -0.726175       -19.7602 
  45   2.0000      -0.691680       -18.8216 
  46   2.0000      -0.685616       -18.6566 
  47   2.0000      -0.680486       -18.5170 
  48   2.0000      -0.672580       -18.3018 
  49   2.0000      -0.657282       -17.8855 
  50   2.0000      -0.646765       -17.5994 
  51   2.0000      -0.641244       -17.4491 
  52   2.0000      -0.628132       -17.0923 
  53   2.0000      -0.617385       -16.7999 
  54   2.0000      -0.601456       -16.3664 
  55   2.0000      -0.601191       -16.3592 
  56   2.0000      -0.596420       -16.2294 
  57   2.0000      -0.581961       -15.8360 
  58   2.0000      -0.574427       -15.6310 
  59   2.0000      -0.564121       -15.3505 
  60   2.0000      -0.561713       -15.2850 
  61   2.0000      -0.547130       -14.8882 
  62   2.0000      -0.533747       -14.5240 
  63   2.0000      -0.523387       -14.2421 
  64   2.0000      -0.518557       -14.1106 
  65   2.0000      -0.510521       -13.8920 
  66   2.0000      -0.501448       -13.6451 
  67   2.0000      -0.496301       -13.5050 
  68   2.0000      -0.481244       -13.0953 
  69   2.0000      -0.463031       -12.5997 
  70   2.0000      -0.458862       -12.4863 
  71   2.0000      -0.453383       -12.3372 
  72   2.0000      -0.353979        -9.6322 
  73   2.0000      -0.345331        -9.3969 
  74   2.0000      -0.327471        -8.9109 
  75   2.0000      -0.316438        -8.6107 
  76   2.0000      -0.314916        -8.5693 
  77   0.0000       0.073976         2.0130 
  78   0.0000       0.110047         2.9945 
  79   0.0000       0.120492         3.2787 
  80   0.0000       0.134772         3.6673 
  81   0.0000       0.138834         3.7779 
  82   0.0000       0.145708         3.9649 
  83   0.0000       0.152329         4.1451 
  84   0.0000       0.158543         4.3142 
  85   0.0000       0.162777         4.4294 
  86   0.0000       0.166647         4.5347 
  87   0.0000       0.175260         4.7691 
  88   0.0000       0.191343         5.2067 
  89   0.0000       0.195307         5.3146 
  90   0.0000       0.201567         5.4849 
  91   0.0000       0.209128         5.6907 
  92   0.0000       0.212180         5.7737 
  93   0.0000       0.218883         5.9561 
  94   0.0000       0.220635         6.0038 
  95   0.0000       0.231100         6.2885 
  96   0.0000       0.238566         6.4917 
  97   0.0000       0.246761         6.7147 
  98   0.0000       0.248178         6.7533 
  99   0.0000       0.274099         7.4586 
 100   0.0000       0.295445         8.0395 
 101   0.0000       0.308321         8.3898 
 102   0.0000       0.309345         8.4177 
 103   0.0000       0.319013         8.6808 
 104   0.0000       0.327432         8.9099 
 105   0.0000       0.330762         9.0005 
 106   0.0000       0.339881         9.2486 
 107   0.0000       0.348895         9.4939 
 108   0.0000       0.351973         9.5777 
 109   0.0000       0.365000         9.9322 
 110   0.0000       0.372828        10.1452 
 111   0.0000       0.379093        10.3156 
 112   0.0000       0.387018        10.5313 
 113   0.0000       0.391189        10.6448 
 114   0.0000       0.398032        10.8310 
 115   0.0000       0.403841        10.9891 
 116   0.0000       0.422867        11.5068 
 117   0.0000       0.427259        11.6263 
 118   0.0000       0.431927        11.7533 
 119   0.0000       0.439376        11.9560 
 120   0.0000       0.446441        12.1483 
 121   0.0000       0.449235        12.2243 
 122   0.0000       0.455553        12.3962 
 123   0.0000       0.458033        12.4637 
 124   0.0000       0.460979        12.5439 
 125   0.0000       0.468156        12.7392 
 126   0.0000       0.472840        12.8666 
 127   0.0000       0.489181        13.3113 
 128   0.0000       0.491320        13.3695 
 129   0.0000       0.492387        13.3985 
 130   0.0000       0.498622        13.5682 
 131   0.0000       0.504508        13.7284 
 132   0.0000       0.513291        13.9674 
 133   0.0000       0.514585        14.0026 
 134   0.0000       0.524005        14.2589 
 135   0.0000       0.530798        14.4437 
 136   0.0000       0.533043        14.5048 
 137   0.0000       0.540747        14.7145 
 138   0.0000       0.541820        14.7437 
 139   0.0000       0.544915        14.8279 
 140   0.0000       0.554551        15.0901 
 141   0.0000       0.559934        15.2366 
 142   0.0000       0.568499        15.4697 
 143   0.0000       0.571826        15.5602 
 144   0.0000       0.576287        15.6816 
 145   0.0000       0.579995        15.7825 
 146   0.0000       0.581417        15.8212 
 147   0.0000       0.587439        15.9850 
 148   0.0000       0.597097        16.2478 
 149   0.0000       0.599847        16.3227 
 150   0.0000       0.603052        16.4099 
 151   0.0000       0.608133        16.5481 
 152   0.0000       0.610263        16.6061 
 153   0.0000       0.615203        16.7405 
 154   0.0000       0.619443        16.8559 
 155   0.0000       0.624006        16.9801 
 156   0.0000       0.628510        17.1026 
 157   0.0000       0.632954        17.2235 
 158   0.0000       0.634723        17.2717 
 159   0.0000       0.636564        17.3218 
 160   0.0000       0.642848        17.4928 
 161   0.0000       0.646292        17.5865 
 162   0.0000       0.650969        17.7138 
 163   0.0000       0.654125        17.7997 
 164   0.0000       0.662998        18.0411 
 165   0.0000       0.666070        18.1247 
 166   0.0000       0.677415        18.4334 
 167   0.0000       0.681528        18.5453 
 168   0.0000       0.685166        18.6443 
 169   0.0000       0.690930        18.8012 
 170   0.0000       0.695582        18.9277 
 171   0.0000       0.701901        19.0997 
 172   0.0000       0.704978        19.1834 
 173   0.0000       0.722028        19.6474 
 174   0.0000       0.724484        19.7142 
 175   0.0000       0.729190        19.8423 
 176   0.0000       0.733601        19.9623 
 177   0.0000       0.741647        20.1812 
 178   0.0000       0.746741        20.3199 
 179   0.0000       0.750249        20.4153 
 180   0.0000       0.753702        20.5093 
 181   0.0000       0.759473        20.6663 
 182   0.0000       0.770681        20.9713 
 183   0.0000       0.780110        21.2279 
 184   0.0000       0.784235        21.3401 
 185   0.0000       0.800778        21.7903 
 186   0.0000       0.809510        22.0279 
 187   0.0000       0.819679        22.3046 
 188   0.0000       0.826112        22.4797 
 189   0.0000       0.827535        22.5184 
 190   0.0000       0.834434        22.7061 
 191   0.0000       0.847217        23.0539 
 192   0.0000       0.853628        23.2284 
 193   0.0000       0.857614        23.3369 
 194   0.0000       0.873094        23.7581 
 195   0.0000       0.879851        23.9420 
 196   0.0000       0.882263        24.0076 
 197   0.0000       0.889016        24.1914 
 198   0.0000       0.897191        24.4138 
 199   0.0000       0.905582        24.6422 
 200   0.0000       0.913477        24.8570 
 201   0.0000       0.919672        25.0256 
 202   0.0000       0.924417        25.1547 
 203   0.0000       0.933404        25.3992 
 204   0.0000       0.941181        25.6108 
 205   0.0000       0.946892        25.7662 
 206   0.0000       0.963697        26.2235 
 207   0.0000       0.965104        26.2618 
 208   0.0000       0.971013        26.4226 
 209   0.0000       0.978758        26.6333 
 210   0.0000       0.983926        26.7740 
 211   0.0000       0.987982        26.8843 
 212   0.0000       0.994710        27.0674 
 213   0.0000       1.004714        27.3397 
 214   0.0000       1.007769        27.4228 
 215   0.0000       1.014586        27.6083 
 216   0.0000       1.027920        27.9711 
 217   0.0000       1.033704        28.1285 
 218   0.0000       1.039143        28.2765 
 219   0.0000       1.043194        28.3867 
 220   0.0000       1.047551        28.5053 
 221   0.0000       1.050466        28.5846 
 222   0.0000       1.063806        28.9476 
 223   0.0000       1.068320        29.0705 
 224   0.0000       1.084473        29.5100 
 225   0.0000       1.098257        29.8851 
 226   0.0000       1.101159        29.9641 
 227   0.0000       1.101767        29.9806 
 228   0.0000       1.110816        30.2268 
 229   0.0000       1.123721        30.5780 
 230   0.0000       1.130143        30.7528 
 231   0.0000       1.138443        30.9786 
 232   0.0000       1.141372        31.0583 
 233   0.0000       1.153511        31.3886 
 234   0.0000       1.156111        31.4594 
 235   0.0000       1.169356        31.8198 
 236   0.0000       1.174594        31.9623 
 237   0.0000       1.178856        32.0783 
 238   0.0000       1.179892        32.1065 
 239   0.0000       1.186512        32.2866 
 240   0.0000       1.187775        32.3210 
 241   0.0000       1.196852        32.5680 
 242   0.0000       1.206694        32.8358 
 243   0.0000       1.212254        32.9871 
 244   0.0000       1.218537        33.1581 
 245   0.0000       1.225236        33.3404 
 246   0.0000       1.232412        33.5356 
 247   0.0000       1.238608        33.7043 
 248   0.0000       1.240147        33.7461 
 249   0.0000       1.248313        33.9683 
 250   0.0000       1.260016        34.2868 
 251   0.0000       1.268211        34.5098 
 252   0.0000       1.272183        34.6179 
 253   0.0000       1.282419        34.8964 
 254   0.0000       1.290094        35.1053 
 255   0.0000       1.297278        35.3007 
 256   0.0000       1.298019        35.3209 
 257   0.0000       1.305990        35.5378 
 258   0.0000       1.314687        35.7745 
 259   0.0000       1.320862        35.9425 
 260   0.0000       1.332516        36.2596 
 261   0.0000       1.349535        36.7227 
 262   0.0000       1.354680        36.8627 
 263   0.0000       1.361672        37.0530 
 264   0.0000       1.366842        37.1937 
 265   0.0000       1.372217        37.3399 
 266   0.0000       1.380822        37.5741 
 267   0.0000       1.394964        37.9589 
 268   0.0000       1.398816        38.0637 
 269   0.0000       1.408658        38.3315 
 270   0.0000       1.419089        38.6154 
 271   0.0000       1.422694        38.7135 
 272   0.0000       1.433386        39.0044 
 273   0.0000       1.436964        39.1018 
 274   0.0000       1.448353        39.4117 
 275   0.0000       1.456659        39.6377 
 276   0.0000       1.469669        39.9917 
 277   0.0000       1.476525        40.1783 
 278   0.0000       1.480989        40.2998 
 279   0.0000       1.484299        40.3898 
 280   0.0000       1.491288        40.5800 
 281   0.0000       1.500889        40.8413 
 282   0.0000       1.503946        40.9245 
 283   0.0000       1.509498        41.0755 
 284   0.0000       1.515432        41.2370 
 285   0.0000       1.521127        41.3920 
 286   0.0000       1.525959        41.5234 
 287   0.0000       1.535242        41.7761 
 288   0.0000       1.536038        41.7977 
 289   0.0000       1.545734        42.0616 
 290   0.0000       1.552690        42.2508 
 291   0.0000       1.557729        42.3880 
 292   0.0000       1.561742        42.4972 
 293   0.0000       1.578881        42.9635 
 294   0.0000       1.583993        43.1027 
 295   0.0000       1.597016        43.4570 
 296   0.0000       1.600513        43.5522 
 297   0.0000       1.608931        43.7812 
 298   0.0000       1.616717        43.9931 
 299   0.0000       1.623866        44.1876 
 300   0.0000       1.628373        44.3103 
 301   0.0000       1.639350        44.6090 
 302   0.0000       1.645840        44.7856 
 303   0.0000       1.649483        44.8847 
 304   0.0000       1.664049        45.2811 
 305   0.0000       1.670058        45.4446 
 306   0.0000       1.677342        45.6428 
 307   0.0000       1.682367        45.7795 
 308   0.0000       1.693476        46.0818 
 309   0.0000       1.707512        46.4638 
 310   0.0000       1.710539        46.5461 
 311   0.0000       1.723568        46.9007 
 312   0.0000       1.724497        46.9260 
 313   0.0000       1.731076        47.1050 
 314   0.0000       1.734760        47.2052 
 315   0.0000       1.752877        47.6982 
 316   0.0000       1.764547        48.0158 
 317   0.0000       1.771235        48.1977 
 318   0.0000       1.780536        48.4508 
 319   0.0000       1.791776        48.7567 
 320   0.0000       1.807400        49.1819 
 321   0.0000       1.814791        49.3830 
 322   0.0000       1.824642        49.6510 
 323   0.0000       1.829435        49.7814 
 324   0.0000       1.839935        50.0672 
 325   0.0000       1.862426        50.6792 
 326   0.0000       1.874773        51.0152 
 327   0.0000       1.882327        51.2207 
 328   0.0000       1.908061        51.9210 
 329   0.0000       1.912410        52.0393 
 330   0.0000       1.928276        52.4711 
 331   0.0000       1.933972        52.6260 
 332   0.0000       1.940555        52.8052 
 333   0.0000       1.953321        53.1526 
 334   0.0000       1.963251        53.4228 
 335   0.0000       1.978600        53.8404 
 336   0.0000       1.986147        54.0458 
 337   0.0000       2.002285        54.4850 
 338   0.0000       2.022839        55.0443 
 339   0.0000       2.025014        55.1034 
 340   0.0000       2.030740        55.2592 
 341   0.0000       2.035622        55.3921 
 342   0.0000       2.047737        55.7218 
 343   0.0000       2.059399        56.0391 
 344   0.0000       2.086762        56.7837 
 345   0.0000       2.098589        57.1055 
 346   0.0000       2.124262        57.8041 
 347   0.0000       2.128623        57.9228 
 348   0.0000       2.155222        58.6466 
 349   0.0000       2.159026        58.7501 
 350   0.0000       2.175546        59.1996 
 351   0.0000       2.200883        59.8891 
 352   0.0000       2.211338        60.1736 
 353   0.0000       2.230802        60.7032 
 354   0.0000       2.233201        60.7685 
 355   0.0000       2.257139        61.4199 
 356   0.0000       2.276241        61.9397 
 357   0.0000       2.288674        62.2780 
 358   0.0000       2.301586        62.6293 
 359   0.0000       2.307379        62.7870 
 360   0.0000       2.316732        63.0415 
 361   0.0000       2.325595        63.2826 
 362   0.0000       2.341441        63.7138 
 363   0.0000       2.357398        64.1481 
 364   0.0000       2.360082        64.2211 
 365   0.0000       2.370656        64.5088 
 366   0.0000       2.388524        64.9951 
 367   0.0000       2.398233        65.2592 
 368   0.0000       2.411747        65.6270 
 369   0.0000       2.422935        65.9314 
 370   0.0000       2.427040        66.0431 
 371   0.0000       2.447831        66.6089 
 372   0.0000       2.452471        66.7351 
 373   0.0000       2.474002        67.3210 
 374   0.0000       2.483107        67.5688 
 375   0.0000       2.496016        67.9200 
 376   0.0000       2.512313        68.3635 
 377   0.0000       2.518676        68.5367 
 378   0.0000       2.528429        68.8020 
 379   0.0000       2.560778        69.6823 
 380   0.0000       2.577592        70.1398 
 381   0.0000       2.584418        70.3256 
 382   0.0000       2.585744        70.3617 
 383   0.0000       2.606297        70.9209 
 384   0.0000       2.612154        71.0803 
 385   0.0000       2.620693        71.3127 
 386   0.0000       2.629564        71.5541 
 387   0.0000       2.640907        71.8627 
 388   0.0000       2.648806        72.0777 
 389   0.0000       2.663561        72.4792 
 390   0.0000       2.674574        72.7789 
 391   0.0000       2.684619        73.0522 
 392   0.0000       2.693006        73.2804 
 393   0.0000       2.706926        73.6592 
 394   0.0000       2.715053        73.8804 
 395   0.0000       2.727960        74.2316 
 396   0.0000       2.738689        74.5235 
 397   0.0000       2.746218        74.7284 
 398   0.0000       2.751747        74.8789 
 399   0.0000       2.759972        75.1027 
 400   0.0000       2.765341        75.2488 
 401   0.0000       2.775418        75.5230 
 402   0.0000       2.792019        75.9747 
 403   0.0000       2.799661        76.1826 
 404   0.0000       2.810544        76.4788 
 405   0.0000       2.822844        76.8135 
 406   0.0000       2.831494        77.0489 
 407   0.0000       2.835977        77.1709 
 408   0.0000       2.844349        77.3987 
 409   0.0000       2.857142        77.7468 
 410   0.0000       2.864660        77.9514 
 411   0.0000       2.873452        78.1906 
 412   0.0000       2.875993        78.2597 
 413   0.0000       2.890028        78.6417 
 414   0.0000       2.910113        79.1882 
 415   0.0000       2.912938        79.2651 
 416   0.0000       2.927609        79.6643 
 417   0.0000       2.931684        79.7752 
 418   0.0000       2.944995        80.1374 
 419   0.0000       2.950882        80.2976 
 420   0.0000       2.963949        80.6532 
 421   0.0000       2.978361        81.0453 
 422   0.0000       2.981515        81.1312 
 423   0.0000       2.993004        81.4438 
 424   0.0000       2.995972        81.5246 
 425   0.0000       3.010413        81.9175 
 426   0.0000       3.015604        82.0587 
 427   0.0000       3.026229        82.3479 
 428   0.0000       3.029140        82.4271 
 429   0.0000       3.038799        82.6899 
 430   0.0000       3.050706        83.0139 
 431   0.0000       3.053253        83.0832 
 432   0.0000       3.059638        83.2570 
 433   0.0000       3.064852        83.3989 
 434   0.0000       3.076568        83.7177 
 435   0.0000       3.080997        83.8382 
 436   0.0000       3.086412        83.9855 
 437   0.0000       3.093600        84.1811 
 438   0.0000       3.103187        84.4420 
 439   0.0000       3.105107        84.4943 
 440   0.0000       3.112398        84.6926 
 441   0.0000       3.115838        84.7863 
 442   0.0000       3.125170        85.0402 
 443   0.0000       3.131453        85.2112 
 444   0.0000       3.145069        85.5817 
 445   0.0000       3.147118        85.6374 
 446   0.0000       3.154955        85.8507 
 447   0.0000       3.174821        86.3913 
 448   0.0000       3.175746        86.4164 
 449   0.0000       3.182213        86.5924 
 450   0.0000       3.192934        86.8842 
 451   0.0000       3.196704        86.9867 
 452   0.0000       3.208349        87.3036 
 453   0.0000       3.215449        87.4968 
 454   0.0000       3.220039        87.6217 
 455   0.0000       3.224580        87.7453 
 456   0.0000       3.227623        87.8281 
 457   0.0000       3.241959        88.2182 
 458   0.0000       3.252195        88.4967 
 459   0.0000       3.255076        88.5751 
 460   0.0000       3.267123        88.9029 
 461   0.0000       3.273847        89.0859 
 462   0.0000       3.277417        89.1830 
 463   0.0000       3.282236        89.3142 
 464   0.0000       3.299262        89.7775 
 465   0.0000       3.308349        90.0248 
 466   0.0000       3.309601        90.0588 
 467   0.0000       3.312145        90.1280 
 468   0.0000       3.316558        90.2481 
 469   0.0000       3.328693        90.5784 
 470   0.0000       3.331693        90.6600 
 471   0.0000       3.339349        90.8683 
 472   0.0000       3.347505        91.0902 
 473   0.0000       3.352050        91.2139 
 474   0.0000       3.360793        91.4518 
 475   0.0000       3.364671        91.5574 
 476   0.0000       3.370353        91.7120 
 477   0.0000       3.385368        92.1206 
 478   0.0000       3.387481        92.1780 
 479   0.0000       3.389960        92.2455 
 480   0.0000       3.395545        92.3975 
 481   0.0000       3.399740        92.5116 
 482   0.0000       3.405229        92.6610 
 483   0.0000       3.406129        92.6855 
 484   0.0000       3.413049        92.8738 
 485   0.0000       3.416104        92.9569 
 486   0.0000       3.417318        92.9899 
 487   0.0000       3.422232        93.1237 
 488   0.0000       3.429255        93.3148 
 489   0.0000       3.434134        93.4475 
 490   0.0000       3.447722        93.8173 
 491   0.0000       3.449149        93.8561 
 492   0.0000       3.454877        94.0120 
 493   0.0000       3.459969        94.1505 
 494   0.0000       3.462582        94.2216 
 495   0.0000       3.474496        94.5458 
 496   0.0000       3.479883        94.6924 
 497   0.0000       3.487969        94.9124 
 498   0.0000       3.492011        95.0224 
 499   0.0000       3.501236        95.2735 
 500   0.0000       3.504769        95.3696 
 501   0.0000       3.514882        95.6448 
 502   0.0000       3.524215        95.8988 
 503   0.0000       3.528429        96.0134 
 504   0.0000       3.539246        96.3078 
 505   0.0000       3.553137        96.6858 
 506   0.0000       3.558016        96.8185 
 507   0.0000       3.565544        97.0234 
 508   0.0000       3.572023        97.1997 
 509   0.0000       3.579885        97.4136 
 510   0.0000       3.586928        97.6053 
 511   0.0000       3.594543        97.8125 
 512   0.0000       3.612953        98.3135 
 513   0.0000       3.615847        98.3922 
 514   0.0000       3.620934        98.5306 
 515   0.0000       3.625694        98.6601 
 516   0.0000       3.630090        98.7798 
 517   0.0000       3.633570        98.8745 
 518   0.0000       3.638837        99.0178 
 519   0.0000       3.643355        99.1407 
 520   0.0000       3.652659        99.3939 
 521   0.0000       3.659417        99.5778 
 522   0.0000       3.664172        99.7072 
 523   0.0000       3.670247        99.8725 
 524   0.0000       3.682039       100.1934 
 525   0.0000       3.682719       100.2119 
 526   0.0000       3.691411       100.4484 
 527   0.0000       3.695076       100.5481 
 528   0.0000       3.701898       100.7338 
 529   0.0000       3.708413       100.9110 
 530   0.0000       3.710389       100.9648 
 531   0.0000       3.722384       101.2912 
 532   0.0000       3.735467       101.6472 
 533   0.0000       3.741191       101.8030 
 534   0.0000       3.744544       101.8942 
 535   0.0000       3.748144       101.9922 
 536   0.0000       3.753396       102.1351 
 537   0.0000       3.761780       102.3632 
 538   0.0000       3.772139       102.6451 
 539   0.0000       3.775173       102.7277 
 540   0.0000       3.783903       102.9652 
 541   0.0000       3.786301       103.0305 
 542   0.0000       3.792091       103.1881 
 543   0.0000       3.802874       103.4815 
 544   0.0000       3.806321       103.5753 
 545   0.0000       3.813378       103.7673 
 546   0.0000       3.818942       103.9187 
 547   0.0000       3.822810       104.0240 
 548   0.0000       3.832142       104.2779 
 549   0.0000       3.837935       104.4355 
 550   0.0000       3.843942       104.5990 
 551   0.0000       3.858661       104.9995 
 552   0.0000       3.869996       105.3079 
 553   0.0000       3.878908       105.5504 
 554   0.0000       3.898336       106.0791 
 555   0.0000       3.900633       106.1416 
 556   0.0000       3.907823       106.3373 
 557   0.0000       3.917059       106.5886 
 558   0.0000       3.922095       106.7256 
 559   0.0000       3.933384       107.0328 
 560   0.0000       3.947245       107.4100 
 561   0.0000       3.949298       107.4659 
 562   0.0000       3.960644       107.7746 
 563   0.0000       3.964730       107.8858 
 564   0.0000       3.973964       108.1371 
 565   0.0000       3.979929       108.2994 
 566   0.0000       3.985555       108.4525 
 567   0.0000       3.989621       108.5631 
 568   0.0000       4.001017       108.8732 
 569   0.0000       4.010301       109.1258 
 570   0.0000       4.024729       109.5184 
 571   0.0000       4.039459       109.9193 
 572   0.0000       4.047477       110.1374 
 573   0.0000       4.048532       110.1661 
 574   0.0000       4.056382       110.3798 
 575   0.0000       4.067484       110.6819 
 576   0.0000       4.077385       110.9513 
 577   0.0000       4.085173       111.1632 
 578   0.0000       4.094857       111.4267 
 579   0.0000       4.111034       111.8669 
 580   0.0000       4.114270       111.9550 
 581   0.0000       4.123114       112.1956 
 582   0.0000       4.126794       112.2958 
 583   0.0000       4.134950       112.5177 
 584   0.0000       4.141012       112.6827 
 585   0.0000       4.145387       112.8017 
 586   0.0000       4.151558       112.9696 
 587   0.0000       4.153797       113.0306 
 588   0.0000       4.162335       113.2629 
 589   0.0000       4.173599       113.5694 
 590   0.0000       4.183524       113.8395 
 591   0.0000       4.184301       113.8606 
 592   0.0000       4.190173       114.0204 
 593   0.0000       4.194466       114.1372 
 594   0.0000       4.201576       114.3307 
 595   0.0000       4.211181       114.5921 
 596   0.0000       4.218405       114.7886 
 597   0.0000       4.227929       115.0478 
 598   0.0000       4.232543       115.1733 
 599   0.0000       4.240298       115.3844 
 600   0.0000       4.244334       115.4942 
 601   0.0000       4.255175       115.7892 
 602   0.0000       4.261585       115.9636 
 603   0.0000       4.266885       116.1078 
 604   0.0000       4.276753       116.3764 
 605   0.0000       4.284139       116.5773 
 606   0.0000       4.295382       116.8833 
 607   0.0000       4.302074       117.0654 
 608   0.0000       4.315139       117.4209 
 609   0.0000       4.320003       117.5533 
 610   0.0000       4.338972       118.0694 
 611   0.0000       4.342128       118.1553 
 612   0.0000       4.346554       118.2757 
 613   0.0000       4.352936       118.4494 
 614   0.0000       4.357479       118.5730 
 615   0.0000       4.366439       118.8168 
 616   0.0000       4.371784       118.9623 
 617   0.0000       4.376085       119.0793 
 618   0.0000       4.384133       119.2983 
 619   0.0000       4.392490       119.5257 
 620   0.0000       4.399264       119.7101 
 621   0.0000       4.403932       119.8371 
 622   0.0000       4.416341       120.1747 
 623   0.0000       4.427615       120.4815 
 624   0.0000       4.438850       120.7872 
 625   0.0000       4.446813       121.0039 
 626   0.0000       4.456211       121.2597 
 627   0.0000       4.458974       121.3349 
 628   0.0000       4.474747       121.7641 
 629   0.0000       4.479478       121.8928 
 630   0.0000       4.496596       122.3586 
 631   0.0000       4.505731       122.6072 
 632   0.0000       4.514075       122.8342 
 633   0.0000       4.525640       123.1489 
 634   0.0000       4.533565       123.3646 
 635   0.0000       4.537605       123.4745 
 636   0.0000       4.545928       123.7010 
 637   0.0000       4.552510       123.8801 
 638   0.0000       4.560802       124.1057 
 639   0.0000       4.567320       124.2831 
 640   0.0000       4.575047       124.4934 
 641   0.0000       4.583342       124.7191 
 642   0.0000       4.587263       124.8258 
 643   0.0000       4.606354       125.3453 
 644   0.0000       4.612112       125.5020 
 645   0.0000       4.627783       125.9284 
 646   0.0000       4.631847       126.0390 
 647   0.0000       4.642314       126.3238 
 648   0.0000       4.645104       126.3997 
 649   0.0000       4.647217       126.4572 
 650   0.0000       4.649645       126.5233 
 651   0.0000       4.666461       126.9809 
 652   0.0000       4.674903       127.2106 
 653   0.0000       4.684973       127.4846 
 654   0.0000       4.699025       127.8670 
 655   0.0000       4.702479       127.9610 
 656   0.0000       4.708799       128.1329 
 657   0.0000       4.719143       128.4144 
 658   0.0000       4.727055       128.6297 
 659   0.0000       4.740292       128.9899 
 660   0.0000       4.753799       129.3574 
 661   0.0000       4.758403       129.4827 
 662   0.0000       4.775205       129.9399 
 663   0.0000       4.777592       130.0049 
 664   0.0000       4.797769       130.5539 
 665   0.0000       4.822608       131.2298 
 666   0.0000       4.831152       131.4623 
 667   0.0000       4.855882       132.1353 
 668   0.0000       4.866210       132.4163 
 669   0.0000       4.878928       132.7624 
 670   0.0000       4.903367       133.4274 
 671   0.0000       4.917958       133.8244 
 672   0.0000       4.921686       133.9259 
 673   0.0000       4.940316       134.4328 
 674   0.0000       4.964337       135.0865 
 675   0.0000       4.978387       135.4688 
 676   0.0000       5.005830       136.2155 
 677   0.0000       5.020558       136.6163 
 678   0.0000       5.023901       136.7073 
 679   0.0000       5.034937       137.0076 
 680   0.0000       5.053645       137.5167 
 681   0.0000       5.069894       137.9588 
 682   0.0000       5.087034       138.4252 
 683   0.0000       5.091337       138.5423 
 684   0.0000       5.109189       139.0281 
 685   0.0000       5.111357       139.0871 
 686   0.0000       5.123749       139.4243 
 687   0.0000       5.135127       139.7339 
 688   0.0000       5.141924       139.9189 
 689   0.0000       5.147981       140.0837 
 690   0.0000       5.167744       140.6215 
 691   0.0000       5.170946       140.7086 
 692   0.0000       5.189513       141.2138 
 693   0.0000       5.198302       141.4530 
 694   0.0000       5.205651       141.6530 
 695   0.0000       5.215475       141.9203 
 696   0.0000       5.221438       142.0826 
 697   0.0000       5.231787       142.3642 
 698   0.0000       5.237645       142.5236 
 699   0.0000       5.249930       142.8579 
 700   0.0000       5.255969       143.0222 
 701   0.0000       5.273753       143.5061 
 702   0.0000       5.295237       144.0907 
 703   0.0000       5.312829       144.5694 
 704   0.0000       5.322740       144.8391 
 705   0.0000       5.338267       145.2616 
 706   0.0000       5.343531       145.4049 
 707   0.0000       5.354597       145.7060 
 708   0.0000       5.369387       146.1084 
 709   0.0000       5.380779       146.4185 
 710   0.0000       5.394471       146.7910 
 711   0.0000       5.404788       147.0718 
 712   0.0000       5.431895       147.8094 
 713   0.0000       5.453631       148.4008 
 714   0.0000       5.466435       148.7493 
 715   0.0000       5.487157       149.3131 
 716   0.0000       5.493746       149.4924 
 717   0.0000       5.508213       149.8861 
 718   0.0000       5.511373       149.9721 
 719   0.0000       5.528040       150.4256 
 720   0.0000       5.539707       150.7431 
 721   0.0000       5.545024       150.8878 
 722   0.0000       5.552676       151.0960 
 723   0.0000       5.572637       151.6392 
 724   0.0000       5.585229       151.9818 
 725   0.0000       5.598450       152.3416 
 726   0.0000       5.610306       152.6642 
 727   0.0000       5.628927       153.1709 
 728   0.0000       5.635648       153.3538 
 729   0.0000       5.644237       153.5875 
 730   0.0000       5.646944       153.6612 
 731   0.0000       5.655144       153.8843 
 732   0.0000       5.671457       154.3282 
 733   0.0000       5.675858       154.4480 
 734   0.0000       5.690491       154.8461 
 735   0.0000       5.708426       155.3342 
 736   0.0000       5.724434       155.7698 
 737   0.0000       5.728883       155.8908 
 738   0.0000       5.747913       156.4087 
 739   0.0000       5.755391       156.6121 
 740   0.0000       5.765630       156.8908 
 741   0.0000       5.771767       157.0578 
 742   0.0000       5.787887       157.4964 
 743   0.0000       5.798701       157.7907 
 744   0.0000       5.820658       158.3882 
 745   0.0000       5.832350       158.7063 
 746   0.0000       5.857926       159.4023 
 747   0.0000       5.871934       159.7834 
 748   0.0000       5.898757       160.5133 
 749   0.0000       5.927961       161.3080 
 750   0.0000       5.932727       161.4377 
 751   0.0000       5.975656       162.6059 
 752   0.0000       5.982774       162.7996 
 753   0.0000       5.992493       163.0640 
 754   0.0000       6.012535       163.6094 
 755   0.0000       6.020862       163.8360 
 756   0.0000       6.058425       164.8581 
 757   0.0000       6.060971       164.9274 
 758   0.0000       6.081807       165.4944 
 759   0.0000       6.097742       165.9280 
 760   0.0000       6.104830       166.1209 
 761   0.0000       6.176559       168.0727 
 762   0.0000       6.221611       169.2986 
 763   0.0000       6.225704       169.4100 
 764   0.0000       6.228574       169.4881 
 765   0.0000       6.252849       170.1487 
 766   0.0000       6.272225       170.6759 
 767   0.0000       6.325701       172.1311 
 768   0.0000       6.348331       172.7469 
 769   0.0000       6.351312       172.8280 
 770   0.0000       6.369844       173.3323 
 771   0.0000       6.383897       173.7147 
 772   0.0000       6.406375       174.3263 
 773   0.0000       6.432223       175.0297 
 774   0.0000       6.456619       175.6935 
 775   0.0000       6.462073       175.8419 
 776   0.0000       6.502695       176.9473 
 777   0.0000       6.559610       178.4961 
 778   0.0000       6.587870       179.2651 
 779   0.0000       6.607605       179.8021 
 780   0.0000       6.633657       180.5110 
 781   0.0000       6.675473       181.6488 
 782   0.0000       6.726064       183.0255 
 783   0.0000       6.751458       183.7165 
 784   0.0000       6.799040       185.0113 
 785   0.0000       6.894627       187.6123 
 786   0.0000       6.914916       188.1644 
 787   0.0000       6.926025       188.4667 
 788   0.0000       6.971957       189.7166 
 789   0.0000       7.000598       190.4960 
 790   0.0000       7.055508       191.9901 
 791   0.0000       7.064314       192.2298 
 792   0.0000       7.085549       192.8076 
 793   0.0000       7.134269       194.1333 
 794   0.0000       7.196965       195.8394 
 795   0.0000       7.263220       197.6423 
 796   0.0000       7.274368       197.9456 
 797   0.0000       7.285286       198.2427 
 798   0.0000       7.343767       199.8340 
 799   0.0000       7.378051       200.7670 
 800   0.0000       7.398333       201.3189 
 801   0.0000       7.574420       206.1105 
 802   0.0000       7.583481       206.3570 
 803   0.0000       7.588472       206.4928 
 804   0.0000       7.656907       208.3550 
 805   0.0000       7.813513       212.6165 
 806   0.0000       7.824329       212.9108 
 807   0.0000       7.904613       215.0955 
 808   0.0000       7.937907       216.0014 
 809   0.0000       9.350799       254.4482 
 810   0.0000       9.531858       259.3750 
 811   0.0000      10.833776       294.8020 
 812   0.0000      11.280730       306.9643 
 813   0.0000      11.869363       322.9818 
 814   0.0000      12.587329       342.5186 
 815   0.0000      12.920996       351.5982 
 816   0.0000      13.068026       355.5991 
 817   0.0000      13.121197       357.0459 
 818   0.0000      13.180651       358.6637 
 819   0.0000      13.401760       364.6804 
 820   0.0000      13.478075       366.7571 
 821   0.0000      13.723156       373.4261 
 822   0.0000      13.913203       378.5975 
 823   0.0000      13.943151       379.4124 
 824   0.0000      13.999939       380.9577 
 825   0.0000      14.548776       395.8923 
 826   0.0000      14.680423       399.4746 
 827   0.0000      15.951265       434.0560 

                    ********************************
                    * MULLIKEN POPULATION ANALYSIS *
                    ********************************

-----------------------
MULLIKEN ATOMIC CHARGES
-----------------------
   0 C :   -0.265386
   1 C :    0.039483
   2 O :   -0.361909
   3 C :    0.443335
   4 O :   -0.414952
   5 C :   -0.178008
   6 C :    0.142997
   7 C :   -0.283109
   8 N :   -0.124038
   9 C :    0.202040
  10 S :   -0.439621
  11 N :   -0.198806
  12 C :    0.043304
  13 C :    0.053487
  14 C :   -0.164469
  15 C :   -0.133989
  16 C :   -0.279651
  17 C :    0.311376
  18 O :   -0.358821
  19 C :   -0.273173
  20 H :    0.104027
  21 H :    0.090384
  22 H :    0.089231
  23 H :    0.096522
  24 H :    0.110507
  25 H :    0.125708
  26 H :    0.103038
  27 H :    0.126032
  28 H :    0.197044
  29 H :    0.193943
  30 H :    0.154159
  31 H :    0.154818
  32 H :    0.159915
  33 H :    0.128765
  34 H :    0.240278
  35 H :    0.165542
Sum of atomic charges:   -0.0000000

--------------------------------
MULLIKEN REDUCED ORBITAL CHARGES
--------------------------------
  0 C s       :     3.256111  s :     3.256111
      pz      :     0.928830  p :     2.932776
      px      :     1.013841
      py      :     0.990104
      dz2     :     0.015886  d :     0.072010
      dxz     :     0.013657
      dyz     :     0.020882
      dx2y2   :     0.004566
      dxy     :     0.017019
      f0      :     0.000675  f :     0.004490
      f+1     :     0.000458
      f-1     :     0.001322
      f+2     :     0.000287
      f-2     :     0.000782
      f+3     :     0.000376
      f-3     :     0.000590
  1 C s       :     3.169375  s :     3.169375
      pz      :     0.975514  p :     2.626509
      px      :     0.835655
      py      :     0.815341
      dz2     :     0.021686  d :     0.152914
      dxz     :     0.031353
      dyz     :     0.035819
      dx2y2   :     0.025726
      dxy     :     0.038330
      f0      :     0.001896  f :     0.011720
      f+1     :     0.001062
      f-1     :     0.001712
      f+2     :     0.000352
      f-2     :     0.002303
      f+3     :     0.002085
      f-3     :     0.002310
  2 O s       :     3.721788  s :     3.721788
      pz      :     1.705360  p :     4.605205
      px      :     1.261208
      py      :     1.638637
      dz2     :     0.003916  d :     0.032623
      dxz     :     0.008775
      dyz     :     0.003756
      dx2y2   :     0.008193
      dxy     :     0.007984
      f0      :     0.000243  f :     0.002293
      f+1     :     0.000353
      f-1     :     0.000128
      f+2     :     0.000441
      f-2     :     0.000259
      f+3     :     0.000477
      f-3     :     0.000391
  3 C s       :     3.067216  s :     3.067216
      pz      :     0.664026  p :     2.170690
      px      :     0.695700
      py      :     0.810964
      dz2     :     0.036496  d :     0.292362
      dxz     :     0.047486
      dyz     :     0.055338
      dx2y2   :     0.080943
      dxy     :     0.072099
      f0      :     0.001929  f :     0.026397
      f+1     :     0.003461
      f-1     :     0.002224
      f+2     :     0.004123
      f-2     :     0.003652
      f+3     :     0.004132
      f-3     :     0.006875
  4 O s       :     3.773797  s :     3.773797
      pz      :     1.545122  p :     4.603337
      px      :     1.620751
      py      :     1.437465
      dz2     :     0.003968  d :     0.035409
      dxz     :     0.001681
      dyz     :     0.009656
      dx2y2   :     0.009032
      dxy     :     0.011072
      f0      :     0.000244  f :     0.002410
      f+1     :     0.000086
      f-1     :     0.000332
      f+2     :     0.000259
      f-2     :     0.000272
      f+3     :     0.000680
      f-3     :     0.000537
  5 C s       :     3.184966  s :     3.184966
      pz      :     0.985134  p :     2.901306
      px      :     1.077881
      py      :     0.838291
      dz2     :     0.015113  d :     0.081022
      dxz     :     0.010100
      dyz     :     0.028000
      dx2y2   :     0.008128
      dxy     :     0.019680
      f0      :     0.000950  f :     0.010713
      f+1     :     0.001405
      f-1     :     0.001399
      f+2     :     0.002197
      f-2     :     0.001350
      f+3     :     0.001733
      f-3     :     0.001680
  6 C s       :     3.193158  s :     3.193158
      pz      :     0.863074  p :     2.473409
      px      :     0.835566
      py      :     0.774769
      dz2     :     0.030760  d :     0.176198
      dxz     :     0.016843
      dyz     :     0.051366
      dx2y2   :     0.027020
      dxy     :     0.050209
      f0      :     0.001487  f :     0.014239
      f+1     :     0.001255
      f-1     :     0.002621
      f+2     :     0.002595
      f-2     :     0.002153
      f+3     :     0.002191
      f-3     :     0.001937
  7 C s       :     3.279071  s :     3.279071
      pz      :     0.933411  p :     2.930803
      px      :     0.985542
      py      :     1.011850
      dz2     :     0.018650  d :     0.068582
      dxz     :     0.013047
      dyz     :     0.010035
      dx2y2   :     0.021419
      dxy     :     0.005433
      f0      :     0.000323  f :     0.004653
      f+1     :     0.001250
      f-1     :     0.000836
      f+2     :     0.000639
      f-2     :     0.000539
      f+3     :     0.000308
      f-3     :     0.000758
  8 N s       :     3.340606  s :     3.340606
      pz      :     1.293339  p :     3.719128
      px      :     1.352158
      py      :     1.073630
      dz2     :     0.011661  d :     0.059362
      dxz     :     0.009661
      dyz     :     0.013405
      dx2y2   :     0.012468
      dxy     :     0.012168
      f0      :     0.000565  f :     0.004942
      f+1     :     0.000982
      f-1     :     0.000513
      f+2     :     0.000999
      f-2     :     0.000982
      f+3     :     0.000445
      f-3     :     0.000456
  9 C s       :     3.162742  s :     3.162742
      pz      :     0.744375  p :     2.355566
      px      :     0.730180
      py      :     0.881012
      dz2     :     0.056901  d :     0.262055
      dxz     :     0.030262
      dyz     :     0.055351
      dx2y2   :     0.059750
      dxy     :     0.059792
      f0      :     0.002247  f :     0.017597
      f+1     :     0.002618
      f-1     :     0.002348
      f+2     :     0.003166
      f-2     :     0.001919
      f+3     :     0.002633
      f-3     :     0.002664
 10 S s       :     5.855895  s :     5.855895
      pz      :     3.560245  p :    10.489005
      px      :     3.645950
      py      :     3.282810
      dz2     :     0.009592  d :     0.084595
      dxz     :     0.004930
      dyz     :     0.032074
      dx2y2   :     0.015342
      dxy     :     0.022657
      f0      :     0.001211  f :     0.010126
      f+1     :     0.000247
      f-1     :     0.001503
      f+2     :     0.002216
      f-2     :     0.001809
      f+3     :     0.002126
      f-3     :     0.001014
 11 N s       :     3.369521  s :     3.369521
      pz      :     1.372156  p :     3.766840
      px      :     1.376663
      py      :     1.018021
      dz2     :     0.007129  d :     0.057995
      dxz     :     0.007798
      dyz     :     0.013552
      dx2y2   :     0.013657
      dxy     :     0.015859
      f0      :     0.000430  f :     0.004450
      f+1     :     0.000527
      f-1     :     0.000571
      f+2     :     0.000658
      f-2     :     0.000691
      f+3     :     0.000840
      f-3     :     0.000733
 12 C s       :     3.121690  s :     3.121690
      pz      :     0.866090  p :     2.641404
      px      :     0.947545
      py      :     0.827769
      dz2     :     0.038340  d :     0.182326
      dxz     :     0.029775
      dyz     :     0.038140
      dx2y2   :     0.028069
      dxy     :     0.048002
      f0      :     0.001182  f :     0.011276
      f+1     :     0.001581
      f-1     :     0.001688
      f+2     :     0.001983
      f-2     :     0.002010
      f+3     :     0.001411
      f-3     :     0.001422
 13 C s       :     3.094176  s :     3.094176
      pz      :     0.891361  p :     2.733315
      px      :     0.903324
      py      :     0.938630
      dz2     :     0.020556  d :     0.107751
      dxz     :     0.012623
      dyz     :     0.027073
      dx2y2   :     0.022006
      dxy     :     0.025493
      f0      :     0.000958  f :     0.011272
      f+1     :     0.001569
      f-1     :     0.001550
      f+2     :     0.001876
      f-2     :     0.001945
      f+3     :     0.001803
[...]
      f-1     :     0.005374
      f+2     :     0.008017
      f-2     :     0.004824
      f+3     :     0.006605
      f-3     :     0.006637
 15 C s       :     2.705767  s :     2.705767
      pz      :     0.916100  p :     2.796862
      px      :     0.922343
      py      :     0.958419
      dz2     :     0.095947  d :     0.415756
      dxz     :     0.073066
      dyz     :     0.069120
      dx2y2   :     0.104502
      dxy     :     0.073121
      f0      :     0.004205  f :     0.041002
      f+1     :     0.005770
      f-1     :     0.005950
      f+2     :     0.007625
      f-2     :     0.005764
      f+3     :     0.006487
      f-3     :     0.005201
 16 C s       :     2.701864  s :     2.701864
      pz      :     0.940410  p :     2.869136
      px      :     0.954336
      py      :     0.974391
      dz2     :     0.049678  d :     0.391011
      dxz     :     0.060742
      dyz     :     0.089110
      dx2y2   :     0.093909
      dxy     :     0.097571
      f0      :     0.003561  f :     0.040329
      f+1     :     0.004770
      f-1     :     0.005664
      f+2     :     0.006317
      f-2     :     0.004758
      f+3     :     0.009028
      f-3     :     0.006231
 17 C s       :     2.701529  s :     2.701529
      pz      :     0.877682  p :     2.684188
      px      :     0.821609
      py      :     0.984896
      dz2     :     0.133359  d :     0.707933
      dxz     :     0.105661
      dyz     :     0.146900
      dx2y2   :     0.158452
      dxy     :     0.163562
      f0      :     0.009523  f :     0.099223
      f+1     :     0.014907
      f-1     :     0.011767
      f+2     :     0.017185
      f-2     :     0.013165
      f+3     :     0.018495
      f-3     :     0.014181
 18 O s       :     3.177297  s :     3.177297
      pz      :     1.398397  p :     4.348956
      px      :     1.427846
      py      :     1.522713
      dz2     :     0.009303  d :     0.075567
      dxz     :     0.016481
      dyz     :     0.019802
      dx2y2   :     0.012901
      dxy     :     0.017080
      f0      :     0.000582  f :     0.005076
      f+1     :     0.000652
      f-1     :     0.000610
      f+2     :     0.000614
      f-2     :     0.001070
      f+3     :     0.000741
      f-3     :     0.000806
 19 C s       :     2.695359  s :     2.695359
      pz      :     0.940508  p :     2.847143
      px      :     0.945636
      py      :     0.960999
      dz2     :     0.081083  d :     0.388359
      dxz     :     0.072632
      dyz     :     0.067060
      dx2y2   :     0.091673
      dxy     :     0.075910
      f0      :     0.004092  f :     0.040808
      f+1     :     0.006173
      f-1     :     0.005594
      f+2     :     0.007535
      f-2     :     0.006218
      f+3     :     0.006339
      f-3     :     0.004857
 20 H s       :     0.846059  s :     0.846059
      pz      :     0.043042  p :     0.149985
      px      :     0.062349
      py      :     0.044594
      dz2     :     0.003937  d :     0.027494
      dxz     :     0.006591
      dyz     :     0.002908
      dx2y2   :     0.006720
      dxy     :     0.007339
 21 H s       :     0.851361  s :     0.851361
      pz      :     0.053696  p :     0.150690
      px      :     0.042448
      py      :     0.054547
      dz2     :     0.007099  d :     0.027499
      dxz     :     0.004071
      dyz     :     0.006469
      dx2y2   :     0.004412
      dxy     :     0.005449
 22 H s       :     0.848827  s :     0.848827
      pz      :     0.038465  p :     0.151104
      px      :     0.056238
      py      :     0.056401
      dz2     :     0.002298  d :     0.027400
      dxz     :     0.004204
      dyz     :     0.004860
      dx2y2   :     0.009200
      dxy     :     0.006838
 23 H s       :     0.858725  s :     0.858725
      pz      :     0.046832  p :     0.145010
      px      :     0.062560
      py      :     0.035617
      dz2     :     0.004344  d :     0.026844
      dxz     :     0.007317
      dyz     :     0.002650
      dx2y2   :     0.005873
      dxy     :     0.006659
 24 H s       :     0.849956  s :     0.849956
      pz      :     0.057721  p :     0.148572
      px      :     0.035129
      py      :     0.055723
      dz2     :     0.007481  d :     0.027186
      dxz     :     0.003067
      dyz     :     0.007409
      dx2y2   :     0.004256
      dxy     :     0.004972
 25 H s       :     0.830202  s :     0.830202
      pz      :     0.062704  p :     0.150356
      px      :     0.041462
      py      :     0.046190
      dz2     :     0.008718  d :     0.027703
      dxz     :     0.006952
      dyz     :     0.006780
      dx2y2   :     0.003366
      dxy     :     0.001887
 26 H s       :     0.842630  s :     0.842630
      pz      :     0.038068  p :     0.150005
      px      :     0.039383
      py      :     0.072554
      dz2     :     0.002425  d :     0.027699
      dxz     :     0.000320
      dyz     :     0.009216
      dx2y2   :     0.006854
      dxy     :     0.008883
 27 H s       :     0.830414  s :     0.830414
      pz      :     0.038469  p :     0.151675
      px      :     0.071365
      py      :     0.041841
      dz2     :     0.002601  d :     0.027736
      dxz     :     0.008500
      dyz     :     0.000475
      dx2y2   :     0.007992
      dxy     :     0.008168
 28 H s       :     0.743012  s :     0.743012
      pz      :     0.065775  p :     0.254062
      px      :     0.076456
      py      :     0.111831
      dz2     :     0.006569  d :     0.061861
      dxz     :     0.002424
      dyz     :     0.017869
      dx2y2   :     0.015950
      dxy     :     0.019049
 29 H s       :     0.748526  s :     0.748526
      pz      :     0.110890  p :     0.253996
      px      :     0.101227
      py      :     0.041880
      dz2     :     0.020798  d :     0.061332
      dxz     :     0.015292
      dyz     :     0.008620
      dx2y2   :     0.009655
      dxy     :     0.006968
 30 H s       :     0.828085  s :     0.828085
      pz      :     0.040572  p :     0.148385
      px      :     0.059668
      py      :     0.048145
      dz2     :     0.003258  d :     0.028360
      dxz     :     0.006617
      dyz     :     0.003789
      dx2y2   :     0.007110
      dxy     :     0.007586
 31 H s       :     0.841707  s :     0.841707
      pz      :     0.051030  p :     0.155936
      px      :     0.062425
      py      :     0.042481
      dz2     :     0.005040  d :     0.027467
      dxz     :     0.006144
      dyz     :     0.004036
      dx2y2   :     0.006146
      dxy     :     0.006102
 32 H s       :     0.843213  s :     0.843213
      pz      :     0.038030  p :     0.151311
      px      :     0.038401
      py      :     0.074880
      dz2     :     0.002975  d :     0.026475
      dxz     :     0.000787
      dyz     :     0.007580
      dx2y2   :     0.007429
      dxy     :     0.007704
 33 H s       :     0.849237  s :     0.849237
      pz      :     0.062759  p :     0.159196
      px      :     0.050644
      py      :     0.045793
      dz2     :     0.007188  d :     0.027772
      dxz     :     0.005892
      dyz     :     0.006037
      dx2y2   :     0.004470
      dxy     :     0.004184
 34 H s       :     0.706960  s :     0.706960
      pz      :     0.125126  p :     0.348089
      px      :     0.089750
      py      :     0.133213
      dz2     :     0.027621  d :     0.099618
      dxz     :     0.015924
      dyz     :     0.023820
      dx2y2   :     0.015960
      dxy     :     0.016293
 35 H s       :     0.839700  s :     0.839700
      pz      :     0.040459  p :     0.157010
      px      :     0.040318
      py      :     0.076233
      dz2     :     0.003041  d :     0.028030
      dxz     :     0.000939
      dyz     :     0.008124
      dx2y2   :     0.007712
      dxy     :     0.008214


                      *****************************
                      * MAYER POPULATION ANALYSIS *
                      *****************************

  NA   - Mulliken gross atomic population
  ZA   - Total nuclear charge
  QA   - Mulliken gross atomic charge
  VA   - Mayer's total valence
  BVA  - Mayer's bonded valence
  FA   - Mayer's free valence

  ATOM       NA         ZA         QA         VA         BVA        FA
  0 C      6.2654     6.0000    -0.2654     3.8922     3.8922    -0.0000
  1 C      5.9605     6.0000     0.0395     3.8505     3.8505    -0.0000
  2 O      8.3619     8.0000    -0.3619     2.0206     2.0206    -0.0000
  3 C      5.5567     6.0000     0.4433     4.1955     4.1955    -0.0000
  4 O      8.4150     8.0000    -0.4150     2.0917     2.0917    -0.0000
  5 C      6.1780     6.0000    -0.1780     3.6492     3.6492    -0.0000
  6 C      5.8570     6.0000     0.1430     3.8318     3.8318     0.0000
  7 C      6.2831     6.0000    -0.2831     3.8934     3.8934    -0.0000
  8 N      7.1240     7.0000    -0.1240     3.2889     3.2889    -0.0000
  9 C      5.7980     6.0000     0.2020     4.1549     4.1549    -0.0000
 10 S     16.4396    16.0000    -0.4396     1.7559     1.7559     0.0000
 11 N      7.1988     7.0000    -0.1988     3.2590     3.2590    -0.0000
 12 C      5.9567     6.0000     0.0433     3.9640     3.9640    -0.0000
 13 C      5.9465     6.0000     0.0535     3.7390     3.7390     0.0000
 14 C      6.1645     6.0000    -0.1645     3.8642     3.8642    -0.0000
 15 C      6.1340     6.0000    -0.1340     3.8072     3.8072    -0.0000
 16 C      6.2797     6.0000    -0.2797     3.7934     3.7934     0.0000
 17 C      5.6886     6.0000     0.3114     3.8752     3.8752     0.0000
 18 O      8.3588     8.0000    -0.3588     2.1156     2.1156    -0.0000
 19 C      6.2732     6.0000    -0.2732     3.8518     3.8518     0.0000
 20 H      0.8960     1.0000     0.1040     0.9870     0.9870    -0.0000
 21 H      0.9096     1.0000     0.0904     0.9840     0.9840    -0.0000
 22 H      0.9108     1.0000     0.0892     0.9842     0.9842    -0.0000
 23 H      0.9035     1.0000     0.0965     0.9736     0.9736     0.0000
 24 H      0.8895     1.0000     0.1105     0.9888     0.9888    -0.0000
 25 H      0.8743     1.0000     0.1257     0.9827     0.9827    -0.0000
 26 H      0.8970     1.0000     0.1030     0.9864     0.9864     0.0000
 27 H      0.8740     1.0000     0.1260     0.9783     0.9783     0.0000
 28 H      0.8030     1.0000     0.1970     1.0230     1.0230    -0.0000
 29 H      0.8061     1.0000     0.1939     1.0183     1.0183    -0.0000
 30 H      0.8458     1.0000     0.1542     0.9963     0.9963    -0.0000
 31 H      0.8452     1.0000     0.1548     0.9890     0.9890     0.0000
 32 H      0.8401     1.0000     0.1599     0.9773     0.9773    -0.0000
 33 H      0.8712     1.0000     0.1288     0.9920     0.9920     0.0000
 34 H      0.7597     1.0000     0.2403     1.0109     1.0109    -0.0000
 35 H      0.8345     1.0000     0.1655     0.9884     0.9884     0.0000

  Mayer bond orders larger than 0.100000
B(  0-C ,  1-C ) :   0.9746 B(  0-C , 20-H ) :   0.9775 B(  0-C , 21-H ) :   0.9791 
B(  0-C , 22-H ) :   0.9760 B(  1-C ,  2-O ) :   0.8863 B(  1-C , 23-H ) :   0.9803 
B(  1-C , 24-H ) :   0.9715 B(  2-O ,  3-C ) :   1.1123 B(  3-C ,  4-O ) :   2.0001 
B(  3-C ,  5-C ) :   1.0453 B(  5-C ,  6-C ) :   1.6587 B(  5-C , 12-C ) :   0.9650 
B(  6-C ,  7-C ) :   0.9529 B(  6-C ,  8-N ) :   1.1414 B(  7-C , 25-H ) :   0.9683 
B(  7-C , 26-H ) :   0.9899 B(  7-C , 27-H ) :   0.9636 B(  8-N ,  9-C ) :   1.1816 
B(  8-N , 28-H ) :   0.9493 B(  9-C , 10-S ) :   1.6105 B(  9-C , 11-N ) :   1.3022 
B( 11-N , 12-C ) :   0.9911 B( 11-N , 29-H ) :   0.9517 B( 12-C , 13-C ) :   0.9466 
B( 12-C , 30-H ) :   0.9989 B( 13-C , 14-C ) :   1.3762 B( 13-C , 19-C ) :   1.3694 
B( 14-C , 15-C ) :   1.3943 B( 14-C , 31-H ) :   0.9644 B( 15-C , 16-C ) :   1.3630 
B( 15-C , 32-H ) :   0.9712 B( 16-C , 17-C ) :   1.3312 B( 16-C , 33-H ) :   0.9857 
B( 17-C , 18-O ) :   1.1084 B( 17-C , 19-C ) :   1.3777 B( 18-O , 34-H ) :   0.9804 
B( 19-C , 35-H ) :   0.9583 

-------
TIMINGS
-------

Total SCF time: 0 days 1 hours 26 min 28 sec 

Total time                  ....    5188.561 sec
Sum of individual times     ....    5178.542 sec  ( 99.8%)

Fock matrix formation       ....    5158.201 sec  ( 99.4%)
Diagonalization             ....       1.495 sec  (  0.0%)
Density matrix formation    ....       0.262 sec  (  0.0%)
Population analysis         ....       0.542 sec  (  0.0%)
Initial guess               ....       4.746 sec  (  0.1%)
Orbital Transformation      ....       0.000 sec  (  0.0%)
Orbital Orthonormalization  ....       0.000 sec  (  0.0%)
DIIS solution               ....       8.784 sec  (  0.2%)
SOSCF solution              ....       3.133 sec  (  0.1%)

------------------------------------------------------------------------------
                                ORCA  MP2 
------------------------------------------------------------------------------

Freezing NCore=48 chemical core electrons

-------------
RI-MP2 ENERGY
-------------
Dimension of the basis                    ...  828
Memory devoted to MP2                     ...  256 MB   
Data format for buffers                   ... DOUBLE
Compression type for matrix containers    ... UNCOMPRESSED
Overall scaling of the MP2 energy         ...   1.000e+00
Calculating two index integrals           ... done (    0.040 sec)
Cholesky decomposition of V**-1           ... done (    0.343 sec)

-----------------
RI-TRANSFORMATION (AUX index driven)
-----------------

Dimension of the orbital-basis         ... 828
Dimension of the aux-basis             ... 2141
Transformation of internal/external MOs...   24-  76 to   77- 827
Number Format for Storage              ... Double (8 Byte)
Integral mode                          ... Direct

First Phase: integral generation and transformation of MO indices
  Aux angular momentum 0               ... done (    4.815 sec)
  Aux angular momentum 1               ... done (    8.375 sec)
  Aux angular momentum 2               ... done (   11.170 sec)
  Aux angular momentum 3               ... done (   11.077 sec)
  Aux angular momentum 4               ... done (    3.120 sec)
Closing buffer VIA ( 0.63 GB; CompressionRatio= 1.00)
  Phase 1 completed in    38.754 sec
Second Phase: sorting and transformation of aux index

IA-Transformation
Memory available                       ... 167 MB 
Max. # MO pairs treated in a batch     ... 12    
# of internal orbitals                 ... 53
# batches for internal orbitals        ... 5
Closing buffer IAV ( 0.63 GB; CompressionRatio= 1.00)
(ia|v) transformation done in    65.062 sec

  Phase 2 completed in    65.094 sec
RI-Integral transformation completed in   103.854 sec
Opening buffers                              ... done

Starting loop over batches of integrals:

Operator 0  - window                       ... ( 24- 76)x( 77-827)
Operator 0  - Memory available             ...   256 MB
Operator 0  - Memory needed per MO         ...  12.3 MB
Operator 0  - Number of orbitals per batch ... 13
Operator 0  - Number of batches            ... 5

OPERATOR  0   PASS   0:  MOs    24 ...   36
  Reading integrals       ... ok
  Internal MO  26
  Internal MO  29
  Internal MO  32
  Internal MO  35
OPERATOR  0   PASS   1:  MOs    37 ...   49
  Reading integrals       ... ok
  Internal MO  38
  Internal MO  41
  Internal MO  44
  Internal MO  47
OPERATOR  0   PASS   2:  MOs    50 ...   62
  Reading integrals       ... ok
  Internal MO  50
  Internal MO  53
  Internal MO  56
  Internal MO  59
  Internal MO  62
OPERATOR  0   PASS   3:  MOs    63 ...   75
  Reading integrals       ... ok
  Internal MO  65
  Internal MO  68
  Internal MO  71
  Internal MO  74
OPERATOR  0   PASS   4:  MOs    76 ...   76
  Reading integrals       ... ok
Time spent in pair loops =   103.651 sec
Deleting buffer (Ka|jb)[aa] ...done

-----------------------------------------------
 RI-MP2 CORRELATION ENERGY:     -3.530750544 Eh
-----------------------------------------------


-------
TIMINGS
-------

Total time                :  208.043 sec
Integral trafo            :  103.893 sec ( 49.9%)
I/O of integrals          :    9.173 sec (  4.4%)
K(i,j) Operators          :   54.212 sec ( 26.1%)
T(i,j) pair energies      :    8.669 sec (  4.2%)
V-calculation             :    0.040 sec (  0.0%)
V**(-1/2)                 :    0.343 sec (  0.2%)
Gamma(ia|P)               :    0.000 sec (  0.0%)
Gamma-Trafo               :    0.000 sec (  0.0%)
D(virtual)                :    0.000 sec (  0.0%)
D(internal)               :    0.000 sec (  0.0%)
W(virtual)                :    0.000 sec (  0.0%)
W(internal)               :    0.000 sec (  0.0%)
L(virtual)                :    0.000 sec (  0.0%)
L(internal)               :    0.000 sec (  0.0%)
G(D)                      :    0.000 sec (  0.0%)
G(Z)                      :    0.000 sec (  0.0%)
Z-Vector Solution         :    0.000 sec (  0.0%)
3-Index Derivative        :    0.000 sec (  0.0%)
2-Index Derivative        :    0.000 sec (  0.0%)
Separable Gradient        :    0.000 sec (  0.0%)


---------------------------------------
MP2 TOTAL ENERGY:    -1274.336042732 Eh
---------------------------------------

-------------------------   --------------------
FINAL SINGLE POINT ENERGY     -1274.336042732428
-------------------------   --------------------


                            ***************************************
                            *     ORCA property calculations      *
                            ***************************************


  WARNING: The energy has been calculated at the MP2 level but the densities
           used in the property calculations are still SCF densities
           MP2 response densities have not been calculated 
           use %mp2 Density relaxed end
           or  %mp2 Density unrelaxed end

                                    ---------------------
                                    Active property flags
                                    ---------------------
   (+) Dipole Moment


------------------------------------------------------------------------------
                       ORCA ELECTRIC PROPERTIES CALCULATION
------------------------------------------------------------------------------

Dipole Moment Calculation                       ... on
Quadrupole Moment Calculation                   ... off
Polarizability Calculation                      ... off
GBWName                                         ... CONFS/Conf1.orca.gbw
Electron density file                           ... CONFS/Conf1.orca.scfp
The origin for moment calculation is the CENTER OF MASS  = (32.915214, 31.524814 35.442387)

-------------
DIPOLE MOMENT
-------------
                                X             Y             Z
Electronic contribution:     10.96717      10.16137      10.51818
Nuclear contribution   :    -12.52211     -11.40423     -11.21555
                        -----------------------------------------
Total Dipole Moment    :     -1.55494      -1.24286      -0.69737
                        -----------------------------------------
Magnitude (a.u.)       :      2.10923
Magnitude (Debye)      :      5.36125



--------------------
Rotational spectrum 
--------------------
 
Rotational constants in cm-1:     0.010702     0.008979     0.005958 
Rotational constants in MHz :   320.843599   269.173826   178.622795 

 Dipole components along the rotational axes: 
x,y,z [a.u.] :    -1.958664     0.176397     0.762488 
x,y,z [Debye]:    -4.978529     0.448366     1.938091 

 

Timings for individual modules:

Sum of individual times         ...     5402.587 sec (=  90.043 min)
GTO integral calculation        ...        3.405 sec (=   0.057 min)   0.1 %
SCF iterations                  ...     5190.394 sec (=  86.507 min)  96.1 %
MP2 module                      ...      208.788 sec (=   3.480 min)   3.9 %
                             ****ORCA TERMINATED NORMALLY****
TOTAL RUN TIME: 0 days 1 hours 30 minutes 3 seconds 442 msec
