
                                 *****************
                                 * O   R   C   A *
                                 *****************

           --- An Ab Initio, DFT and Semiempirical electronic structure package ---

                  #######################################################
                  #                        -***-                        #
                  #          Department of theory and spectroscopy      #
                  #               Directorship: Frank Neese             #
                  #        Max Planck Institute fuer Kohlenforschung    #
                  #                Kaiser Wilhelm Platz 1               #
                  #                 D-45470 Muelheim/Ruhr               #
                  #                      Germany                        #
                  #                                                     #
                  #                  All rights reserved                #
                  #                        -***-                        #
                  #######################################################


                         Program Version 4.2.0 -  RELEASE  -


 With contributions from (in alphabetic order):
   Daniel Aravena         : Magnetic Suceptibility
   Michael Atanasov       : Ab Initio Ligand Field Theory (pilot matlab implementation)
   Alexander A. Auer      : GIAO ZORA, VPT2
   Ute Becker             : Parallelization
   Giovanni Bistoni       : ED, misc. LED, open-shell LED, HFLED
   Martin Brehm           : Molecular dynamics
   Dmytro Bykov           : SCF Hessian
   Vijay G. Chilkuri      : MRCI spin determinant printing, contributions to CSF-ICE
   Dipayan Datta          : RHF DLPNO-CCSD density
   Achintya Kumar Dutta   : EOM-CC, STEOM-CC
   Dmitry Ganyushin       : Spin-Orbit,Spin-Spin,Magnetic field MRCI
   Miquel Garcia          : C-PCM Hessian, Gaussian charge scheme
   Yang Guo               : DLPNO-NEVPT2, CIM, IAO-localization
   Andreas Hansen         : Spin unrestricted coupled pair/coupled cluster methods
   Benjamin Helmich-Paris : CASSCF linear response (MC-RPA)
   Lee Huntington         : MR-EOM, pCC
   Robert Izsak           : Overlap fitted RIJCOSX, COSX-SCS-MP3, EOM
   Christian Kollmar      : KDIIS, OOCD, Brueckner-CCSD(T), CCSD density
   Simone Kossmann        : Meta GGA functionals, TD-DFT gradient, OOMP2, MP2 Hessian
   Martin Krupicka        : AUTO-CI
   Lucas Lang             : DCDCAS
   Dagmar Lenk            : GEPOL surface, SMD
   Dimitrios Liakos       : Extrapolation schemes; Compound Job, initial MDCI parallelization
   Dimitrios Manganas     : Further ROCIS development; embedding schemes
   Dimitrios Pantazis     : SARC Basis sets
   Taras Petrenko         : DFT Hessian,TD-DFT gradient, ASA, ECA, R-Raman, ABS, FL, XAS/XES, NRVS
   Peter Pinski           : DLPNO-MP2, DLPNO-MP2 Gradient
   Christoph Reimann      : Effective Core Potentials
   Marius Retegan         : Local ZFS, SOC
   Christoph Riplinger    : Optimizer, TS searches, QM/MM, DLPNO-CCSD(T), (RO)-DLPNO pert. Triples
   Tobias Risthaus        : Range-separated hybrids, TD-DFT gradient, RPA, STAB
   Michael Roemelt        : Original ROCIS implementation
   Masaaki Saitow         : Open-shell DLPNO-CCSD energy and density
   Barbara Sandhoefer     : DKH picture change effects
   Avijit Sen             : IP-ROCIS
   Kantharuban Sivalingam : CASSCF convergence, NEVPT2, FIC-MRCI
   Bernardo de Souza      : ESD, SOC TD-DFT
   Georgi Stoychev        : AutoAux, RI-MP2 NMR
   Willem Van den Heuvel  : Paramagnetic NMR
   Boris Wezisla          : Elementary symmetry handling
   Frank Wennmohs         : Technical directorship


 We gratefully acknowledge several colleagues who have allowed us to
 interface, adapt or use parts of their codes:
   Stefan Grimme, W. Hujo, H. Kruse,             : VdW corrections, initial TS optimization,
                  C. Bannwarth                     DFT functionals, gCP, sTDA/sTD-DF
   Ed Valeev, F. Pavosevic, A. Kumar             : LibInt (2-el integral package), F12 methods
   Garnet Chan, S. Sharma, J. Yang, R. Olivares  : DMRG
   Ulf Ekstrom                                   : XCFun DFT Library
   Mihaly Kallay                                 : mrcc  (arbitrary order and MRCC methods)
   Andreas Klamt, Michael Diedenhofen            : otool_cosmo (COSMO solvation model)
   Jiri Pittner, Ondrej Demel                    : Mk-CCSD
   Frank Weinhold                                : gennbo (NPA and NBO analysis)
   Christopher J. Cramer and Donald G. Truhlar   : smd solvation model
   Lars Goerigk                                  : TD-DFT with DH, B97 family of functionals
   V. Asgeirsson, H. Jonsson                     : NEB implementation
   FAccTs GmbH                                   : IRC, NEB, NEB-TS, Multilevel, MM, QM/MM, CI optimization
   S Lehtola, MJT Oliveira, MAL Marques          : LibXC Library


 Your calculation uses the libint2 library for the computation of 2-el integrals
 For citations please refer to: http://libint.valeyev.net

 Your ORCA version has been built with support for libXC version: 4.2.3
 For citations please refer to: https://tddft.org/programs/libxc/

 This ORCA versions uses:
   CBLAS   interface :  Fast vector & matrix operations
   LAPACKE interface :  Fast linear algebra routines
   SCALAPACK package :  Parallel linear algebra routines


----- Orbital basis set information -----
Your calculation utilizes the basis: cc-pVTZ 
       H, B-Ne : Obtained from the ccRepo (grant-hill.group.shef.ac.uk/ccrepo) Feb. 2017
                 T. H. Dunning, Jr., J. Chem. Phys. 90, 1007 (1989)
            He : Obtained from the ccRepo (grant-hill.group.shef.ac.uk/ccrepo) Feb. 2017
                 D. E. Woon, T. H. Dunning, Jr., J. Chem. Phys. 100, 2975 (1994)
  Li-Be, Na-Mg : Obtained from the ccRepo (grant-hill.group.shef.ac.uk/ccrepo) Feb. 2017
                 B. P. Prascher, D. E. Woon, K. A. Peterson, T. H. Dunning, Jr., A. K. Wilson, Theor. Chem. Acc. 128, 69 (2011)
         Al-Ar : Obtained from the ccRepo (grant-hill.group.shef.ac.uk/ccrepo) Feb. 2017
                 D. E. Woon, T. H. Dunning, Jr., J. Chem. Phys. 98, 1358 (1993)
            Ca : Obtained from the Peterson Research Group Website (tyr0.chem.wsu.edu/~kipeters) Feb. 2017
                 J. Koput, K. A. Peterson, J. Phys. Chem. 106, 9595 (2002)
         Sc-Zn : Obtained from the ccRepo (grant-hill.group.shef.ac.uk/ccrepo) Feb. 2017
                 N. B. Balabanov, K. A. Peterson, J. Chem. Phys. 123, 064107 (2005)
                 N. B. Balabanov, K. A. Peterson, J. Chem. Phys. 125, 074110 (2006)
         Ga-Kr : Obtained from the ccRepo (grant-hill.group.shef.ac.uk/ccrepo) Feb. 2017
                 A. K. Wilson, D. E. Woon, K. A. Peterson, T. H. Dunning, Jr., J. Chem. Phys. 110, 7667 (1999)
             Y : Obtained from the ccRepo (grant-hill.group.shef.ac.uk/ccrepo) Feb. 2017
                 K. A. Peterson, D. Figgen, M. Dolg, H. Stoll, J. Chem. Phys. 126, 124101 (2007)
        Ag, Au : Obtained from the Peterson Research Group Website (tyr0.chem.wsu.edu/~kipeters) Feb. 2017
                 K. A. Peterson, C. Puzzarini, Theor. Chem. Acc. 114, 283 (2005)

----- AuxC basis set information -----
Your calculation utilizes the auxiliary basis: cc-pVTZ/C 
  Obtained from the EMSL Basis Set Exchange (bse.pnl.gov) Feb. 2017
  H-He, B-F, Al-Ar, Ga-Kr : F. Weigend, A. Kohn, C. Hattig, J. Chem. Phys. 116, 3175 (2002)
             Li-Be, Na-Mg : C. Haettig, Phys. Chem. Chem. Phys. 7, 59 (2005)
                       Ne : C. Haettig, Phys. Chem. Chem. Phys. 7, 59 (2005)
                            F. Weigend, A. Kohn, C. Hattig, J. Chem. Phys. 116, 3175 (2002)
                    Sc-Zn : J. G. Hill, J. A. Platts, J. Chem. Phys. 128, 044104 (2008)

================================================================================
                                        WARNINGS
                       Please study these warnings very carefully!
================================================================================


WARNING: No MP2 level density has been requested!
         To caclulate MP2 level properties use
         %mp2 Density relaxed end
         or
         %mp2 Density unrelaxed end

WARNING: Post HF methods need fully converged wavefunctions
  ===> : Setting SCFConvForced true
         You can overwrite this default with %scf ConvForced false 


INFO   : the flag for use of LIBINT has been found!

================================================================================
                                       INPUT FILE
================================================================================
NAME = CONFS/Conf5.orca
|  1> ! ri-mp2 cc-pvtz cc-pvtz/c TightSCF NoKeepInts
|  2> 
|  3> %scf
|  4>   MaxCore 4096
|  5> end
|  6> *xyz  0  1
|  7>     C       15.0038349   15.9016432   17.3201022
|  8>     C       15.5164375   15.1630804   16.0664124
|  9>     O       16.9546823   15.0355866   15.8856351
| 10>     C       18.0568350   15.6049950   16.4875358
| 11>     O       19.1092352   14.9937132   16.4629557
| 12>     C       17.8984126   16.7678141   17.4101003
| 13>     C       17.3979251   17.9502594   16.9792878
| 14>     C       16.9011496   18.2817747   15.5859331
| 15>     N       17.4032081   19.0606092   17.8260306
| 16>     C       18.0334677   19.1097950   19.0415942
| 17>     S       18.0610529   20.4908910   19.9504608
| 18>     N       18.6475930   17.9568040   19.4641174
| 19>     C       18.5729312   16.6488616   18.7816865
| 20>     C       17.9038635   15.5924438   19.6593461
| 21>     C       18.3405952   14.2558434   19.6009198
| 22>     C       17.7345333   13.2662357   20.3923200
| 23>     C       16.6806812   13.6136329   21.2538481
| 24>     C       16.2410581   14.9424146   21.3170782
| 25>     O       15.2172464   15.2796768   22.1408781
| 26>     C       16.8461200   15.9260906   20.5281302
| 27>     H       15.5365995   15.5697522   18.2154376
| 28>     H       13.9457642   15.6570114   17.4745585
| 29>     H       15.0550840   16.9884733   17.2338225
| 30>     H       15.0986822   14.1478064   16.0799918
| 31>     H       15.0943800   15.6579977   15.1823258
| 32>     H       17.0949524   17.4772754   14.8669550
| 33>     H       17.4083954   19.1737887   15.1965120
| 34>     H       15.8232901   18.4824488   15.5818380
| 35>     H       16.9809513   19.9240417   17.5226516
| 36>     H       19.0968223   18.0193491   20.3690530
| 37>     H       19.6069987   16.3159730   18.6072134
| 38>     H       19.1513729   13.9802829   18.9294398
| 39>     H       18.0816593   12.2360365   20.3326589
| 40>     H       16.2087360   12.8517542   21.8654205
| 41>     H       14.9631774   14.4826191   22.6300983
| 42>     H       16.4792715   16.9452242   20.5916507
| 43> *
| 44> 
| 45>                          ****END OF INPUT****
================================================================================

                       ****************************
                       * Single Point Calculation *
                       ****************************

---------------------------------
CARTESIAN COORDINATES (ANGSTROEM)
---------------------------------
  C     15.003835   15.901643   17.320102
  C     15.516438   15.163080   16.066412
  O     16.954682   15.035587   15.885635
  C     18.056835   15.604995   16.487536
  O     19.109235   14.993713   16.462956
  C     17.898413   16.767814   17.410100
  C     17.397925   17.950259   16.979288
  C     16.901150   18.281775   15.585933
  N     17.403208   19.060609   17.826031
  C     18.033468   19.109795   19.041594
  S     18.061053   20.490891   19.950461
  N     18.647593   17.956804   19.464117
  C     18.572931   16.648862   18.781686
  C     17.903863   15.592444   19.659346
  C     18.340595   14.255843   19.600920
  C     17.734533   13.266236   20.392320
  C     16.680681   13.613633   21.253848
  C     16.241058   14.942415   21.317078
  O     15.217246   15.279677   22.140878
  C     16.846120   15.926091   20.528130
  H     15.536599   15.569752   18.215438
  H     13.945764   15.657011   17.474558
  H     15.055084   16.988473   17.233822
  H     15.098682   14.147806   16.079992
  H     15.094380   15.657998   15.182326
  H     17.094952   17.477275   14.866955
  H     17.408395   19.173789   15.196512
  H     15.823290   18.482449   15.581838
  H     16.980951   19.924042   17.522652
  H     19.096822   18.019349   20.369053
  H     19.606999   16.315973   18.607213
  H     19.151373   13.980283   18.929440
  H     18.081659   12.236037   20.332659
  H     16.208736   12.851754   21.865420
  H     14.963177   14.482619   22.630098
  H     16.479271   16.945224   20.591651

----------------------------
CARTESIAN COORDINATES (A.U.)
----------------------------
  NO LB      ZA    FRAG     MASS         X           Y           Z
   0 C     6.0000    0    12.011   28.353139   30.049751   32.730250
   1 C     6.0000    0    12.011   29.321817   28.654069   30.361119
   2 O     8.0000    0    15.999   32.039706   28.413141   30.019500
   3 C     6.0000    0    12.011   34.122473   29.489167   31.156927
   4 O     8.0000    0    15.999   36.111221   28.334012   31.110478
   5 C     6.0000    0    12.011   33.823098   31.686577   32.900322
   6 C     6.0000    0    12.011   32.877314   33.921074   32.086204
   7 C     6.0000    0    12.011   31.938544   34.547547   29.453145
   8 N     7.0000    0    14.007   32.887297   36.019331   33.686316
   9 C     6.0000    0    12.011   34.078315   36.112279   35.983398
  10 S    16.0000    0    32.060   34.130444   38.722172   37.700907
  11 N     7.0000    0    14.007   35.238844   33.933442   36.781851
  12 C     6.0000    0    12.011   35.097753   31.461789   35.492244
  13 C     6.0000    0    12.011   33.833399   29.465449   37.150780
  14 C     6.0000    0    12.011   34.658702   26.939640   37.040370
  15 C     6.0000    0    12.011   33.513411   25.069552   38.535900
  16 C     6.0000    0    12.011   31.521919   25.726038   40.163952
  17 C     6.0000    0    12.011   30.691152   28.237071   40.283440
  18 O     8.0000    0    15.999   28.756428   28.874405   41.840196
  19 C     6.0000    0    12.011   31.834553   30.095950   38.792544
  20 H     1.0000    0     1.008   29.359918   29.422568   34.422188
  21 H     1.0000    0     1.008   26.353675   29.587464   33.022130
  22 H     1.0000    0     1.008   28.449986   32.103562   32.567205
  23 H     1.0000    0     1.008   28.532374   26.735479   30.386781
  24 H     1.0000    0     1.008   28.524244   29.589327   28.690438
  25 H     1.0000    0     1.008   32.304778   33.027264   28.094473
  26 H     1.0000    0     1.008   32.897100   36.233210   28.717246
  27 H     1.0000    0     1.008   29.901685   34.926767   29.445406
  28 H     1.0000    0     1.008   32.089347   37.650982   33.113013
  29 H     1.0000    0     1.008   36.087764   34.051635   38.491932
  30 H     1.0000    0     1.008   37.051858   30.832721   35.162537
  31 H     1.0000    0     1.008   36.190850   26.418906   35.771457
  32 H     1.0000    0     1.008   34.169384   23.122758   38.423157
  33 H     1.0000    0     1.008   30.630072   24.286296   41.319657
  34 H     1.0000    0     1.008   28.276307   27.368184   42.764688
  35 H     1.0000    0     1.008   31.141310   32.021833   38.912580

--------------------------------
INTERNAL COORDINATES (ANGSTROEM)
--------------------------------
 C      0   0   0     0.000000000000     0.00000000     0.00000000
 C      1   0   0     1.542716613541     0.00000000     0.00000000
 O      2   1   0     1.455157450574   118.11957133     0.00000000
 C      3   2   1     1.378858568805   134.39662021   348.07901326
 O      4   3   2     1.217298567028   118.35014669   154.75796367
 C      4   3   2     1.492772981001   120.43953191   348.83449683
 C      6   4   3     1.354350041645   121.51500252   297.42431067
 C      7   6   4     1.515956995283   127.18524454     1.79495715
 N      7   6   4     1.396380305576   119.99659208   187.24073045
 C      9   7   6     1.370124546149   124.62931814     8.41259462
 S     10   9   7     1.653549394808   121.68838519   176.67524328
 N     10   9   7     1.372976323437   116.65621965   357.02736732
 C     12  10   9     1.477159314147   125.36563751   353.82740031
 C     13  12  10     1.527729206637   111.65459473   242.66591980
 C     14  13  12     1.407355264173   119.80013097   214.95419093
 C     15  14  13     1.404616923966   120.78587040   180.41077688
 C     16  15  14     1.404820177223   119.66892310   359.93573915
 C     17  16  15     1.401045082021   119.84143774     0.05505657
 O     18  17  16     1.356680678659   119.99800443   179.52859278
 C     18  17  16     1.398626941865   120.38688558   359.94193496
 H      1   2   3     1.093441920445   110.99030394   314.31645461
 H      1   2   3     1.096911606457   109.15763420   197.01306941
 H      1   2   3     1.091453307819   113.38276070    78.88675522
 H      2   1   3     1.097945893867   107.83141478   121.67784779
 H      2   1   3     1.097581333408   108.11566606   236.22141179
 H      8   7   6     1.096224501308   112.60664822   352.85747718
 H      8   7   6     1.097559142342   110.63377980   233.96023037
 H      8   7   6     1.096388601726   111.44565857   114.14384743
 H      9   7   6     1.007896475261   119.80716919   183.61559533
 H     12  10   9     1.012238753289   114.94447507   180.59248002
 H     13  12  10     1.100250552006   107.07683585   125.77427746
 H     15  14  13     1.088200100339   119.82289347   359.87020099
 H     16  15  14     1.088745286286   119.88163542   179.76959137
 H     17  16  15     1.084994113237   119.88989415   179.88763760
 H     19  18  17     0.969117349952   107.45239989     3.13562962
 H     20  18  17     1.085009663792   118.77174837   179.48771443

---------------------------
INTERNAL COORDINATES (A.U.)
---------------------------
 C      0   0   0     0.000000000000     0.00000000     0.00000000
 C      1   0   0     2.915311901842     0.00000000     0.00000000
 O      2   1   0     2.749849063320   118.11957133     0.00000000
 C      3   2   1     2.605665072453   134.39662021   348.07901326
 O      4   3   2     2.300360914897   118.35014669   154.75796367
 C      4   3   2     2.820932114209   120.43953191   348.83449683
 C      6   4   3     2.559350668174   121.51500252   297.42431067
 C      7   6   4     2.864743551886   127.18524454     1.79495715
 N      7   6   4     2.638776356340   119.99659208   187.24073045
 C      9   7   6     2.589160161584   124.62931814     8.41259462
 S     10   9   7     3.124755505099   121.68838519   176.67524328
 N     10   9   7     2.594549239655   116.65621965   357.02736732
 C     12  10   9     2.791426559909   125.36563751   353.82740031
 C     13  12  10     2.886989807337   111.65459473   242.66591980
 C     14  13  12     2.659516022420   119.80013097   214.95419093
 C     15  14  13     2.654341309366   120.78587040   180.41077688
 C     16  15  14     2.654725402358   119.66892310   359.93573915
 C     17  16  15     2.647591506296   119.84143774     0.05505657
 O     18  17  16     2.563754933847   119.99800443   179.52859278
 C     18  17  16     2.643021883649   120.38688558   359.94193496
 H      1   2   3     2.066305772991   110.99030394   314.31645461
 H      1   2   3     2.072862529323   109.15763420   197.01306941
 H      1   2   3     2.062547839740   113.38276070    78.88675522
 H      2   1   3     2.074817049271   107.83141478   121.67784779
 H      2   1   3     2.074128129845   108.11566606   236.22141179
 H      8   7   6     2.071564088766   112.60664822   352.85747718
 H      8   7   6     2.074086194808   110.63377980   233.96023037
 H      8   7   6     2.071874193615   111.44565857   114.14384743
 H      9   7   6     1.904648309588   119.80716919   183.61559533
 H     12  10   9     1.912854025858   114.94447507   180.59248002
 H     13  12  10     2.079172221987   107.07683585   125.77427746
 H     15  14  13     2.056400168546   119.82289347   359.87020099
 H     16  15  14     2.057430420678   119.88163542   179.76959137
 H     17  16  15     2.050341730934   119.88989415   179.88763760
 H     19  18  17     1.831366383041   107.45239989     3.13562962
 H     20  18  17     2.050371117224   118.77174837   179.48771443

---------------------
BASIS SET INFORMATION
---------------------
There are 5 groups of distinct atoms

 Group   1 Type C   : 18s5p2d1f contracted to 4s3p2d1f pattern {8811/311/11/1}
 Group   2 Type O   : 18s5p2d1f contracted to 4s3p2d1f pattern {8811/311/11/1}
 Group   3 Type N   : 18s5p2d1f contracted to 4s3p2d1f pattern {8811/311/11/1}
 Group   4 Type S   : 41s16p2d1f contracted to 5s4p2d1f pattern {13131311/7711/11/1}
 Group   5 Type H   : 5s2p1d contracted to 3s2p1d pattern {311/11/1}

Atom   0C    basis set group =>   1
Atom   1C    basis set group =>   1
Atom   2O    basis set group =>   2
Atom   3C    basis set group =>   1
Atom   4O    basis set group =>   2
Atom   5C    basis set group =>   1
Atom   6C    basis set group =>   1
Atom   7C    basis set group =>   1
Atom   8N    basis set group =>   3
Atom   9C    basis set group =>   1
Atom  10S    basis set group =>   4
Atom  11N    basis set group =>   3
Atom  12C    basis set group =>   1
Atom  13C    basis set group =>   1
Atom  14C    basis set group =>   1
Atom  15C    basis set group =>   1
Atom  16C    basis set group =>   1
Atom  17C    basis set group =>   1
Atom  18O    basis set group =>   2
Atom  19C    basis set group =>   1
Atom  20H    basis set group =>   5
Atom  21H    basis set group =>   5
Atom  22H    basis set group =>   5
Atom  23H    basis set group =>   5
Atom  24H    basis set group =>   5
Atom  25H    basis set group =>   5
Atom  26H    basis set group =>   5
Atom  27H    basis set group =>   5
Atom  28H    basis set group =>   5
Atom  29H    basis set group =>   5
Atom  30H    basis set group =>   5
Atom  31H    basis set group =>   5
Atom  32H    basis set group =>   5
Atom  33H    basis set group =>   5
Atom  34H    basis set group =>   5
Atom  35H    basis set group =>   5
---------------------------------
AUXILIARY/C BASIS SET INFORMATION
---------------------------------
There are 5 groups of distinct atoms

 Group   1 Type C   : 8s6p5d3f1g contracted to 8s6p5d3f1g pattern {11111111/111111/11111/111/1}
 Group   2 Type O   : 8s6p5d3f1g contracted to 8s6p5d3f1g pattern {11111111/111111/11111/111/1}
 Group   3 Type N   : 8s6p5d3f1g contracted to 8s6p5d3f1g pattern {11111111/111111/11111/111/1}
 Group   4 Type S   : 10s8p7d5f2g contracted to 10s8p7d5f2g pattern {1111111111/11111111/1111111/11111/11}
 Group   5 Type H   : 4s3p2d1f contracted to 4s3p2d1f pattern {1111/111/11/1}

Atom   0C    basis set group =>   1
Atom   1C    basis set group =>   1
Atom   2O    basis set group =>   2
Atom   3C    basis set group =>   1
Atom   4O    basis set group =>   2
Atom   5C    basis set group =>   1
Atom   6C    basis set group =>   1
Atom   7C    basis set group =>   1
Atom   8N    basis set group =>   3
Atom   9C    basis set group =>   1
Atom  10S    basis set group =>   4
Atom  11N    basis set group =>   3
Atom  12C    basis set group =>   1
Atom  13C    basis set group =>   1
Atom  14C    basis set group =>   1
Atom  15C    basis set group =>   1
Atom  16C    basis set group =>   1
Atom  17C    basis set group =>   1
Atom  18O    basis set group =>   2
Atom  19C    basis set group =>   1
Atom  20H    basis set group =>   5
Atom  21H    basis set group =>   5
Atom  22H    basis set group =>   5
Atom  23H    basis set group =>   5
Atom  24H    basis set group =>   5
Atom  25H    basis set group =>   5
Atom  26H    basis set group =>   5
Atom  27H    basis set group =>   5
Atom  28H    basis set group =>   5
Atom  29H    basis set group =>   5
Atom  30H    basis set group =>   5
Atom  31H    basis set group =>   5
Atom  32H    basis set group =>   5
Atom  33H    basis set group =>   5
Atom  34H    basis set group =>   5
Atom  35H    basis set group =>   5
------------------------------------------------------------------------------
                           ORCA GTO INTEGRAL CALCULATION
------------------------------------------------------------------------------

                         BASIS SET STATISTICS AND STARTUP INFO

 # of primitive gaussian shells          ...  682
 # of primitive gaussian functions       ... 1312
 # of contracted shells                  ...  298
 # of contracted basis functions         ...  828
 Highest angular momentum                ...    3
 Maximum contraction depth               ...   13
 Integral package used                   ... LIBINT
 Integral threshhold            Thresh   ...  2.500e-11
 Primitive cut-off              TCut     ...  2.500e-12


------------------------------ INTEGRAL EVALUATION ----------------------------


 * One electron integrals 
 Pre-screening matrix                    ... done
 Shell pair data                         ... done (   0.014 sec)

-------------------------------------------------------------------------------
                                 ORCA SCF
-------------------------------------------------------------------------------

------------
SCF SETTINGS
------------
Hamiltonian:
 Ab initio Hamiltonian  Method          .... Hartree-Fock(GTOs)


General Settings:
 Integral files         IntName         .... CONFS/Conf5.orca
 Hartree-Fock type      HFTyp           .... RHF
 Total Charge           Charge          ....    0
 Multiplicity           Mult            ....    1
 Number of Electrons    NEL             ....  154
 Basis Dimension        Dim             ....  828
 Nuclear Repulsion      ENuc            ....   1728.7764957373 Eh

Convergence Acceleration:
 DIIS                   CNVDIIS         .... on
   Start iteration      DIISMaxIt       ....    12
   Startup error        DIISStart       ....  0.200000
   # of expansion vecs  DIISMaxEq       ....     5
   Bias factor          DIISBfac        ....   1.050
   Max. coefficient     DIISMaxC        ....  10.000
 Newton-Raphson         CNVNR           .... off
 SOSCF                  CNVSOSCF        .... on
   Start iteration      SOSCFMaxIt      ....   150
   Startup grad/error   SOSCFStart      ....  0.003300
 Level Shifting         CNVShift        .... on
   Level shift para.    LevelShift      ....    0.2500
   Turn off err/grad.   ShiftErr        ....    0.0010
 Zerner damping         CNVZerner       .... off
 Static damping         CNVDamp         .... on
   Fraction old density DampFac         ....    0.7000
   Max. Damping (<1)    DampMax         ....    0.9800
   Min. Damping (>=0)   DampMin         ....    0.0000
   Turn off err/grad.   DampErr         ....    0.1000
 Fernandez-Rico         CNVRico         .... off

SCF Procedure:
 Maximum # iterations   MaxIter         ....   125
 SCF integral mode      SCFMode         .... Direct
   Integral package                     .... LIBINT
 Reset frequency        DirectResetFreq ....    20
 Integral Threshold     Thresh          ....  2.500e-11 Eh
 Primitive CutOff       TCut            ....  2.500e-12 Eh

Convergence Tolerance:
 Convergence Check Mode ConvCheckMode   .... Total+1el-Energy
 Convergence forced     ConvForced      .... 1
 Energy Change          TolE            ....  1.000e-08 Eh
 1-El. energy change                    ....  1.000e-05 Eh
 Orbital Gradient       TolG            ....  1.000e-05
 Orbital Rotation angle TolX            ....  1.000e-05
 DIIS Error             TolErr          ....  5.000e-07


Diagonalization of the overlap matrix:
Smallest eigenvalue                        ... 3.210e-05
Time for diagonalization                   ...    0.145 sec
Threshold for overlap eigenvalues          ... 1.000e-08
Number of eigenvalues below threshold      ... 0
Time for construction of square roots      ...    0.069 sec
Total time needed                          ...    0.217 sec

-------------------
DFT GRID GENERATION
-------------------

General Integration Accuracy     IntAcc      ...  4.340
Radial Grid Type                 RadialGrid  ... Gauss-Chebyshev
Angular Grid (max. acc.)         AngularGrid ... Lebedev-110
Angular grid pruning method      GridPruning ... 3 (G Style)
Weight generation scheme         WeightScheme... Becke
Basis function cutoff            BFCut       ...    1.0000e-11
Integration weight cutoff        WCut        ...    1.0000e-14
Grids for H and He will be reduced by one unit

# of grid points (after initial pruning)     ...  46246 (   0.0 sec)
# of grid points (after weights+screening)   ...  41160 (   0.3 sec)
nearest neighbour list constructed           ...    0.0 sec
Grid point re-assignment to atoms done       ...    0.0 sec
Grid point division into batches done        ...    0.0 sec
Reduced shell lists constructed in    1.0 sec

Total number of grid points                  ...    41160
Total number of batches                      ...      659
Average number of points per batch           ...       62
Average number of grid points per atom       ...     1143
Average number of shells per batch           ...   155.12 (52.06%)
Average number of basis functions per batch  ...   395.02 (47.71%)
Average number of large shells per batch     ...   100.19 (64.59%)
Average number of large basis fcns per batch ...   255.74 (64.74%)
Maximum spatial batch extension              ...  23.03, 20.15, 20.17 au
Average spatial batch extension              ...   3.56,  3.39,  3.33 au

Time for grid setup =    1.305 sec

------------------------------
INITIAL GUESS: MODEL POTENTIAL
------------------------------
Loading Hartree-Fock densities                     ... done
Calculating cut-offs                               ... done
Setting up the integral package                    ... done
Initializing the effective Hamiltonian             ... done
Starting the Coulomb interaction                   ... done (   3.2 sec)
Reading the grid                                   ... done
Mapping shells                                     ... done
Starting the XC term evaluation                    ... done (   1.3 sec)
Transforming the Hamiltonian                       ... done (   0.1 sec)
Diagonalizing the Hamiltonian                      ... done (   0.1 sec)
Back transforming the eigenvectors                 ... done (   0.0 sec)
Now organizing SCF variables                       ... done
                      ------------------
                      INITIAL GUESS DONE (   7.0 sec)
                      ------------------
--------------
SCF ITERATIONS
--------------
ITER       Energy         Delta-E        Max-DP      RMS-DP      [F,P]     Damp
               ***  Starting incremental Fock matrix formation  ***
