
                                 *****************
                                 * O   R   C   A *
                                 *****************

           --- An Ab Initio, DFT and Semiempirical electronic structure package ---

                  #######################################################
                  #                        -***-                        #
                  #          Department of theory and spectroscopy      #
                  #               Directorship: Frank Neese             #
                  #        Max Planck Institute fuer Kohlenforschung    #
                  #                Kaiser Wilhelm Platz 1               #
                  #                 D-45470 Muelheim/Ruhr               #
                  #                      Germany                        #
                  #                                                     #
                  #                  All rights reserved                #
                  #                        -***-                        #
                  #######################################################


                         Program Version 4.2.0 -  RELEASE  -


 With contributions from (in alphabetic order):
   Daniel Aravena         : Magnetic Suceptibility
   Michael Atanasov       : Ab Initio Ligand Field Theory (pilot matlab implementation)
   Alexander A. Auer      : GIAO ZORA, VPT2
   Ute Becker             : Parallelization
   Giovanni Bistoni       : ED, misc. LED, open-shell LED, HFLED
   Martin Brehm           : Molecular dynamics
   Dmytro Bykov           : SCF Hessian
   Vijay G. Chilkuri      : MRCI spin determinant printing, contributions to CSF-ICE
   Dipayan Datta          : RHF DLPNO-CCSD density
   Achintya Kumar Dutta   : EOM-CC, STEOM-CC
   Dmitry Ganyushin       : Spin-Orbit,Spin-Spin,Magnetic field MRCI
   Miquel Garcia          : C-PCM Hessian, Gaussian charge scheme
   Yang Guo               : DLPNO-NEVPT2, CIM, IAO-localization
   Andreas Hansen         : Spin unrestricted coupled pair/coupled cluster methods
   Benjamin Helmich-Paris : CASSCF linear response (MC-RPA)
   Lee Huntington         : MR-EOM, pCC
   Robert Izsak           : Overlap fitted RIJCOSX, COSX-SCS-MP3, EOM
   Christian Kollmar      : KDIIS, OOCD, Brueckner-CCSD(T), CCSD density
   Simone Kossmann        : Meta GGA functionals, TD-DFT gradient, OOMP2, MP2 Hessian
   Martin Krupicka        : AUTO-CI
   Lucas Lang             : DCDCAS
   Dagmar Lenk            : GEPOL surface, SMD
   Dimitrios Liakos       : Extrapolation schemes; Compound Job, initial MDCI parallelization
   Dimitrios Manganas     : Further ROCIS development; embedding schemes
   Dimitrios Pantazis     : SARC Basis sets
   Taras Petrenko         : DFT Hessian,TD-DFT gradient, ASA, ECA, R-Raman, ABS, FL, XAS/XES, NRVS
   Peter Pinski           : DLPNO-MP2, DLPNO-MP2 Gradient
   Christoph Reimann      : Effective Core Potentials
   Marius Retegan         : Local ZFS, SOC
   Christoph Riplinger    : Optimizer, TS searches, QM/MM, DLPNO-CCSD(T), (RO)-DLPNO pert. Triples
   Tobias Risthaus        : Range-separated hybrids, TD-DFT gradient, RPA, STAB
   Michael Roemelt        : Original ROCIS implementation
   Masaaki Saitow         : Open-shell DLPNO-CCSD energy and density
   Barbara Sandhoefer     : DKH picture change effects
   Avijit Sen             : IP-ROCIS
   Kantharuban Sivalingam : CASSCF convergence, NEVPT2, FIC-MRCI
   Bernardo de Souza      : ESD, SOC TD-DFT
   Georgi Stoychev        : AutoAux, RI-MP2 NMR
   Willem Van den Heuvel  : Paramagnetic NMR
   Boris Wezisla          : Elementary symmetry handling
   Frank Wennmohs         : Technical directorship


 We gratefully acknowledge several colleagues who have allowed us to
 interface, adapt or use parts of their codes:
   Stefan Grimme, W. Hujo, H. Kruse,             : VdW corrections, initial TS optimization,
                  C. Bannwarth                     DFT functionals, gCP, sTDA/sTD-DF
   Ed Valeev, F. Pavosevic, A. Kumar             : LibInt (2-el integral package), F12 methods
   Garnet Chan, S. Sharma, J. Yang, R. Olivares  : DMRG
   Ulf Ekstrom                                   : XCFun DFT Library
   Mihaly Kallay                                 : mrcc  (arbitrary order and MRCC methods)
   Andreas Klamt, Michael Diedenhofen            : otool_cosmo (COSMO solvation model)
   Jiri Pittner, Ondrej Demel                    : Mk-CCSD
   Frank Weinhold                                : gennbo (NPA and NBO analysis)
   Christopher J. Cramer and Donald G. Truhlar   : smd solvation model
   Lars Goerigk                                  : TD-DFT with DH, B97 family of functionals
   V. Asgeirsson, H. Jonsson                     : NEB implementation
   FAccTs GmbH                                   : IRC, NEB, NEB-TS, Multilevel, MM, QM/MM, CI optimization
   S Lehtola, MJT Oliveira, MAL Marques          : LibXC Library


 Your calculation uses the libint2 library for the computation of 2-el integrals
 For citations please refer to: http://libint.valeyev.net

 Your ORCA version has been built with support for libXC version: 4.2.3
 For citations please refer to: https://tddft.org/programs/libxc/

 This ORCA versions uses:
   CBLAS   interface :  Fast vector & matrix operations
   LAPACKE interface :  Fast linear algebra routines
   SCALAPACK package :  Parallel linear algebra routines


----- Orbital basis set information -----
Your calculation utilizes the basis: cc-pVTZ 
       H, B-Ne : Obtained from the ccRepo (grant-hill.group.shef.ac.uk/ccrepo) Feb. 2017
                 T. H. Dunning, Jr., J. Chem. Phys. 90, 1007 (1989)
            He : Obtained from the ccRepo (grant-hill.group.shef.ac.uk/ccrepo) Feb. 2017
                 D. E. Woon, T. H. Dunning, Jr., J. Chem. Phys. 100, 2975 (1994)
  Li-Be, Na-Mg : Obtained from the ccRepo (grant-hill.group.shef.ac.uk/ccrepo) Feb. 2017
                 B. P. Prascher, D. E. Woon, K. A. Peterson, T. H. Dunning, Jr., A. K. Wilson, Theor. Chem. Acc. 128, 69 (2011)
         Al-Ar : Obtained from the ccRepo (grant-hill.group.shef.ac.uk/ccrepo) Feb. 2017
                 D. E. Woon, T. H. Dunning, Jr., J. Chem. Phys. 98, 1358 (1993)
            Ca : Obtained from the Peterson Research Group Website (tyr0.chem.wsu.edu/~kipeters) Feb. 2017
                 J. Koput, K. A. Peterson, J. Phys. Chem. 106, 9595 (2002)
         Sc-Zn : Obtained from the ccRepo (grant-hill.group.shef.ac.uk/ccrepo) Feb. 2017
                 N. B. Balabanov, K. A. Peterson, J. Chem. Phys. 123, 064107 (2005)
                 N. B. Balabanov, K. A. Peterson, J. Chem. Phys. 125, 074110 (2006)
         Ga-Kr : Obtained from the ccRepo (grant-hill.group.shef.ac.uk/ccrepo) Feb. 2017
                 A. K. Wilson, D. E. Woon, K. A. Peterson, T. H. Dunning, Jr., J. Chem. Phys. 110, 7667 (1999)
             Y : Obtained from the ccRepo (grant-hill.group.shef.ac.uk/ccrepo) Feb. 2017
                 K. A. Peterson, D. Figgen, M. Dolg, H. Stoll, J. Chem. Phys. 126, 124101 (2007)
        Ag, Au : Obtained from the Peterson Research Group Website (tyr0.chem.wsu.edu/~kipeters) Feb. 2017
                 K. A. Peterson, C. Puzzarini, Theor. Chem. Acc. 114, 283 (2005)

----- AuxC basis set information -----
Your calculation utilizes the auxiliary basis: cc-pVTZ/C 
  Obtained from the EMSL Basis Set Exchange (bse.pnl.gov) Feb. 2017
  H-He, B-F, Al-Ar, Ga-Kr : F. Weigend, A. Kohn, C. Hattig, J. Chem. Phys. 116, 3175 (2002)
             Li-Be, Na-Mg : C. Haettig, Phys. Chem. Chem. Phys. 7, 59 (2005)
                       Ne : C. Haettig, Phys. Chem. Chem. Phys. 7, 59 (2005)
                            F. Weigend, A. Kohn, C. Hattig, J. Chem. Phys. 116, 3175 (2002)
                    Sc-Zn : J. G. Hill, J. A. Platts, J. Chem. Phys. 128, 044104 (2008)

================================================================================
                                        WARNINGS
                       Please study these warnings very carefully!
================================================================================


WARNING: No MP2 level density has been requested!
         To caclulate MP2 level properties use
         %mp2 Density relaxed end
         or
         %mp2 Density unrelaxed end

WARNING: Post HF methods need fully converged wavefunctions
  ===> : Setting SCFConvForced true
         You can overwrite this default with %scf ConvForced false 


INFO   : the flag for use of LIBINT has been found!

================================================================================
                                       INPUT FILE
================================================================================
NAME = CONFS/Conf6.orca
|  1> ! ri-mp2 cc-pvtz cc-pvtz/c TightSCF NoKeepInts
|  2> 
|  3> %scf
|  4>   MaxCore 4096
|  5> end
|  6> *xyz  0  1
|  7>     C       14.9860396   14.4146889   16.7009566
|  8>     C       16.4689887   13.9880121   16.6137972
|  9>     O       17.4098803   15.0847339   16.4856182
| 10>     C       17.0493776   16.3992629   16.3615623
| 11>     O       16.2624336   16.7807381   15.5129737
| 12>     C       17.6835650   17.2835369   17.4005589
| 13>     C       17.4983136   18.6283129   17.4208843
| 14>     C       16.6687118   19.4551057   16.4617649
| 15>     N       18.1323608   19.4098955   18.3910578
| 16>     C       19.0294897   18.9414718   19.3128745
| 17>     S       19.7966635   19.9480466   20.3778894
| 18>     N       19.2642752   17.5905834   19.3069686
| 19>     C       18.5504516   16.6051545   18.4753348
| 20>     C       17.7438238   15.6723396   19.3740566
| 21>     C       18.2278943   14.3849013   19.6730709
| 22>     C       17.4869197   13.5142180   20.4897642
| 23>     C       16.2534754   13.9353715   21.0150912
| 24>     C       15.7736919   15.2206447   20.7283708
| 25>     O       14.5840386   15.6310010   21.2350536
| 26>     C       16.5137542   16.0854793   19.9165062
| 27>     H       14.8298126   15.1484574   17.5016156
| 28>     H       14.3564170   13.5438141   16.9188428
| 29>     H       14.6379427   14.8426713   15.7526290
| 30>     H       16.7207298   13.4116134   17.5128970
| 31>     H       16.5890492   13.3155347   15.7546827
| 32>     H       15.6165678   19.1445753   16.4960449
| 33>     H       17.0169481   19.3146219   15.4304631
| 34>     H       16.7042697   20.5291432   16.6784437
| 35>     H       17.9742539   20.4047540   18.4089056
| 36>     H       19.9023269   17.2713428   20.0243906
| 37>     H       19.3102749   16.0071495   17.9524790
| 38>     H       19.1799464   14.0557594   19.2649796
| 39>     H       17.8691179   12.5197746   20.7144638
| 40>     H       15.6774346   13.2667653   21.6465272
| 41>     H       14.2502432   14.9237410   21.8073573
| 42>     H       16.1275162   17.0787837   19.7151233
| 43> *
| 44> 
| 45>                          ****END OF INPUT****
================================================================================

                       ****************************
                       * Single Point Calculation *
                       ****************************

---------------------------------
CARTESIAN COORDINATES (ANGSTROEM)
---------------------------------
  C     14.986040   14.414689   16.700957
  C     16.468989   13.988012   16.613797
  O     17.409880   15.084734   16.485618
  C     17.049378   16.399263   16.361562
  O     16.262434   16.780738   15.512974
  C     17.683565   17.283537   17.400559
  C     17.498314   18.628313   17.420884
  C     16.668712   19.455106   16.461765
  N     18.132361   19.409896   18.391058
  C     19.029490   18.941472   19.312874
  S     19.796664   19.948047   20.377889
  N     19.264275   17.590583   19.306969
  C     18.550452   16.605155   18.475335
  C     17.743824   15.672340   19.374057
  C     18.227894   14.384901   19.673071
  C     17.486920   13.514218   20.489764
  C     16.253475   13.935372   21.015091
  C     15.773692   15.220645   20.728371
  O     14.584039   15.631001   21.235054
  C     16.513754   16.085479   19.916506
  H     14.829813   15.148457   17.501616
  H     14.356417   13.543814   16.918843
  H     14.637943   14.842671   15.752629
  H     16.720730   13.411613   17.512897
  H     16.589049   13.315535   15.754683
  H     15.616568   19.144575   16.496045
  H     17.016948   19.314622   15.430463
  H     16.704270   20.529143   16.678444
  H     17.974254   20.404754   18.408906
  H     19.902327   17.271343   20.024391
  H     19.310275   16.007150   17.952479
  H     19.179946   14.055759   19.264980
  H     17.869118   12.519775   20.714464
  H     15.677435   13.266765   21.646527
  H     14.250243   14.923741   21.807357
  H     16.127516   17.078784   19.715123

----------------------------
CARTESIAN COORDINATES (A.U.)
----------------------------
  NO LB      ZA    FRAG     MASS         X           Y           Z
   0 C     6.0000    0    12.011   28.319511   27.239814   31.560234
   1 C     6.0000    0    12.011   31.121878   26.433512   31.395527
   2 O     8.0000    0    15.999   32.899906   28.506016   31.153304
   3 C     6.0000    0    12.011   32.218654   30.990116   30.918872
   4 O     8.0000    0    15.999   30.731546   31.710999   29.315272
   5 C     6.0000    0    12.011   33.417095   32.661151   32.882291
   6 C     6.0000    0    12.011   33.067021   35.202410   32.920700
   7 C     6.0000    0    12.011   31.499300   36.764822   31.108227
   8 N     7.0000    0    14.007   34.265196   36.679387   34.754063
   9 C     6.0000    0    12.011   35.960524   35.794194   36.496044
  10 S    16.0000    0    32.060   37.410272   37.696345   38.508630
  11 N     7.0000    0    14.007   36.404204   33.241385   36.484883
  12 C     6.0000    0    12.011   35.055273   31.379194   34.913323
  13 C     6.0000    0    12.011   33.530968   29.616430   36.611661
  14 C     6.0000    0    12.011   34.445728   27.183524   37.176716
  15 C     6.0000    0    12.011   33.045489   25.538171   38.720043
  16 C     6.0000    0    12.011   30.714617   26.334036   39.712767
  17 C     6.0000    0    12.011   29.807958   28.762850   39.170944
  18 O     8.0000    0    15.999   27.559839   29.538311   40.128436
  19 C     6.0000    0    12.011   31.206473   30.397151   37.636742
  20 H     1.0000    0     1.008   28.024284   28.626436   33.073260
  21 H     1.0000    0     1.008   27.129696   25.594099   31.971979
  22 H     1.0000    0     1.008   27.661703   28.048584   29.768155
  23 H     1.0000    0     1.008   31.597600   25.344276   33.094579
  24 H     1.0000    0     1.008   31.348760   25.162714   29.772036
  25 H     1.0000    0     1.008   29.511036   36.178004   31.173007
  26 H     1.0000    0     1.008   32.157372   36.499346   29.159349
  27 H     1.0000    0     1.008   31.566495   38.794458   31.517691
  28 H     1.0000    0     1.008   33.966417   38.559397   34.787790
  29 H     1.0000    0     1.008   37.609947   32.638108   37.840614
  30 H     1.0000    0     1.008   36.491131   30.249129   33.925269
  31 H     1.0000    0     1.008   36.244846   26.561536   36.405535
  32 H     1.0000    0     1.008   33.767739   23.658945   39.144664
  33 H     1.0000    0     1.008   29.626058   25.070553   40.906008
  34 H     1.0000    0     1.008   26.929057   28.201783   41.209933
  35 H     1.0000    0     1.008   30.476589   32.274224   37.256184

--------------------------------
INTERNAL COORDINATES (ANGSTROEM)
--------------------------------
 C      0   0   0     0.000000000000     0.00000000     0.00000000
 C      1   0   0     1.545570407926     0.00000000     0.00000000
 O      2   1   0     1.450691409496   114.74506097     0.00000000
 C      3   2   1     1.368699585327   124.28130773   355.92435718
 O      4   3   2     1.218567519426   122.26777588   307.09148593
 C      4   3   2     1.504542488668   113.00798887   125.02845164
 C      6   4   3     1.357627965705   122.34353218   177.33358434
 C      7   6   4     1.513847913151   127.32062904     0.00000000
 N      7   6   4     1.397899793459   120.15352763   181.33742871
 C      9   7   6     1.368943773256   124.97843825     4.56562610
 S     10   9   7     1.654087423513   121.95748320   176.71565124
 N     10   9   7     1.371152281812   116.51534952   356.88732969
 C     12  10   9     1.473848372857   125.32588923   354.51749344
 C     13  12  10     1.525940011662   109.41549111   245.67098893
 C     14  13  12     1.407562139616   120.16276766   258.82096975
 C     15  14  13     1.405034061156   120.59167733   180.57544804
 C     16  15  14     1.405248578969   119.63474465   359.81846841
 C     17  16  15     1.401544859534   119.92283967   359.65511011
 O     18  17  16     1.356611487113   120.07810452   180.07221502
 C     18  17  16     1.398125610227   120.32090664     0.28195157
 H      1   2   3     1.097213708173   111.24686764   306.24415673
 H      1   2   3     1.096504414882   110.05314910   186.93084538
 H      1   2   3     1.097116959773   111.30760604    67.95241957
 H      2   1   3     1.097264550212   108.59883152   121.85125445
 H      2   1   3     1.097596511147   108.55608076   237.99631571
 H      8   7   6     1.097547832425   110.55011035    60.93110565
 H      8   7   6     1.097537070619   110.58182910   302.25085390
 H      8   7   6     1.096252989975   113.08422272   181.62903564
 H      9   7   6     1.007501747301   119.55187931   181.19298063
 H     12  10   9     1.011789928120   114.56879069   182.41145289
 H     13  12  10     1.099235923195   107.29840812   128.45595388
 H     15  14  13     1.086865263308   119.89928257     0.17592560
 H     16  15  14     1.088798902519   120.05437608   179.92653368
 H     17  16  15     1.085158364498   119.92107626   180.01079446
 H     19  18  17     0.969106599758   107.56903133     3.49108433
 H     20  18  17     1.084614445836   119.06572639   180.54724784

---------------------------
INTERNAL COORDINATES (A.U.)
---------------------------
 C      0   0   0     0.000000000000     0.00000000     0.00000000
 C      1   0   0     2.920704791674     0.00000000     0.00000000
 O      2   1   0     2.741409468780   114.74506097     0.00000000
 C      3   2   1     2.586467375879   124.28130773   355.92435718
 O      4   3   2     2.302758887408   122.26777588   307.09148593
 C      4   3   2     2.843173260430   113.00798887   125.02845164
 C      6   4   3     2.565545046934   122.34353218   177.33358434
 C      7   6   4     2.860757964263   127.32062904     0.00000000
 N      7   6   4     2.641647772303   120.15352763   181.33742871
 C      9   7   6     2.586928824190   124.97843825     4.56562610
 S     10   9   7     3.125772232003   121.95748320   176.71565124
 N     10   9   7     2.591102300527   116.51534952   356.88732969
 C     12  10   9     2.785169787626   125.32588923   354.51749344
 C     13  12  10     2.883608718833   109.41549111   245.67098893
 C     14  13  12     2.659906960351   120.16276766   258.82096975
 C     15  14  13     2.655129584416   120.59167733   180.57544804
 C     16  15  14     2.655534964333   119.63474465   359.81846841
 C     17  16  15     2.648535948925   119.92283967   359.65511011
 O     18  17  16     2.563624180775   120.07810452   180.07221502
 C     18  17  16     2.642074504150   120.32090664     0.28195157
 H      1   2   3     2.073433418831   111.24686764   306.24415673
 H      1   2   3     2.072093048763   110.05314910   186.93084538
 H      1   2   3     2.073250590851   111.30760604    67.95241957
 H      2   1   3     2.073529496360   108.59883152   121.85125445
 H      2   1   3     2.074156811615   108.55608076   237.99631571
 H      8   7   6     2.074064822162   110.55011035    60.93110565
 H      8   7   6     2.074044485296   110.58182910   302.25085390
 H      8   7   6     2.071617924544   113.08422272   181.62903564
 H      9   7   6     1.903902381846   119.55187931   181.19298063
 H     12  10   9     1.912005869207   114.56879069   182.41145289
 H     13  12  10     2.077254851406   107.29840812   128.45595388
 H     15  14  13     2.053877692124   119.89928257     0.17592560
 H     16  15  14     2.057531740675   120.05437608   179.92653368
 H     17  16  15     2.050652120834   119.92107626   180.01079446
 H     19  18  17     1.831346068119   107.56903133     3.49108433
 H     20  18  17     2.049624263524   119.06572639   180.54724784

---------------------
BASIS SET INFORMATION
---------------------
There are 5 groups of distinct atoms

 Group   1 Type C   : 18s5p2d1f contracted to 4s3p2d1f pattern {8811/311/11/1}
 Group   2 Type O   : 18s5p2d1f contracted to 4s3p2d1f pattern {8811/311/11/1}
 Group   3 Type N   : 18s5p2d1f contracted to 4s3p2d1f pattern {8811/311/11/1}
 Group   4 Type S   : 41s16p2d1f contracted to 5s4p2d1f pattern {13131311/7711/11/1}
 Group   5 Type H   : 5s2p1d contracted to 3s2p1d pattern {311/11/1}

Atom   0C    basis set group =>   1
Atom   1C    basis set group =>   1
Atom   2O    basis set group =>   2
Atom   3C    basis set group =>   1
Atom   4O    basis set group =>   2
Atom   5C    basis set group =>   1
Atom   6C    basis set group =>   1
Atom   7C    basis set group =>   1
Atom   8N    basis set group =>   3
Atom   9C    basis set group =>   1
Atom  10S    basis set group =>   4
Atom  11N    basis set group =>   3
Atom  12C    basis set group =>   1
Atom  13C    basis set group =>   1
Atom  14C    basis set group =>   1
Atom  15C    basis set group =>   1
Atom  16C    basis set group =>   1
Atom  17C    basis set group =>   1
Atom  18O    basis set group =>   2
Atom  19C    basis set group =>   1
Atom  20H    basis set group =>   5
Atom  21H    basis set group =>   5
Atom  22H    basis set group =>   5
Atom  23H    basis set group =>   5
Atom  24H    basis set group =>   5
Atom  25H    basis set group =>   5
Atom  26H    basis set group =>   5
Atom  27H    basis set group =>   5
Atom  28H    basis set group =>   5
Atom  29H    basis set group =>   5
Atom  30H    basis set group =>   5
Atom  31H    basis set group =>   5
Atom  32H    basis set group =>   5
Atom  33H    basis set group =>   5
Atom  34H    basis set group =>   5
Atom  35H    basis set group =>   5
---------------------------------
AUXILIARY/C BASIS SET INFORMATION
---------------------------------
There are 5 groups of distinct atoms

 Group   1 Type C   : 8s6p5d3f1g contracted to 8s6p5d3f1g pattern {11111111/111111/11111/111/1}
 Group   2 Type O   : 8s6p5d3f1g contracted to 8s6p5d3f1g pattern {11111111/111111/11111/111/1}
 Group   3 Type N   : 8s6p5d3f1g contracted to 8s6p5d3f1g pattern {11111111/111111/11111/111/1}
 Group   4 Type S   : 10s8p7d5f2g contracted to 10s8p7d5f2g pattern {1111111111/11111111/1111111/11111/11}
 Group   5 Type H   : 4s3p2d1f contracted to 4s3p2d1f pattern {1111/111/11/1}

Atom   0C    basis set group =>   1
Atom   1C    basis set group =>   1
Atom   2O    basis set group =>   2
Atom   3C    basis set group =>   1
Atom   4O    basis set group =>   2
Atom   5C    basis set group =>   1
Atom   6C    basis set group =>   1
Atom   7C    basis set group =>   1
Atom   8N    basis set group =>   3
Atom   9C    basis set group =>   1
Atom  10S    basis set group =>   4
Atom  11N    basis set group =>   3
Atom  12C    basis set group =>   1
Atom  13C    basis set group =>   1
Atom  14C    basis set group =>   1
Atom  15C    basis set group =>   1
Atom  16C    basis set group =>   1
Atom  17C    basis set group =>   1
Atom  18O    basis set group =>   2
Atom  19C    basis set group =>   1
Atom  20H    basis set group =>   5
Atom  21H    basis set group =>   5
Atom  22H    basis set group =>   5
Atom  23H    basis set group =>   5
Atom  24H    basis set group =>   5
Atom  25H    basis set group =>   5
Atom  26H    basis set group =>   5
Atom  27H    basis set group =>   5
Atom  28H    basis set group =>   5
Atom  29H    basis set group =>   5
Atom  30H    basis set group =>   5
Atom  31H    basis set group =>   5
Atom  32H    basis set group =>   5
Atom  33H    basis set group =>   5
Atom  34H    basis set group =>   5
Atom  35H    basis set group =>   5
------------------------------------------------------------------------------
                           ORCA GTO INTEGRAL CALCULATION
------------------------------------------------------------------------------

                         BASIS SET STATISTICS AND STARTUP INFO

 # of primitive gaussian shells          ...  682
 # of primitive gaussian functions       ... 1312
 # of contracted shells                  ...  298
 # of contracted basis functions         ...  828
 Highest angular momentum                ...    3
 Maximum contraction depth               ...   13
 Integral package used                   ... LIBINT
 Integral threshhold            Thresh   ...  2.500e-11
 Primitive cut-off              TCut     ...  2.500e-12


------------------------------ INTEGRAL EVALUATION ----------------------------


 * One electron integrals 
 Pre-screening matrix                    ... done
 Shell pair data                         ... done (   0.014 sec)

-------------------------------------------------------------------------------
                                 ORCA SCF
-------------------------------------------------------------------------------

------------
SCF SETTINGS
------------
Hamiltonian:
 Ab initio Hamiltonian  Method          .... Hartree-Fock(GTOs)


General Settings:
 Integral files         IntName         .... CONFS/Conf6.orca
 Hartree-Fock type      HFTyp           .... RHF
 Total Charge           Charge          ....    0
 Multiplicity           Mult            ....    1
 Number of Electrons    NEL             ....  154
 Basis Dimension        Dim             ....  828
 Nuclear Repulsion      ENuc            ....   1724.3459706464 Eh

Convergence Acceleration:
 DIIS                   CNVDIIS         .... on
   Start iteration      DIISMaxIt       ....    12
   Startup error        DIISStart       ....  0.200000
   # of expansion vecs  DIISMaxEq       ....     5
   Bias factor          DIISBfac        ....   1.050
   Max. coefficient     DIISMaxC        ....  10.000
 Newton-Raphson         CNVNR           .... off
 SOSCF                  CNVSOSCF        .... on
   Start iteration      SOSCFMaxIt      ....   150
   Startup grad/error   SOSCFStart      ....  0.003300
 Level Shifting         CNVShift        .... on
   Level shift para.    LevelShift      ....    0.2500
   Turn off err/grad.   ShiftErr        ....    0.0010
 Zerner damping         CNVZerner       .... off
 Static damping         CNVDamp         .... on
   Fraction old density DampFac         ....    0.7000
   Max. Damping (<1)    DampMax         ....    0.9800
   Min. Damping (>=0)   DampMin         ....    0.0000
   Turn off err/grad.   DampErr         ....    0.1000
 Fernandez-Rico         CNVRico         .... off

SCF Procedure:
 Maximum # iterations   MaxIter         ....   125
 SCF integral mode      SCFMode         .... Direct
   Integral package                     .... LIBINT
 Reset frequency        DirectResetFreq ....    20
 Integral Threshold     Thresh          ....  2.500e-11 Eh
 Primitive CutOff       TCut            ....  2.500e-12 Eh

Convergence Tolerance:
 Convergence Check Mode ConvCheckMode   .... Total+1el-Energy
 Convergence forced     ConvForced      .... 1
 Energy Change          TolE            ....  1.000e-08 Eh
 1-El. energy change                    ....  1.000e-05 Eh
 Orbital Gradient       TolG            ....  1.000e-05
 Orbital Rotation angle TolX            ....  1.000e-05
 DIIS Error             TolErr          ....  5.000e-07


Diagonalization of the overlap matrix:
Smallest eigenvalue                        ... 3.218e-05
Time for diagonalization                   ...    0.117 sec
Threshold for overlap eigenvalues          ... 1.000e-08
Number of eigenvalues below threshold      ... 0
Time for construction of square roots      ...    0.061 sec
Total time needed                          ...    0.180 sec

-------------------
DFT GRID GENERATION
-------------------

General Integration Accuracy     IntAcc      ...  4.340
Radial Grid Type                 RadialGrid  ... Gauss-Chebyshev
Angular Grid (max. acc.)         AngularGrid ... Lebedev-110
Angular grid pruning method      GridPruning ... 3 (G Style)
Weight generation scheme         WeightScheme... Becke
Basis function cutoff            BFCut       ...    1.0000e-11
Integration weight cutoff        WCut        ...    1.0000e-14
Grids for H and He will be reduced by one unit

# of grid points (after initial pruning)     ...  46246 (   0.0 sec)
# of grid points (after weights+screening)   ...  41156 (   0.3 sec)
nearest neighbour list constructed           ...    0.0 sec
Grid point re-assignment to atoms done       ...    0.0 sec
Grid point division into batches done        ...    0.0 sec
Reduced shell lists constructed in    1.1 sec

Total number of grid points                  ...    41156
Total number of batches                      ...      664
Average number of points per batch           ...       61
Average number of grid points per atom       ...     1143
Average number of shells per batch           ...   152.83 (51.29%)
Average number of basis functions per batch  ...   388.99 (46.98%)
Average number of large shells per batch     ...    97.92 (64.07%)
Average number of large basis fcns per batch ...   250.71 (64.45%)
Maximum spatial batch extension              ...  22.67, 20.37, 20.58 au
Average spatial batch extension              ...   3.47,  3.39,  3.50 au

Time for grid setup =    1.422 sec

------------------------------
INITIAL GUESS: MODEL POTENTIAL
------------------------------
Loading Hartree-Fock densities                     ... done
Calculating cut-offs                               ... done
Setting up the integral package                    ... done
Initializing the effective Hamiltonian             ... done
Starting the Coulomb interaction                   ... done (   3.2 sec)
Reading the grid                                   ... done
Mapping shells                                     ... done
Starting the XC term evaluation                    ... done (   1.3 sec)
Transforming the Hamiltonian                       ... done (   0.1 sec)
Diagonalizing the Hamiltonian                      ... done (   0.1 sec)
Back transforming the eigenvectors                 ... done (   0.0 sec)
Now organizing SCF variables                       ... done
                      ------------------
                      INITIAL GUESS DONE (   6.4 sec)
                      ------------------
--------------
SCF ITERATIONS
--------------
ITER       Energy         Delta-E        Max-DP      RMS-DP      [F,P]     Damp
               ***  Starting incremental Fock matrix formation  ***
  0  -1270.0116511652   0.000000000000 0.04931471  0.00043136  0.3016347 0.7000
  1  -1270.2772755906  -0.265624425395 0.03607872  0.00034657  0.1771080 0.7000
                               ***Turning on DIIS***
  2  -1270.4430191938  -0.165743603207 0.02583495  0.00023225  0.1096172 0.7000
  3  -1272.5836995378  -2.140680343972 0.06312711  0.00050468  0.0828566 0.0000
  4  -1270.7513730218   1.832326515976 0.00788293  0.00009604  0.0069039 0.0000
  5  -1270.8078136311  -0.056440609284 0.00420506  0.00005112  0.0048672 0.0000
                      *** Initiating the SOSCF procedure ***
                           *** Shutting down DIIS ***
                      *** Re-Reading the Fockian *** 
                      *** Removing any level shift *** 
ITER      Energy       Delta-E        Grad      Rot      Max-DP    RMS-DP
  6  -1270.78850962   0.0193040158  0.001722  0.001722  0.001868  0.000026
               *** Restarting incremental Fock matrix formation ***
  7  -1270.80346743  -0.0149578184  0.001016  0.002599  0.001235  0.000016
  8  -1270.80351465  -0.0000472157  0.000442  0.002965  0.001385  0.000017
  9  -1270.80353258  -0.0000179333  0.000149  0.000303  0.000353  0.000004
 10  -1270.80353491  -0.0000023238  0.000048  0.000141  0.000122  0.000001
 11  -1270.80353514  -0.0000002372  0.000026  0.000132  0.000061  0.000001
 12  -1270.80353522  -0.0000000734  0.000010  0.000042  0.000036  0.000000
 13  -1270.80353522  -0.0000000032  0.000003  0.000010  0.000007  0.000000
                  ***Gradient check signals convergence***
              ***Rediagonalizing the Fockian in SOSCF/NRSCF***

               *****************************************************
               *                     SUCCESS                       *
               *           SCF CONVERGED AFTER  14 CYCLES          *
               *****************************************************


----------------
TOTAL SCF ENERGY
----------------

Total Energy       :        -1270.80353521 Eh          -34580.32222 eV

Components:
Nuclear Repulsion  :         1724.34597065 Eh           46921.83932 eV
Electronic Energy  :        -2995.14950586 Eh          -81502.16154 eV
One Electron Energy:        -5169.84510900 Eh         -140678.63738 eV
Two Electron Energy:         2174.69560315 Eh           59176.47584 eV

Virial components:
Potential Energy   :        -2539.73571584 Eh          -69109.72230 eV
Kinetic Energy     :         1268.93218063 Eh           34529.40008 eV
Virial Ratio       :            2.00147475


---------------
SCF CONVERGENCE
---------------

  Last Energy change         ...    1.0204e-08  Tolerance :   1.0000e-08
  Last MAX-Density change    ...    1.7520e-06  Tolerance :   1.0000e-07
  Last RMS-Density change    ...    2.9142e-08  Tolerance :   5.0000e-09
  Last Orbital Gradient      ...    1.1994e-06  Tolerance :   1.0000e-05
  Last Orbital Rotation      ...    2.8482e-06  Tolerance :   1.0000e-05

             **** THE GBW FILE WAS UPDATED (CONFS/Conf6.orca.gbw) ****
             **** DENSITY FILE WAS UPDATED (CONFS/Conf6.orca.scfp) ****
             **** ENERGY FILE WAS UPDATED (CONFS/Conf6.orca.en.tmp) ****
             **** THE GBW FILE WAS UPDATED (CONFS/Conf6.orca.gbw) ****
             **** DENSITY FILE WAS UPDATED (CONFS/Conf6.orca.scfp) ****
----------------
ORBITAL ENERGIES
----------------

  NO   OCC          E(Eh)            E(eV) 
   0   2.0000     -91.889306     -2500.4351 
   1   2.0000     -20.601331      -560.5907 
   2   2.0000     -20.587273      -560.2082 
   3   2.0000     -20.542194      -558.9815 
   4   2.0000     -15.629458      -425.2992 
   5   2.0000     -15.608902      -424.7398 
   6   2.0000     -11.393961      -310.0454 
   7   2.0000     -11.384468      -309.7871 
   8   2.0000     -11.336299      -308.4764 
   9   2.0000     -11.318731      -307.9983 
  10   2.0000     -11.309906      -307.7582 
  11   2.0000     -11.298353      -307.4438 
  12   2.0000     -11.264117      -306.5122 
  13   2.0000     -11.260267      -306.4074 
  14   2.0000     -11.258088      -306.3482 
  15   2.0000     -11.252388      -306.1931 
  16   2.0000     -11.247613      -306.0631 
  17   2.0000     -11.242417      -305.9217 
  18   2.0000     -11.242303      -305.9186 
  19   2.0000     -11.223061      -305.3950 
  20   2.0000      -8.894371      -242.0281 
  21   2.0000      -6.575946      -178.9406 
  22   2.0000      -6.573940      -178.8860 
  23   2.0000      -6.573355      -178.8701 
  24   2.0000      -1.441443       -39.2237 
  25   2.0000      -1.420962       -38.6663 
  26   2.0000      -1.350494       -36.7488 
  27   2.0000      -1.340602       -36.4796 
  28   2.0000      -1.239413       -33.7261 
  29   2.0000      -1.161681       -31.6110 
  30   2.0000      -1.120882       -30.5007 
  31   2.0000      -1.045365       -28.4458 
  32   2.0000      -1.032055       -28.0836 
  33   2.0000      -1.019896       -27.7528 
  34   2.0000      -0.996975       -27.1291 
  35   2.0000      -0.985078       -26.8053 
  36   2.0000      -0.924279       -25.1509 
  37   2.0000      -0.896004       -24.3815 
  38   2.0000      -0.848565       -23.0906 
  39   2.0000      -0.841377       -22.8950 
  40   2.0000      -0.837946       -22.8017 
  41   2.0000      -0.818890       -22.2831 
  42   2.0000      -0.744077       -20.2474 
  43   2.0000      -0.733954       -19.9719 
  44   2.0000      -0.719236       -19.5714 
  45   2.0000      -0.699717       -19.0403 
  46   2.0000      -0.689213       -18.7544 
  47   2.0000      -0.673631       -18.3304 
  48   2.0000      -0.670849       -18.2547 
  49   2.0000      -0.659348       -17.9418 
  50   2.0000      -0.653524       -17.7833 
  51   2.0000      -0.643972       -17.5234 
  52   2.0000      -0.637667       -17.3518 
  53   2.0000      -0.618920       -16.8417 
  54   2.0000      -0.611743       -16.6464 
  55   2.0000      -0.603693       -16.4273 
  56   2.0000      -0.600725       -16.3465 
  57   2.0000      -0.580991       -15.8096 
  58   2.0000      -0.571506       -15.5515 
  59   2.0000      -0.567294       -15.4368 
  60   2.0000      -0.551049       -14.9948 
  61   2.0000      -0.540712       -14.7135 
  62   2.0000      -0.534513       -14.5448 
  63   2.0000      -0.529003       -14.3949 
  64   2.0000      -0.521693       -14.1960 
  65   2.0000      -0.514624       -14.0036 
  66   2.0000      -0.503247       -13.6940 
  67   2.0000      -0.493881       -13.4392 
  68   2.0000      -0.489238       -13.3128 
  69   2.0000      -0.463293       -12.6068 
  70   2.0000      -0.454228       -12.3602 
  71   2.0000      -0.440974       -11.9995 
  72   2.0000      -0.354783        -9.6541 
  73   2.0000      -0.353206        -9.6112 
  74   2.0000      -0.329653        -8.9703 
  75   2.0000      -0.325672        -8.8620 
  76   2.0000      -0.317165        -8.6305 
  77   0.0000       0.074388         2.0242 
  78   0.0000       0.100817         2.7434 
  79   0.0000       0.122355         3.3294 
  80   0.0000       0.130475         3.5504 
  81   0.0000       0.133427         3.6307 
  82   0.0000       0.140556         3.8247 
  83   0.0000       0.150107         4.0846 
  84   0.0000       0.157391         4.2828 
  85   0.0000       0.161431         4.3928 
  86   0.0000       0.167023         4.5449 
  87   0.0000       0.181700         4.9443 
  88   0.0000       0.192480         5.2376 
  89   0.0000       0.196670         5.3517 
  90   0.0000       0.198731         5.4077 
  91   0.0000       0.206603         5.6220 
  92   0.0000       0.218076         5.9342 
  93   0.0000       0.224276         6.1029 
  94   0.0000       0.231201         6.2913 
  95   0.0000       0.238789         6.4978 
  96   0.0000       0.246263         6.7012 
  97   0.0000       0.254255         6.9186 
  98   0.0000       0.265525         7.2253 
  99   0.0000       0.277882         7.5616 
 100   0.0000       0.293331         7.9819 
 101   0.0000       0.304753         8.2928 
 102   0.0000       0.313132         8.5207 
 103   0.0000       0.318293         8.6612 
 104   0.0000       0.330162         8.9842 
 105   0.0000       0.333725         9.0811 
 106   0.0000       0.343275         9.3410 
 107   0.0000       0.345560         9.4032 
 108   0.0000       0.363931         9.9031 
 109   0.0000       0.366555         9.9745 
 110   0.0000       0.371576        10.1111 
 111   0.0000       0.374904        10.2017 
 112   0.0000       0.379265        10.3203 
 113   0.0000       0.388721        10.5776 
 114   0.0000       0.392934        10.6923 
 115   0.0000       0.403804        10.9881 
 116   0.0000       0.418227        11.3805 
 117   0.0000       0.427063        11.6210 
 118   0.0000       0.432733        11.7753 
 119   0.0000       0.435487        11.8502 
 120   0.0000       0.447579        12.1792 
 121   0.0000       0.451545        12.2872 
 122   0.0000       0.456547        12.4233 
 123   0.0000       0.461722        12.5641 
 124   0.0000       0.465183        12.6583 
 125   0.0000       0.470790        12.8108 
 126   0.0000       0.480156        13.0657 
 127   0.0000       0.483811        13.1652 
 128   0.0000       0.491012        13.3611 
 129   0.0000       0.497991        13.5510 
 130   0.0000       0.506021        13.7695 
 131   0.0000       0.510415        13.8891 
 132   0.0000       0.511594        13.9212 
 133   0.0000       0.515446        14.0260 
 134   0.0000       0.529703        14.4139 
 135   0.0000       0.530559        14.4373 
 136   0.0000       0.538937        14.6652 
 137   0.0000       0.541444        14.7334 
 138   0.0000       0.544636        14.8203 
 139   0.0000       0.550856        14.9896 
 140   0.0000       0.560469        15.2511 
 141   0.0000       0.561924        15.2907 
 142   0.0000       0.568968        15.4824 
 143   0.0000       0.572596        15.5811 
 144   0.0000       0.579491        15.7688 
 145   0.0000       0.582513        15.8510 
 146   0.0000       0.586503        15.9596 
 147   0.0000       0.593520        16.1505 
 148   0.0000       0.597959        16.2713 
 149   0.0000       0.601299        16.3622 
 150   0.0000       0.602619        16.3981 
 151   0.0000       0.607108        16.5203 
 152   0.0000       0.613224        16.6867 
 153   0.0000       0.615278        16.7426 
 154   0.0000       0.620057        16.8726 
 155   0.0000       0.625104        17.0099 
 156   0.0000       0.631009        17.1706 
 157   0.0000       0.636899        17.3309 
 158   0.0000       0.639517        17.4021 
 159   0.0000       0.644850        17.5472 
 160   0.0000       0.650865        17.7109 
 161   0.0000       0.657526        17.8922 
 162   0.0000       0.658633        17.9223 
 163   0.0000       0.668894        18.2015 
 164   0.0000       0.675837        18.3905 
 165   0.0000       0.677451        18.4344 
 166   0.0000       0.680345        18.5131 
 167   0.0000       0.681004        18.5310 
 168   0.0000       0.690826        18.7983 
 169   0.0000       0.700002        19.0480 
 170   0.0000       0.706754        19.2318 
 171   0.0000       0.712643        19.3920 
 172   0.0000       0.721386        19.6299 
 173   0.0000       0.722319        19.6553 
 174   0.0000       0.728428        19.8215 
 175   0.0000       0.737125        20.0582 
 176   0.0000       0.744316        20.2539 
 177   0.0000       0.748608        20.3707 
 178   0.0000       0.751269        20.4431 
 179   0.0000       0.764966        20.8158 
 180   0.0000       0.771802        21.0018 
 181   0.0000       0.777135        21.1469 
 182   0.0000       0.780132        21.2285 
 183   0.0000       0.787933        21.4407 
 184   0.0000       0.798380        21.7250 
 185   0.0000       0.810328        22.0501 
 186   0.0000       0.812620        22.1125 
 187   0.0000       0.823669        22.4132 
 188   0.0000       0.829145        22.5622 
 189   0.0000       0.838299        22.8113 
 190   0.0000       0.841028        22.8855 
 191   0.0000       0.845514        23.0076 
 192   0.0000       0.856062        23.2946 
 193   0.0000       0.864602        23.5270 
 194   0.0000       0.875951        23.8358 
 195   0.0000       0.878900        23.9161 
 196   0.0000       0.887363        24.1464 
 197   0.0000       0.897039        24.4097 
 198   0.0000       0.899052        24.4644 
 199   0.0000       0.908560        24.7232 
 200   0.0000       0.915503        24.9121 
 201   0.0000       0.923620        25.1330 
 202   0.0000       0.926478        25.2107 
 203   0.0000       0.934307        25.4238 
 204   0.0000       0.937846        25.5201 
 205   0.0000       0.948382        25.8068 
 206   0.0000       0.959582        26.1115 
 207   0.0000       0.965120        26.2623 
 208   0.0000       0.972464        26.4621 
 209   0.0000       0.975008        26.5313 
 210   0.0000       0.980398        26.6780 
 211   0.0000       0.990644        26.9568 
 212   0.0000       0.992270        27.0010 
 213   0.0000       1.009179        27.4612 
 214   0.0000       1.014714        27.6118 
 215   0.0000       1.020869        27.7792 
 216   0.0000       1.028576        27.9890 
 217   0.0000       1.036720        28.2106 
 218   0.0000       1.040924        28.3250 
 219   0.0000       1.042781        28.3755 
 220   0.0000       1.053095        28.6562 
 221   0.0000       1.055328        28.7169 
 222   0.0000       1.060784        28.8654 
 223   0.0000       1.080439        29.4002 
 224   0.0000       1.082619        29.4596 
 225   0.0000       1.092095        29.7174 
 226   0.0000       1.108671        30.1685 
 227   0.0000       1.111711        30.2512 
 228   0.0000       1.117261        30.4022 
 229   0.0000       1.126173        30.6447 
 230   0.0000       1.129394        30.7324 
 231   0.0000       1.134609        30.8743 
 232   0.0000       1.137815        30.9615 
 233   0.0000       1.151932        31.3457 
 234   0.0000       1.156278        31.4639 
 235   0.0000       1.166157        31.7327 
 236   0.0000       1.172909        31.9165 
 237   0.0000       1.176558        32.0158 
 238   0.0000       1.181619        32.1535 
 239   0.0000       1.188991        32.3541 
 240   0.0000       1.196620        32.5617 
 241   0.0000       1.206396        32.8277 
 242   0.0000       1.209381        32.9089 
 243   0.0000       1.213740        33.0275 
 244   0.0000       1.220869        33.2215 
 245   0.0000       1.231996        33.5243 
 246   0.0000       1.234375        33.5891 
 247   0.0000       1.238160        33.6920 
 248   0.0000       1.253559        34.1111 
 249   0.0000       1.267529        34.4912 
 250   0.0000       1.276222        34.7278 
 251   0.0000       1.280005        34.8307 
 252   0.0000       1.283245        34.9189 
 253   0.0000       1.289244        35.0821 
 254   0.0000       1.295103        35.2415 
 255   0.0000       1.313070        35.7305 
 256   0.0000       1.320237        35.9255 
 257   0.0000       1.335082        36.3294 
 258   0.0000       1.341216        36.4963 
 259   0.0000       1.346704        36.6457 
 260   0.0000       1.350681        36.7539 
 261   0.0000       1.358248        36.9598 
 262   0.0000       1.365926        37.1687 
 263   0.0000       1.368353        37.2348 
 264   0.0000       1.382517        37.6202 
 265   0.0000       1.396336        37.9962 
 266   0.0000       1.397706        38.0335 
 267   0.0000       1.398975        38.0680 
 268   0.0000       1.411791        38.4168 
 269   0.0000       1.419772        38.6340 
 270   0.0000       1.426875        38.8272 
 271   0.0000       1.436947        39.1013 
 272   0.0000       1.440539        39.1991 
 273   0.0000       1.449370        39.4394 
 274   0.0000       1.455724        39.6123 
 275   0.0000       1.467855        39.9424 
 276   0.0000       1.470973        40.0272 
 277   0.0000       1.477231        40.1975 
 278   0.0000       1.483572        40.3700 
 279   0.0000       1.491898        40.5966 
 280   0.0000       1.497352        40.7450 
 281   0.0000       1.503400        40.9096 
 282   0.0000       1.504960        40.9520 
 283   0.0000       1.513511        41.1847 
 284   0.0000       1.520943        41.3870 
 285   0.0000       1.524622        41.4871 
 286   0.0000       1.531426        41.6722 
 287   0.0000       1.538174        41.8558 
 288   0.0000       1.543863        42.0106 
 289   0.0000       1.555075        42.3157 
 290   0.0000       1.560073        42.4517 
 291   0.0000       1.563545        42.5462 
 292   0.0000       1.570409        42.7330 
 293   0.0000       1.572383        42.7867 
 294   0.0000       1.587836        43.2072 
 295   0.0000       1.597475        43.4695 
 296   0.0000       1.597999        43.4838 
 297   0.0000       1.605972        43.7007 
 298   0.0000       1.614786        43.9406 
 299   0.0000       1.625710        44.2378 
 300   0.0000       1.639448        44.6116 
 301   0.0000       1.648983        44.8711 
 302   0.0000       1.656086        45.0644 
 303   0.0000       1.669475        45.4287 
 304   0.0000       1.673035        45.5256 
 305   0.0000       1.681511        45.7562 
 306   0.0000       1.695213        46.1291 
 307   0.0000       1.699562        46.2474 
 308   0.0000       1.703623        46.3579 
 309   0.0000       1.710814        46.5536 
 310   0.0000       1.731506        47.1167 
 311   0.0000       1.738404        47.3044 
 312   0.0000       1.743862        47.4529 
 313   0.0000       1.753892        47.7258 
 314   0.0000       1.760104        47.8949 
 315   0.0000       1.765112        48.0311 
 316   0.0000       1.784217        48.5510 
 317   0.0000       1.795424        48.8560 
 318   0.0000       1.813120        49.3375 
 319   0.0000       1.817692        49.4619 
 320   0.0000       1.819978        49.5241 
 321   0.0000       1.828945        49.7681 
 322   0.0000       1.838580        50.0303 
 323   0.0000       1.850367        50.3510 
 324   0.0000       1.858130        50.5623 
 325   0.0000       1.863245        50.7015 
 326   0.0000       1.884310        51.2747 
 327   0.0000       1.900381        51.7120 
 328   0.0000       1.909405        51.9576 
 329   0.0000       1.924061        52.3564 
 330   0.0000       1.927239        52.4428 
 331   0.0000       1.935739        52.6741 
 332   0.0000       1.942069        52.8464 
 333   0.0000       1.961126        53.3650 
 334   0.0000       1.970159        53.6108 
 335   0.0000       1.975838        53.7653 
 336   0.0000       1.989257        54.1304 
 337   0.0000       2.004776        54.5527 
 338   0.0000       2.018751        54.9330 
 339   0.0000       2.028661        55.2027 
 340   0.0000       2.040342        55.5205 
 341   0.0000       2.044837        55.6429 
 342   0.0000       2.069399        56.3112 
 343   0.0000       2.075591        56.4797 
 344   0.0000       2.096090        57.0375 
 345   0.0000       2.117151        57.6106 
 346   0.0000       2.122070        57.7445 
 347   0.0000       2.133823        58.0643 
 348   0.0000       2.152919        58.5839 
 349   0.0000       2.166302        58.9481 
 350   0.0000       2.172290        59.1110 
 351   0.0000       2.181639        59.3654 
 352   0.0000       2.211176        60.1692 
 353   0.0000       2.228469        60.6397 
 354   0.0000       2.231119        60.7118 
 355   0.0000       2.251442        61.2649 
 356   0.0000       2.263349        61.5889 
 357   0.0000       2.284800        62.1726 
 358   0.0000       2.298151        62.5359 
 359   0.0000       2.310203        62.8638 
 360   0.0000       2.324382        63.2497 
 361   0.0000       2.327783        63.3422 
 362   0.0000       2.345982        63.8374 
 363   0.0000       2.362101        64.2760 
 364   0.0000       2.368973        64.4630 
 365   0.0000       2.382926        64.8427 
 366   0.0000       2.389453        65.0203 
 367   0.0000       2.402267        65.3690 
 368   0.0000       2.424068        65.9622 
 369   0.0000       2.433097        66.2079 
 370   0.0000       2.456241        66.8377 
 371   0.0000       2.467877        67.1544 
 372   0.0000       2.480217        67.4901 
 373   0.0000       2.485301        67.6285 
 374   0.0000       2.500058        68.0300 
 375   0.0000       2.513184        68.3872 
 376   0.0000       2.518961        68.5444 
 377   0.0000       2.530906        68.8695 
 378   0.0000       2.545359        69.2627 
 379   0.0000       2.558169        69.6113 
 380   0.0000       2.578309        70.1593 
 381   0.0000       2.588904        70.4476 
 382   0.0000       2.598728        70.7150 
 383   0.0000       2.608716        70.9868 
 384   0.0000       2.616700        71.2040 
 385   0.0000       2.631296        71.6012 
 386   0.0000       2.641647        71.8829 
 387   0.0000       2.651550        72.1523 
 388   0.0000       2.661450        72.4217 
 389   0.0000       2.668362        72.6098 
 390   0.0000       2.691244        73.2325 
 391   0.0000       2.693925        73.3054 
 392   0.0000       2.711923        73.7952 
 393   0.0000       2.714442        73.8637 
 394   0.0000       2.730460        74.2996 
 395   0.0000       2.739879        74.5559 
 396   0.0000       2.744046        74.6693 
 397   0.0000       2.747921        74.7747 
 398   0.0000       2.763315        75.1936 
 399   0.0000       2.771586        75.4187 
 400   0.0000       2.782466        75.7148 
 401   0.0000       2.808117        76.4127 
 402   0.0000       2.813983        76.5724 
 403   0.0000       2.825757        76.8928 
 404   0.0000       2.836179        77.1764 
 405   0.0000       2.838852        77.2491 
 406   0.0000       2.845815        77.4385 
 407   0.0000       2.853284        77.6418 
 408   0.0000       2.865412        77.9718 
 409   0.0000       2.873486        78.1915 
 410   0.0000       2.880238        78.3753 
 411   0.0000       2.888702        78.6056 
 412   0.0000       2.893762        78.7433 
 413   0.0000       2.902579        78.9832 
 414   0.0000       2.915631        79.3384 
 415   0.0000       2.923026        79.5396 
 416   0.0000       2.935763        79.8862 
 417   0.0000       2.950552        80.2886 
 418   0.0000       2.956782        80.4581 
 419   0.0000       2.963483        80.6405 
 420   0.0000       2.974834        80.9494 
 421   0.0000       2.980560        81.1052 
 422   0.0000       2.993130        81.4472 
 423   0.0000       2.993374        81.4538 
 424   0.0000       3.002427        81.7002 
 425   0.0000       3.014279        82.0227 
 426   0.0000       3.016768        82.0904 
 427   0.0000       3.020858        82.2017 
 428   0.0000       3.032603        82.5213 
 429   0.0000       3.035954        82.6125 
 430   0.0000       3.053084        83.0786 
 431   0.0000       3.054520        83.1177 
 432   0.0000       3.064899        83.4001 
 433   0.0000       3.070517        83.5530 
 434   0.0000       3.075809        83.6970 
 435   0.0000       3.086705        83.9935 
 436   0.0000       3.091388        84.1209 
 437   0.0000       3.095384        84.2297 
 438   0.0000       3.101115        84.3856 
 439   0.0000       3.107103        84.5486 
 440   0.0000       3.113927        84.7343 
 441   0.0000       3.117573        84.8335 
 442   0.0000       3.122764        84.9747 
 443   0.0000       3.135446        85.3198 
 444   0.0000       3.143790        85.5469 
 445   0.0000       3.151520        85.7572 
 446   0.0000       3.162191        86.0476 
 447   0.0000       3.173238        86.3482 
 448   0.0000       3.179291        86.5129 
 449   0.0000       3.181666        86.5775 
 450   0.0000       3.192471        86.8716 
 451   0.0000       3.202211        87.1366 
 452   0.0000       3.211269        87.3831 
 453   0.0000       3.219658        87.6114 
 454   0.0000       3.228031        87.8392 
 455   0.0000       3.242047        88.2206 
 456   0.0000       3.249811        88.4318 
 457   0.0000       3.256043        88.6014 
 458   0.0000       3.258978        88.6813 
 459   0.0000       3.269987        88.9809 
 460   0.0000       3.271691        89.0273 
 461   0.0000       3.280895        89.2777 
 462   0.0000       3.286199        89.4220 
 463   0.0000       3.291089        89.5551 
 464   0.0000       3.302245        89.8587 
 465   0.0000       3.307209        89.9937 
 466   0.0000       3.316052        90.2344 
 467   0.0000       3.318621        90.3043 
 468   0.0000       3.323527        90.4378 
 469   0.0000       3.333252        90.7024 
 470   0.0000       3.336527        90.7915 
 471   0.0000       3.345719        91.0416 
 472   0.0000       3.355079        91.2964 
 473   0.0000       3.355376        91.3044 
 474   0.0000       3.362257        91.4917 
 475   0.0000       3.365827        91.5888 
 476   0.0000       3.374569        91.8267 
 477   0.0000       3.381311        92.0101 
 478   0.0000       3.386712        92.1571 
 479   0.0000       3.397764        92.4579 
 480   0.0000       3.406533        92.6965 
 481   0.0000       3.409663        92.7817 
 482   0.0000       3.413295        92.8805 
 483   0.0000       3.417561        92.9966 
 484   0.0000       3.421481        93.1032 
 485   0.0000       3.428953        93.3065 
 486   0.0000       3.432707        93.4087 
 487   0.0000       3.435113        93.4742 
 488   0.0000       3.439992        93.6069 
 489   0.0000       3.445356        93.7529 
 490   0.0000       3.448363        93.8347 
 491   0.0000       3.453471        93.9737 
 492   0.0000       3.453844        93.9839 
 493   0.0000       3.457627        94.0868 
 494   0.0000       3.466240        94.3212 
 495   0.0000       3.474438        94.5443 
 496   0.0000       3.481119        94.7261 
 497   0.0000       3.484979        94.8311 
 498   0.0000       3.492158        95.0265 
 499   0.0000       3.514081        95.6230 
 500   0.0000       3.515594        95.6642 
 501   0.0000       3.522475        95.8514 
 502   0.0000       3.528534        96.0163 
 503   0.0000       3.538043        96.2751 
 504   0.0000       3.544825        96.4596 
 505   0.0000       3.560558        96.8877 
 506   0.0000       3.563415        96.9654 
 507   0.0000       3.571516        97.1859 
 508   0.0000       3.578273        97.3698 
 509   0.0000       3.583533        97.5129 
 510   0.0000       3.590238        97.6953 
 511   0.0000       3.594875        97.8215 
 512   0.0000       3.603178        98.0475 
 513   0.0000       3.609961        98.2320 
 514   0.0000       3.620806        98.5271 
 515   0.0000       3.623461        98.5994 
 516   0.0000       3.630224        98.7834 
 517   0.0000       3.636098        98.9433 
 518   0.0000       3.640698        99.0684 
 519   0.0000       3.644262        99.1654 
 520   0.0000       3.651748        99.3691 
 521   0.0000       3.652716        99.3955 
 522   0.0000       3.660952        99.6196 
 523   0.0000       3.669974        99.8651 
 524   0.0000       3.679827       100.1332 
 525   0.0000       3.682734       100.2123 
 526   0.0000       3.689015       100.3832 
 527   0.0000       3.697548       100.6154 
 528   0.0000       3.703130       100.7673 
 529   0.0000       3.712113       101.0117 
 530   0.0000       3.717821       101.1670 
 531   0.0000       3.726067       101.3914 
 532   0.0000       3.739765       101.7642 
 533   0.0000       3.745013       101.9070 
 534   0.0000       3.747928       101.9863 
 535   0.0000       3.753885       102.1484 
 536   0.0000       3.757936       102.2586 
 537   0.0000       3.761573       102.3576 
 538   0.0000       3.766538       102.4927 
 539   0.0000       3.771346       102.6235 
 540   0.0000       3.775730       102.7428 
 541   0.0000       3.788560       103.0920 
 542   0.0000       3.791838       103.1812 
 543   0.0000       3.804785       103.5335 
 544   0.0000       3.811645       103.7201 
 545   0.0000       3.815888       103.8356 
 546   0.0000       3.823505       104.0429 
 547   0.0000       3.833768       104.3221 
 548   0.0000       3.841774       104.5400 
 549   0.0000       3.849481       104.7497 
 550   0.0000       3.852150       104.8223 
 551   0.0000       3.870490       105.3214 
 552   0.0000       3.876894       105.4956 
 553   0.0000       3.882215       105.6404 
 554   0.0000       3.895308       105.9967 
 555   0.0000       3.898752       106.0904 
 556   0.0000       3.907378       106.3252 
 557   0.0000       3.918742       106.6344 
 558   0.0000       3.925064       106.8064 
 559   0.0000       3.931128       106.9714 
 560   0.0000       3.942366       107.2772 
 561   0.0000       3.953159       107.5709 
 562   0.0000       3.962361       107.8213 
 563   0.0000       3.971956       108.0824 
 564   0.0000       3.981637       108.3459 
 565   0.0000       3.988868       108.5426 
 566   0.0000       3.995240       108.7160 
 567   0.0000       4.009068       109.0923 
 568   0.0000       4.014946       109.2522 
 569   0.0000       4.024099       109.5013 
 570   0.0000       4.036200       109.8306 
 571   0.0000       4.041534       109.9757 
 572   0.0000       4.049939       110.2044 
 573   0.0000       4.057785       110.4180 
 574   0.0000       4.065877       110.6381 
 575   0.0000       4.069162       110.7275 
 576   0.0000       4.078875       110.9918 
 577   0.0000       4.091784       111.3431 
 578   0.0000       4.103545       111.6631 
 579   0.0000       4.110861       111.8622 
 580   0.0000       4.116513       112.0160 
 581   0.0000       4.128502       112.3422 
 582   0.0000       4.133331       112.4736 
 583   0.0000       4.144699       112.7830 
 584   0.0000       4.152166       112.9862 
 585   0.0000       4.155422       113.0748 
 586   0.0000       4.162746       113.2741 
 587   0.0000       4.164493       113.3216 
 588   0.0000       4.171060       113.5003 
 589   0.0000       4.174865       113.6038 
 590   0.0000       4.184294       113.8604 
 591   0.0000       4.193397       114.1081 
 592   0.0000       4.197638       114.2235 
 593   0.0000       4.200031       114.2887 
 594   0.0000       4.210762       114.5807 
 595   0.0000       4.215603       114.7124 
 596   0.0000       4.223379       114.9240 
 597   0.0000       4.231989       115.1583 
 598   0.0000       4.245807       115.5343 
 599   0.0000       4.247111       115.5698 
 600   0.0000       4.252854       115.7260 
 601   0.0000       4.258397       115.8769 
 602   0.0000       4.266912       116.1086 
 603   0.0000       4.274765       116.3223 
 604   0.0000       4.290488       116.7501 
 605   0.0000       4.298569       116.9700 
 606   0.0000       4.303828       117.1131 
 607   0.0000       4.319954       117.5519 
 608   0.0000       4.330071       117.8272 
 609   0.0000       4.333756       117.9275 
 610   0.0000       4.339630       118.0873 
 611   0.0000       4.347096       118.2905 
 612   0.0000       4.352501       118.4376 
 613   0.0000       4.361718       118.6884 
 614   0.0000       4.369616       118.9033 
 615   0.0000       4.377768       119.1251 
 616   0.0000       4.387310       119.3848 
 617   0.0000       4.396751       119.6417 
 618   0.0000       4.406445       119.9055 
 619   0.0000       4.411941       120.0550 
 620   0.0000       4.416327       120.1744 
 621   0.0000       4.423395       120.3667 
 622   0.0000       4.434525       120.6696 
 623   0.0000       4.442592       120.8891 
 624   0.0000       4.451391       121.1285 
 625   0.0000       4.452398       121.1559 
 626   0.0000       4.459664       121.3536 
 627   0.0000       4.466926       121.5512 
 628   0.0000       4.477296       121.8334 
 629   0.0000       4.490478       122.1921 
 630   0.0000       4.502779       122.5268 
 631   0.0000       4.507591       122.6578 
 632   0.0000       4.526562       123.1740 
 633   0.0000       4.529939       123.2659 
 634   0.0000       4.543734       123.6413 
 635   0.0000       4.545015       123.6761 
 636   0.0000       4.549737       123.8046 
 637   0.0000       4.559680       124.0752 
 638   0.0000       4.572500       124.4241 
 639   0.0000       4.581813       124.6775 
 640   0.0000       4.589175       124.8778 
 641   0.0000       4.599022       125.1458 
 642   0.0000       4.609938       125.4428 
 643   0.0000       4.616337       125.6169 
 644   0.0000       4.625647       125.8703 
 645   0.0000       4.631914       126.0408 
 646   0.0000       4.638892       126.2307 
 647   0.0000       4.642382       126.3256 
 648   0.0000       4.646476       126.4370 
 649   0.0000       4.647836       126.4740 
 650   0.0000       4.657183       126.7284 
 651   0.0000       4.662898       126.8839 
 652   0.0000       4.663646       126.9043 
 653   0.0000       4.691284       127.6563 
 654   0.0000       4.696471       127.7975 
 655   0.0000       4.706200       128.0622 
 656   0.0000       4.715968       128.3280 
 657   0.0000       4.722838       128.5149 
 658   0.0000       4.729681       128.7012 
 659   0.0000       4.745658       129.1359 
 660   0.0000       4.759705       129.5181 
 661   0.0000       4.774842       129.9301 
 662   0.0000       4.779657       130.0611 
 663   0.0000       4.800692       130.6335 
 664   0.0000       4.817092       131.0797 
 665   0.0000       4.823019       131.2410 
 666   0.0000       4.833932       131.5380 
 667   0.0000       4.845621       131.8561 
 668   0.0000       4.863220       132.3349 
 669   0.0000       4.891882       133.1149 
 670   0.0000       4.901132       133.3666 
 671   0.0000       4.924135       133.9925 
 672   0.0000       4.940893       134.4485 
 673   0.0000       4.954610       134.8218 
 674   0.0000       4.967219       135.1649 
 675   0.0000       4.989417       135.7689 
 676   0.0000       5.017409       136.5306 
 677   0.0000       5.025828       136.7597 
 678   0.0000       5.030597       136.8895 
 679   0.0000       5.042146       137.2038 
 680   0.0000       5.051314       137.4533 
 681   0.0000       5.064543       137.8132 
 682   0.0000       5.087276       138.4318 
 683   0.0000       5.102331       138.8415 
 684   0.0000       5.110293       139.0581 
 685   0.0000       5.119722       139.3147 
 686   0.0000       5.126866       139.5091 
 687   0.0000       5.139292       139.8472 
 688   0.0000       5.150528       140.1530 
 689   0.0000       5.164765       140.5404 
 690   0.0000       5.170431       140.6946 
 691   0.0000       5.186890       141.1424 
 692   0.0000       5.197949       141.4434 
 693   0.0000       5.200400       141.5101 
 694   0.0000       5.209425       141.7557 
 695   0.0000       5.211346       141.8079 
 696   0.0000       5.222729       142.1177 
 697   0.0000       5.225233       142.1858 
 698   0.0000       5.233212       142.4029 
 699   0.0000       5.257008       143.0504 
 700   0.0000       5.266766       143.3160 
 701   0.0000       5.279137       143.6526 
 702   0.0000       5.297941       144.1643 
 703   0.0000       5.314229       144.6075 
 704   0.0000       5.324902       144.8980 
 705   0.0000       5.341861       145.3594 
 706   0.0000       5.348746       145.5468 
 707   0.0000       5.362176       145.9122 
 708   0.0000       5.371898       146.1768 
 709   0.0000       5.385776       146.5544 
 710   0.0000       5.391192       146.7018 
 711   0.0000       5.408480       147.1722 
 712   0.0000       5.427016       147.6766 
 713   0.0000       5.445690       148.1848 
 714   0.0000       5.465181       148.7151 
 715   0.0000       5.476319       149.0182 
 716   0.0000       5.493026       149.4728 
 717   0.0000       5.511134       149.9656 
 718   0.0000       5.515957       150.0968 
 719   0.0000       5.532494       150.5468 
 720   0.0000       5.537391       150.6801 
 721   0.0000       5.544272       150.8673 
 722   0.0000       5.555587       151.1752 
 723   0.0000       5.573566       151.6644 
 724   0.0000       5.588175       152.0620 
 725   0.0000       5.597536       152.3167 
 726   0.0000       5.606574       152.5626 
 727   0.0000       5.616058       152.8207 
 728   0.0000       5.631945       153.2530 
 729   0.0000       5.633976       153.3083 
 730   0.0000       5.650561       153.7596 
 731   0.0000       5.658611       153.9786 
 732   0.0000       5.676162       154.4562 
 733   0.0000       5.691346       154.8694 
 734   0.0000       5.708179       155.3274 
 735   0.0000       5.718896       155.6191 
 736   0.0000       5.734943       156.0557 
 737   0.0000       5.740060       156.1950 
 738   0.0000       5.746198       156.3620 
 739   0.0000       5.750598       156.4817 
 740   0.0000       5.771942       157.0625 
 741   0.0000       5.786518       157.4592 
 742   0.0000       5.793379       157.6459 
 743   0.0000       5.810373       158.1083 
 744   0.0000       5.818881       158.3398 
 745   0.0000       5.841178       158.9465 
 746   0.0000       5.861677       159.5043 
 747   0.0000       5.874415       159.8510 
 748   0.0000       5.897463       160.4781 
 749   0.0000       5.918836       161.0597 
 750   0.0000       5.942239       161.6965 
 751   0.0000       5.969514       162.4387 
 752   0.0000       5.988409       162.9529 
 753   0.0000       6.000923       163.2934 
 754   0.0000       6.016979       163.7303 
 755   0.0000       6.038225       164.3085 
 756   0.0000       6.054265       164.7449 
 757   0.0000       6.061730       164.9480 
 758   0.0000       6.084783       165.5754 
 759   0.0000       6.092658       165.7897 
 760   0.0000       6.116182       166.4298 
 761   0.0000       6.172489       167.9620 
 762   0.0000       6.215198       169.1241 
 763   0.0000       6.227077       169.4474 
 764   0.0000       6.247161       169.9939 
 765   0.0000       6.297704       171.3692 
 766   0.0000       6.317591       171.9104 
 767   0.0000       6.322556       172.0455 
 768   0.0000       6.347317       172.7193 
 769   0.0000       6.366863       173.2512 
 770   0.0000       6.368444       173.2942 
 771   0.0000       6.384181       173.7224 
 772   0.0000       6.400957       174.1789 
 773   0.0000       6.452511       175.5817 
 774   0.0000       6.458642       175.7486 
 775   0.0000       6.501847       176.9242 
 776   0.0000       6.505577       177.0258 
 777   0.0000       6.554050       178.3448 
 778   0.0000       6.565951       178.6686 
 779   0.0000       6.607022       179.7862 
 780   0.0000       6.646287       180.8547 
 781   0.0000       6.694897       182.1774 
 782   0.0000       6.727761       183.0717 
 783   0.0000       6.789543       184.7529 
 784   0.0000       6.824109       185.6935 
 785   0.0000       6.907337       187.9582 
 786   0.0000       6.919158       188.2799 
 787   0.0000       6.929705       188.5668 
 788   0.0000       6.963423       189.4844 
 789   0.0000       7.034793       191.4265 
 790   0.0000       7.049953       191.8390 
 791   0.0000       7.068074       192.3321 
 792   0.0000       7.078679       192.6206 
 793   0.0000       7.141781       194.3377 
 794   0.0000       7.213886       196.2998 
 795   0.0000       7.250692       197.3014 
 796   0.0000       7.257135       197.4767 
 797   0.0000       7.279403       198.0826 
 798   0.0000       7.341180       199.7637 
 799   0.0000       7.390449       201.1043 
 800   0.0000       7.452014       202.7796 
 801   0.0000       7.581281       206.2971 
 802   0.0000       7.586673       206.4439 
 803   0.0000       7.628998       207.5956 
 804   0.0000       7.709248       209.7793 
 805   0.0000       7.798111       212.1974 
 806   0.0000       7.817846       212.7344 
 807   0.0000       7.931058       215.8151 
 808   0.0000       7.947735       216.2689 
 809   0.0000       9.433403       256.6960 
 810   0.0000       9.529682       259.3158 
 811   0.0000      10.808529       294.1150 
 812   0.0000      11.445302       311.4425 
 813   0.0000      11.912117       324.1452 
 814   0.0000      12.570958       342.0732 
 815   0.0000      12.888985       350.7271 
 816   0.0000      12.949897       352.3846 
 817   0.0000      13.088390       356.1532 
 818   0.0000      13.191043       358.9465 
 819   0.0000      13.360377       363.5543 
 820   0.0000      13.591260       369.8370 
 821   0.0000      13.727017       373.5311 
 822   0.0000      13.923961       378.8903 
 823   0.0000      14.022914       381.5829 
 824   0.0000      14.106825       383.8662 
 825   0.0000      14.605437       397.4342 
 826   0.0000      14.861668       404.4065 
 827   0.0000      16.025165       436.0669 

                    ********************************
                    * MULLIKEN POPULATION ANALYSIS *
                    ********************************

-----------------------
MULLIKEN ATOMIC CHARGES
-----------------------
   0 C :   -0.317164
   1 C :    0.036950
   2 O :   -0.384277
   3 C :    0.472134
   4 O :   -0.416335
   5 C :   -0.262829
   6 C :    0.167711
   7 C :   -0.270253
   8 N :   -0.123438
   9 C :    0.216248
  10 S :   -0.441555
  11 N :   -0.211615
  12 C :    0.082350
  13 C :    0.069994
  14 C :   -0.212057
  15 C :   -0.125147
  16 C :   -0.276748
  17 C :    0.325390
  18 O :   -0.358495
  19 C :   -0.289688
  20 H :    0.103734
  21 H :    0.101832
  22 H :    0.127188
  23 H :    0.106243
  24 H :    0.114448
  25 H :    0.130256
  26 H :    0.132910
  27 H :    0.095354
  28 H :    0.197061
  29 H :    0.195838
  30 H :    0.149569
  31 H :    0.151571
  32 H :    0.165036
  33 H :    0.133074
  34 H :    0.241790
  35 H :    0.172919
Sum of atomic charges:   -0.0000000

--------------------------------
MULLIKEN REDUCED ORBITAL CHARGES
--------------------------------
  0 C s       :     3.262138  s :     3.262138
      pz      :     1.035828  p :     2.976843
      px      :     0.925541
      py      :     1.015474
      dz2     :     0.013091  d :     0.073814
      dxz     :     0.013484
      dyz     :     0.019445
      dx2y2   :     0.013256
      dxy     :     0.014538
      f0      :     0.000374  f :     0.004370
      f+1     :     0.000610
      f-1     :     0.001053
      f+2     :     0.000431
      f-2     :     0.000314
      f+3     :     0.000921
      f-3     :     0.000666
  1 C s       :     3.166663  s :     3.166663
      pz      :     1.020074  p :     2.631783
      px      :     0.808850
      py      :     0.802859
      dz2     :     0.019550  d :     0.153181
      dxz     :     0.022786
      dyz     :     0.041792
      dx2y2   :     0.032203
      dxy     :     0.036850
      f0      :     0.001319  f :     0.011423
      f+1     :     0.001057
      f-1     :     0.001876
      f+2     :     0.000417
      f-2     :     0.001864
      f+3     :     0.002382
      f-3     :     0.002509
  2 O s       :     3.722955  s :     3.722955
      pz      :     1.836110  p :     4.628151
      px      :     1.605410
      py      :     1.186631
      dz2     :     0.003670  d :     0.030903
      dxz     :     0.002166
      dyz     :     0.004958
      dx2y2   :     0.008231
      dxy     :     0.011877
      f0      :     0.000259  f :     0.002267
      f+1     :     0.000170
      f-1     :     0.000560
      f+2     :     0.000155
      f-2     :     0.000135
      f+3     :     0.000578
      f-3     :     0.000411
  3 C s       :     3.032110  s :     3.032110
      pz      :     0.781284  p :     2.175595
      px      :     0.678132
      py      :     0.716179
      dz2     :     0.066854  d :     0.293563
      dxz     :     0.032099
      dyz     :     0.072941
      dx2y2   :     0.058985
      dxy     :     0.062685
      f0      :     0.003879  f :     0.026597
      f+1     :     0.003248
      f-1     :     0.003099
      f+2     :     0.005031
      f-2     :     0.003836
      f+3     :     0.003836
      f-3     :     0.003669
  4 O s       :     3.774070  s :     3.774070
      pz      :     1.432813  p :     4.604961
      px      :     1.403250
      py      :     1.768898
      dz2     :     0.009443  d :     0.034896
      dxz     :     0.009564
      dyz     :     0.005800
      dx2y2   :     0.005713
      dxy     :     0.004377
      f0      :     0.000317  f :     0.002408
      f+1     :     0.000512
      f-1     :     0.000272
      f+2     :     0.000433
      f-2     :     0.000494
      f+3     :     0.000181
      f-3     :     0.000198
  5 C s       :     3.205306  s :     3.205306
      pz      :     0.994811  p :     2.967349
      px      :     1.095246
      py      :     0.877291
      dz2     :     0.012184  d :     0.079684
      dxz     :     0.006398
      dyz     :     0.029896
      dx2y2   :     0.007817
      dxy     :     0.023390
      f0      :     0.000828  f :     0.010491
      f+1     :     0.001298
      f-1     :     0.001544
      f+2     :     0.002072
      f-2     :     0.001654
      f+3     :     0.001813
      f-3     :     0.001281
  6 C s       :     3.179764  s :     3.179764
      pz      :     0.824763  p :     2.462338
      px      :     0.809706
      py      :     0.827869
      dz2     :     0.034115  d :     0.175834
      dxz     :     0.019940
      dyz     :     0.046396
      dx2y2   :     0.022533
      dxy     :     0.052849
      f0      :     0.002018  f :     0.014354
      f+1     :     0.001373
      f-1     :     0.002199
      f+2     :     0.002510
      f-2     :     0.002176
      f+3     :     0.002404
      f-3     :     0.001675
  7 C s       :     3.271366  s :     3.271366
      pz      :     0.974633  p :     2.925054
      px      :     0.994939
      py      :     0.955482
      dz2     :     0.018100  d :     0.069188
      dxz     :     0.010116
      dyz     :     0.010986
      dx2y2   :     0.020896
      dxy     :     0.009090
      f0      :     0.000682  f :     0.004645
      f+1     :     0.000890
      f-1     :     0.000516
      f+2     :     0.000397
      f-2     :     0.000803
      f+3     :     0.000409
      f-3     :     0.000948
  8 N s       :     3.341033  s :     3.341033
      pz      :     1.264090  p :     3.718029
      px      :     1.367759
      py      :     1.086180
      dz2     :     0.013229  d :     0.059434
      dxz     :     0.010990
      dyz     :     0.012012
      dx2y2   :     0.013500
      dxy     :     0.009703
      f0      :     0.000562  f :     0.004942
      f+1     :     0.001091
      f-1     :     0.000503
      f+2     :     0.000945
      f-2     :     0.001023
      f+3     :     0.000365
      f-3     :     0.000452
  9 C s       :     3.152828  s :     3.152828
      pz      :     0.782441  p :     2.351633
      px      :     0.741611
      py      :     0.827580
      dz2     :     0.058224  d :     0.261691
      dxz     :     0.030686
      dyz     :     0.055789
      dx2y2   :     0.061465
      dxy     :     0.055528
      f0      :     0.002294  f :     0.017601
      f+1     :     0.002370
      f-1     :     0.002253
      f+2     :     0.003482
      f-2     :     0.001779
      f+3     :     0.002832
      f-3     :     0.002590
 10 S s       :     5.856579  s :     5.856579
      pz      :     3.388387  p :    10.490111
      px      :     3.545471
      py      :     3.556253
      dz2     :     0.013838  d :     0.084739
      dxz     :     0.015362
      dyz     :     0.029612
      dx2y2   :     0.005461
      dxy     :     0.020467
      f0      :     0.001060  f :     0.010126
      f+1     :     0.000907
      f-1     :     0.002113
      f+2     :     0.001131
      f-2     :     0.003194
      f+3     :     0.000946
      f-3     :     0.000776
 11 N s       :     3.382214  s :     3.382214
      pz      :     1.350834  p :     3.766799
      px      :     1.398617
      py      :     1.017349
      dz2     :     0.007173  d :     0.058136
      dxz     :     0.008529
      dyz     :     0.015402
      dx2y2   :     0.012049
      dxy     :     0.014983
      f0      :     0.000419  f :     0.004465
      f+1     :     0.000540
      f-1     :     0.000577
      f+2     :     0.000705
      f-2     :     0.000687
      f+3     :     0.000762
      f-3     :     0.000775
 12 C s       :     3.121242  s :     3.121242
      pz      :     0.838094  p :     2.603035
      px      :     0.909917
      py      :     0.855024
      dz2     :     0.032250  d :     0.182171
      dxz     :     0.034036
      dyz     :     0.041620
      dx2y2   :     0.024035
      dxy     :     0.050229
      f0      :     0.001136  f :     0.011203
      f+1     :     0.001319
      f-1     :     0.001754
      f+2     :     0.001785
      f-2     :     0.002915
      f+3     :     0.001097
      f-3     :     0.001197
 13 C s       :     3.106420  s :     3.106420
      pz      :     0.888032  p :     2.703615
      px      :     0.912992
      py      :     0.902590
      dz2     :     0.015014  d :     0.108593
      dxz     :     0.017239
      dyz     :     0.025924
      dx2y2   :     0.022662
      dxy     :     0.027755
      f0      :     0.001001  f :     0.011377
      f+1     :     0.001451
      f-1     :     0.001233
      f+2     :     0.001730
[...]
      f-1     :     0.004528
      f+2     :     0.007423
      f-2     :     0.005257
      f+3     :     0.006926
      f-3     :     0.009189
 15 C s       :     2.705976  s :     2.705976
      pz      :     0.878481  p :     2.794410
      px      :     0.960150
      py      :     0.955779
      dz2     :     0.075404  d :     0.417996
      dxz     :     0.079141
      dyz     :     0.048898
      dx2y2   :     0.111603
      dxy     :     0.102949
      f0      :     0.003396  f :     0.041129
      f+1     :     0.004836
      f-1     :     0.004693
      f+2     :     0.007317
      f-2     :     0.005562
      f+3     :     0.008237
      f-3     :     0.007087
 16 C s       :     2.701625  s :     2.701625
      pz      :     0.929187  p :     2.870201
      px      :     0.973561
      py      :     0.967454
      dz2     :     0.034967  d :     0.390222
      dxz     :     0.066206
      dyz     :     0.071568
      dx2y2   :     0.100363
      dxy     :     0.117118
      f0      :     0.003517  f :     0.040286
      f+1     :     0.004505
      f-1     :     0.003705
      f+2     :     0.006020
      f-2     :     0.004653
      f+3     :     0.008976
      f-3     :     0.008911
 17 C s       :     2.701684  s :     2.701684
      pz      :     0.852690  p :     2.678815
      px      :     0.822428
      py      :     1.003697
      dz2     :     0.109283  d :     0.709564
      dxz     :     0.122273
      dyz     :     0.114641
      dx2y2   :     0.180748
      dxy     :     0.182619
      f0      :     0.007631  f :     0.099325
      f+1     :     0.015594
      f-1     :     0.007654
      f+2     :     0.015849
      f-2     :     0.012322
      f+3     :     0.019004
      f-3     :     0.021271
 18 O s       :     3.176975  s :     3.176975
      pz      :     1.476622  p :     4.346114
      px      :     1.360315
      py      :     1.509177
      dz2     :     0.006783  d :     0.075477
      dxz     :     0.016956
      dyz     :     0.014461
      dx2y2   :     0.018513
      dxy     :     0.018764
      f0      :     0.000530  f :     0.005058
      f+1     :     0.000728
      f-1     :     0.000361
      f+2     :     0.000579
      f-2     :     0.000816
      f+3     :     0.000911
      f-3     :     0.001134
 19 C s       :     2.695160  s :     2.695160
      pz      :     0.920917  p :     2.845144
      px      :     0.966131
      py      :     0.958095
      dz2     :     0.061654  d :     0.387689
      dxz     :     0.073011
      dyz     :     0.051086
      dx2y2   :     0.098535
      dxy     :     0.103403
      f0      :     0.003382  f :     0.040733
      f+1     :     0.004855
      f-1     :     0.004370
      f+2     :     0.007275
      f-2     :     0.006061
      f+3     :     0.007994
      f-3     :     0.006797
 20 H s       :     0.849118  s :     0.849118
      pz      :     0.058706  p :     0.152678
      px      :     0.038681
      py      :     0.055290
      dz2     :     0.008136  d :     0.027623
      dxz     :     0.004481
      dyz     :     0.006696
      dx2y2   :     0.003943
      dxy     :     0.004367
 21 H s       :     0.845810  s :     0.845810
      pz      :     0.042593  p :     0.151944
      px      :     0.049545
      py      :     0.059806
      dz2     :     0.002882  d :     0.027559
      dxz     :     0.002815
      dyz     :     0.006664
      dx2y2   :     0.008411
      dxy     :     0.006787
 22 H s       :     0.843343  s :     0.843343
      pz      :     0.065936  p :     0.153959
      px      :     0.041916
      py      :     0.046107
      dz2     :     0.008648  d :     0.027671
      dxz     :     0.006788
      dyz     :     0.007525
      dx2y2   :     0.002413
      dxy     :     0.002298
 23 H s       :     0.853386  s :     0.853386
      pz      :     0.070313  p :     0.149265
      px      :     0.036567
      py      :     0.042385
      dz2     :     0.009009  d :     0.027199
      dxz     :     0.004872
      dyz     :     0.007747
      dx2y2   :     0.002321
      dxy     :     0.003250
 24 H s       :     0.855446  s :     0.855446
      pz      :     0.063957  p :     0.145782
      px      :     0.035046
      py      :     0.046779
      dz2     :     0.008100  d :     0.027005
      dxz     :     0.004581
      dyz     :     0.007788
      dx2y2   :     0.002864
      dxy     :     0.003672
 25 H s       :     0.826260  s :     0.826260
      pz      :     0.038937  p :     0.151160
      px      :     0.071406
      py      :     0.040817
      dz2     :     0.002394  d :     0.027754
      dxz     :     0.008709
      dyz     :     0.000617
      dx2y2   :     0.008147
      dxy     :     0.007888
 26 H s       :     0.824569  s :     0.824569
      pz      :     0.070997  p :     0.151010
      px      :     0.041850
      py      :     0.038163
      dz2     :     0.009400  d :     0.027759
      dxz     :     0.008175
      dyz     :     0.007908
      dx2y2   :     0.001548
      dxy     :     0.000727
 27 H s       :     0.845350  s :     0.845350
      pz      :     0.039446  p :     0.150369
      px      :     0.039703
      py      :     0.071220
      dz2     :     0.003081  d :     0.027705
      dxz     :     0.000332
      dyz     :     0.008526
      dx2y2   :     0.006787
      dxy     :     0.008979
 28 H s       :     0.741924  s :     0.741924
      pz      :     0.061448  p :     0.253738
      px      :     0.071357
      py      :     0.120932
      dz2     :     0.005479  d :     0.061826
      dxz     :     0.000806
      dyz     :     0.018882
      dx2y2   :     0.016273
      dxy     :     0.020386
 29 H s       :     0.749332  s :     0.749332
      pz      :     0.106516  p :     0.254375
      px      :     0.100059
      py      :     0.047800
      dz2     :     0.018796  d :     0.061446
      dxz     :     0.013923
      dyz     :     0.010201
      dx2y2   :     0.010335
      dxy     :     0.008191
 30 H s       :     0.832407  s :     0.832407
      pz      :     0.046372  p :     0.149363
      px      :     0.055045
      py      :     0.047946
      dz2     :     0.004337  d :     0.028483
      dxz     :     0.006550
      dyz     :     0.004837
      dx2y2   :     0.005761
      dxy     :     0.006998
 31 H s       :     0.844102  s :     0.844102
      pz      :     0.048881  p :     0.157837
      px      :     0.071024
      py      :     0.037932
      dz2     :     0.003949  d :     0.027546
      dxz     :     0.007248
      dyz     :     0.002068
      dx2y2   :     0.007026
      dxy     :     0.007254
 32 H s       :     0.842522  s :     0.842522
      pz      :     0.039437  p :     0.151297
      px      :     0.039856
      py      :     0.072003
      dz2     :     0.002890  d :     0.026440
      dxz     :     0.001312
      dyz     :     0.006819
      dx2y2   :     0.007596
      dxy     :     0.007824
 33 H s       :     0.848033  s :     0.848033
      pz      :     0.058340  p :     0.159023
      px      :     0.048263
      py      :     0.052419
      dz2     :     0.005864  d :     0.027755
      dxz     :     0.004901
      dyz     :     0.005682
      dx2y2   :     0.005925
      dxy     :     0.005382
 34 H s       :     0.705880  s :     0.705880
      pz      :     0.121112  p :     0.347353
      px      :     0.081280
      py      :     0.144961
      dz2     :     0.024577  d :     0.099484
      dxz     :     0.012245
      dyz     :     0.023738
      dx2y2   :     0.020349
      dxy     :     0.018576
 35 H s       :     0.837877  s :     0.837877
      pz      :     0.043118  p :     0.158639
      px      :     0.041114
      py      :     0.074408
      dz2     :     0.003019  d :     0.028130
      dxz     :     0.001444
      dyz     :     0.007552
      dx2y2   :     0.008071
      dxy     :     0.008043


                      *****************************
                      * MAYER POPULATION ANALYSIS *
                      *****************************

  NA   - Mulliken gross atomic population
  ZA   - Total nuclear charge
  QA   - Mulliken gross atomic charge
  VA   - Mayer's total valence
  BVA  - Mayer's bonded valence
  FA   - Mayer's free valence

  ATOM       NA         ZA         QA         VA         BVA        FA
  0 C      6.3172     6.0000    -0.3172     3.8769     3.8769    -0.0000
  1 C      5.9631     6.0000     0.0369     3.8551     3.8551    -0.0000
  2 O      8.3843     8.0000    -0.3843     2.0136     2.0136     0.0000
  3 C      5.5279     6.0000     0.4721     4.2289     4.2289     0.0000
  4 O      8.4163     8.0000    -0.4163     2.0933     2.0933    -0.0000
  5 C      6.2628     6.0000    -0.2628     3.6281     3.6281     0.0000
  6 C      5.8323     6.0000     0.1677     3.8683     3.8683     0.0000
  7 C      6.2703     6.0000    -0.2703     3.9043     3.9043     0.0000
  8 N      7.1234     7.0000    -0.1234     3.3127     3.3127     0.0000
  9 C      5.7838     6.0000     0.2162     4.1495     4.1495    -0.0000
 10 S     16.4416    16.0000    -0.4416     1.7515     1.7515    -0.0000
 11 N      7.2116     7.0000    -0.2116     3.2447     3.2447     0.0000
 12 C      5.9177     6.0000     0.0823     3.9293     3.9293    -0.0000
 13 C      5.9300     6.0000     0.0700     3.6840     3.6840    -0.0000
 14 C      6.2121     6.0000    -0.2121     3.8468     3.8468    -0.0000
 15 C      6.1251     6.0000    -0.1251     3.7902     3.7902    -0.0000
 16 C      6.2767     6.0000    -0.2767     3.7928     3.7928    -0.0000
 17 C      5.6746     6.0000     0.3254     3.8655     3.8655    -0.0000
 18 O      8.3585     8.0000    -0.3585     2.1166     2.1166     0.0000
 19 C      6.2897     6.0000    -0.2897     3.8329     3.8329    -0.0000
 20 H      0.8963     1.0000     0.1037     0.9788     0.9788    -0.0000
 21 H      0.8982     1.0000     0.1018     0.9828     0.9828     0.0000
 22 H      0.8728     1.0000     0.1272     0.9847     0.9847     0.0000
 23 H      0.8938     1.0000     0.1062     0.9668     0.9668    -0.0000
 24 H      0.8856     1.0000     0.1144     0.9740     0.9740    -0.0000
 25 H      0.8697     1.0000     0.1303     0.9809     0.9809     0.0000
 26 H      0.8671     1.0000     0.1329     0.9797     0.9797    -0.0000
 27 H      0.9046     1.0000     0.0954     0.9857     0.9857    -0.0000
 28 H      0.8029     1.0000     0.1971     1.0229     1.0229     0.0000
 29 H      0.8042     1.0000     0.1958     1.0185     1.0185    -0.0000
 30 H      0.8504     1.0000     0.1496     0.9919     0.9919    -0.0000
 31 H      0.8484     1.0000     0.1516     0.9851     0.9851     0.0000
 32 H      0.8350     1.0000     0.1650     0.9756     0.9756    -0.0000
 33 H      0.8669     1.0000     0.1331     0.9909     0.9909    -0.0000
 34 H      0.7582     1.0000     0.2418     1.0102     1.0102     0.0000
 35 H      0.8271     1.0000     0.1729     0.9833     0.9833    -0.0000

  Mayer bond orders larger than 0.100000
B(  0-C ,  1-C ) :   0.9662 B(  0-C , 20-H ) :   0.9727 B(  0-C , 21-H ) :   0.9751 
B(  0-C , 22-H ) :   0.9717 B(  1-C ,  2-O ) :   0.8878 B(  1-C , 23-H ) :   0.9723 
B(  1-C , 24-H ) :   0.9847 B(  2-O ,  3-C ) :   1.1261 B(  3-C ,  4-O ) :   2.0022 
B(  3-C ,  5-C ) :   1.0493 B(  5-C ,  6-C ) :   1.6457 B(  5-C , 12-C ) :   0.9718 
B(  6-C ,  7-C ) :   0.9654 B(  6-C ,  8-N ) :   1.1634 B(  7-C , 25-H ) :   0.9607 
B(  7-C , 26-H ) :   0.9597 B(  7-C , 27-H ) :   0.9904 B(  8-N ,  9-C ) :   1.1847 
B(  8-N , 28-H ) :   0.9477 B(  9-C , 10-S ) :   1.6023 B(  9-C , 11-N ) :   1.3090 
B( 11-N , 12-C ) :   0.9736 B( 11-N , 29-H ) :   0.9512 B( 12-C , 13-C ) :   0.9421 
B( 12-C , 30-H ) :   1.0008 B( 13-C , 14-C ) :   1.3480 B( 13-C , 19-C ) :   1.3631 
B( 14-C , 15-C ) :   1.3888 B( 14-C , 31-H ) :   0.9747 B( 15-C , 16-C ) :   1.3603 
B( 15-C , 32-H ) :   0.9695 B( 16-C , 17-C ) :   1.3322 B( 16-C , 33-H ) :   0.9839 
B( 17-C , 18-O ) :   1.1081 B( 17-C , 19-C ) :   1.3632 B( 18-O , 34-H ) :   0.9793 
B( 19-C , 35-H ) :   0.9581 

-------
TIMINGS
-------

Total SCF time: 0 days 1 hours 37 min 27 sec 

Total time                  ....    5847.933 sec
Sum of individual times     ....    5840.208 sec  ( 99.9%)

Fock matrix formation       ....    5824.456 sec  ( 99.6%)
Diagonalization             ....       1.354 sec  (  0.0%)
Density matrix formation    ....       0.236 sec  (  0.0%)
Population analysis         ....       0.242 sec  (  0.0%)
Initial guess               ....       4.979 sec  (  0.1%)
Orbital Transformation      ....       0.000 sec  (  0.0%)
Orbital Orthonormalization  ....       0.000 sec  (  0.0%)
DIIS solution               ....       5.143 sec  (  0.1%)
SOSCF solution              ....       2.375 sec  (  0.0%)

------------------------------------------------------------------------------
                                ORCA  MP2 
------------------------------------------------------------------------------

Freezing NCore=48 chemical core electrons

-------------
RI-MP2 ENERGY
-------------
Dimension of the basis                    ...  828
Memory devoted to MP2                     ...  256 MB   
Data format for buffers                   ... DOUBLE
Compression type for matrix containers    ... UNCOMPRESSED
Overall scaling of the MP2 energy         ...   1.000e+00
Calculating two index integrals           ... done (    0.040 sec)
Cholesky decomposition of V**-1           ... done (    0.324 sec)

-----------------
RI-TRANSFORMATION (AUX index driven)
-----------------

Dimension of the orbital-basis         ... 828
Dimension of the aux-basis             ... 2141
Transformation of internal/external MOs...   24-  76 to   77- 827
Number Format for Storage              ... Double (8 Byte)
Integral mode                          ... Direct

First Phase: integral generation and transformation of MO indices
  Aux angular momentum 0               ... done (    4.954 sec)
  Aux angular momentum 1               ... done (    7.672 sec)
  Aux angular momentum 2               ... done (   10.182 sec)
  Aux angular momentum 3               ... done (    8.345 sec)
  Aux angular momentum 4               ... done (    2.853 sec)
Closing buffer VIA ( 0.63 GB; CompressionRatio= 1.00)
  Phase 1 completed in    34.357 sec
Second Phase: sorting and transformation of aux index

IA-Transformation
Memory available                       ... 167 MB 
Max. # MO pairs treated in a batch     ... 12    
# of internal orbitals                 ... 53
# batches for internal orbitals        ... 5
Closing buffer IAV ( 0.63 GB; CompressionRatio= 1.00)
(ia|v) transformation done in    29.188 sec

  Phase 2 completed in    29.191 sec
RI-Integral transformation completed in    63.699 sec
Opening buffers                              ... done

Starting loop over batches of integrals:

Operator 0  - window                       ... ( 24- 76)x( 77-827)
Operator 0  - Memory available             ...   256 MB
Operator 0  - Memory needed per MO         ...  12.3 MB
Operator 0  - Number of orbitals per batch ... 13
Operator 0  - Number of batches            ... 5

OPERATOR  0   PASS   0:  MOs    24 ...   36
  Reading integrals       ... ok
  Internal MO  26
  Internal MO  29
  Internal MO  32
  Internal MO  35
OPERATOR  0   PASS   1:  MOs    37 ...   49
  Reading integrals       ... ok
  Internal MO  38
  Internal MO  41
  Internal MO  44
  Internal MO  47
OPERATOR  0   PASS   2:  MOs    50 ...   62
  Reading integrals       ... ok
  Internal MO  50
  Internal MO  53
  Internal MO  56
  Internal MO  59
  Internal MO  62
OPERATOR  0   PASS   3:  MOs    63 ...   75
  Reading integrals       ... ok
  Internal MO  65
  Internal MO  68
  Internal MO  71
  Internal MO  74
OPERATOR  0   PASS   4:  MOs    76 ...   76
  Reading integrals       ... ok
Time spent in pair loops =    86.901 sec
Deleting buffer (Ka|jb)[aa] ...done

-----------------------------------------------
 RI-MP2 CORRELATION ENERGY:     -3.534291183 Eh
-----------------------------------------------


-------
TIMINGS
-------

Total time                :  151.075 sec
Integral trafo            :   63.715 sec ( 42.2%)
I/O of integrals          :    5.735 sec (  3.8%)
K(i,j) Operators          :   50.431 sec ( 33.4%)
T(i,j) pair energies      :    8.882 sec (  5.9%)
V-calculation             :    0.040 sec (  0.0%)
V**(-1/2)                 :    0.324 sec (  0.2%)
Gamma(ia|P)               :    0.000 sec (  0.0%)
Gamma-Trafo               :    0.000 sec (  0.0%)
D(virtual)                :    0.000 sec (  0.0%)
D(internal)               :    0.000 sec (  0.0%)
W(virtual)                :    0.000 sec (  0.0%)
W(internal)               :    0.000 sec (  0.0%)
L(virtual)                :    0.000 sec (  0.0%)
L(internal)               :    0.000 sec (  0.0%)
G(D)                      :    0.000 sec (  0.0%)
G(Z)                      :    0.000 sec (  0.0%)
Z-Vector Solution         :    0.000 sec (  0.0%)
3-Index Derivative        :    0.000 sec (  0.0%)
2-Index Derivative        :    0.000 sec (  0.0%)
Separable Gradient        :    0.000 sec (  0.0%)


---------------------------------------
MP2 TOTAL ENERGY:    -1274.337826394 Eh
---------------------------------------

-------------------------   --------------------
FINAL SINGLE POINT ENERGY     -1274.337826393662
-------------------------   --------------------


                            ***************************************
                            *     ORCA property calculations      *
                            ***************************************


  WARNING: The energy has been calculated at the MP2 level but the densities
           used in the property calculations are still SCF densities
           MP2 response densities have not been calculated 
           use %mp2 Density relaxed end
           or  %mp2 Density unrelaxed end

                                    ---------------------
                                    Active property flags
                                    ---------------------
   (+) Dipole Moment


------------------------------------------------------------------------------
                       ORCA ELECTRIC PROPERTIES CALCULATION
------------------------------------------------------------------------------

Dipole Moment Calculation                       ... on
Quadrupole Moment Calculation                   ... off
Polarizability Calculation                      ... off
GBWName                                         ... CONFS/Conf6.orca.gbw
Electron density file                           ... CONFS/Conf6.orca.scfp
The origin for moment calculation is the CENTER OF MASS  = (32.844760, 31.487515 35.222450)

-------------
DIPOLE MOMENT
-------------
                                X             Y             Z
Electronic contribution:      9.78445       9.47569       6.28925
Nuclear contribution   :    -10.74086     -11.20200      -6.31986
                        -----------------------------------------
Total Dipole Moment    :     -0.95641      -1.72630      -0.03061
                        -----------------------------------------
Magnitude (a.u.)       :      1.97377
Magnitude (Debye)      :      5.01693



--------------------
Rotational spectrum 
--------------------
 
Rotational constants in cm-1:     0.012811     0.008743     0.006481 
Rotational constants in MHz :   384.051045   262.112770   194.294371 

 Dipole components along the rotational axes: 
x,y,z [a.u.] :    -1.970963    -0.105287     0.001792 
x,y,z [Debye]:    -5.009790    -0.267619     0.004556 

 

Timings for individual modules:

Sum of individual times         ...     6004.992 sec (= 100.083 min)
GTO integral calculation        ...        3.314 sec (=   0.055 min)   0.1 %
SCF iterations                  ...     5849.775 sec (=  97.496 min)  97.4 %
MP2 module                      ...      151.904 sec (=   2.532 min)   2.5 %
                             ****ORCA TERMINATED NORMALLY****
TOTAL RUN TIME: 0 days 1 hours 40 minutes 6 seconds 79 msec
