
                                 *****************
                                 * O   R   C   A *
                                 *****************

           --- An Ab Initio, DFT and Semiempirical electronic structure package ---

                  #######################################################
                  #                        -***-                        #
                  #          Department of theory and spectroscopy      #
                  #               Directorship: Frank Neese             #
                  #        Max Planck Institute fuer Kohlenforschung    #
                  #                Kaiser Wilhelm Platz 1               #
                  #                 D-45470 Muelheim/Ruhr               #
                  #                      Germany                        #
                  #                                                     #
                  #                  All rights reserved                #
                  #                        -***-                        #
                  #######################################################


                         Program Version 4.2.0 -  RELEASE  -


 With contributions from (in alphabetic order):
   Daniel Aravena         : Magnetic Suceptibility
   Michael Atanasov       : Ab Initio Ligand Field Theory (pilot matlab implementation)
   Alexander A. Auer      : GIAO ZORA, VPT2
   Ute Becker             : Parallelization
   Giovanni Bistoni       : ED, misc. LED, open-shell LED, HFLED
   Martin Brehm           : Molecular dynamics
   Dmytro Bykov           : SCF Hessian
   Vijay G. Chilkuri      : MRCI spin determinant printing, contributions to CSF-ICE
   Dipayan Datta          : RHF DLPNO-CCSD density
   Achintya Kumar Dutta   : EOM-CC, STEOM-CC
   Dmitry Ganyushin       : Spin-Orbit,Spin-Spin,Magnetic field MRCI
   Miquel Garcia          : C-PCM Hessian, Gaussian charge scheme
   Yang Guo               : DLPNO-NEVPT2, CIM, IAO-localization
   Andreas Hansen         : Spin unrestricted coupled pair/coupled cluster methods
   Benjamin Helmich-Paris : CASSCF linear response (MC-RPA)
   Lee Huntington         : MR-EOM, pCC
   Robert Izsak           : Overlap fitted RIJCOSX, COSX-SCS-MP3, EOM
   Christian Kollmar      : KDIIS, OOCD, Brueckner-CCSD(T), CCSD density
   Simone Kossmann        : Meta GGA functionals, TD-DFT gradient, OOMP2, MP2 Hessian
   Martin Krupicka        : AUTO-CI
   Lucas Lang             : DCDCAS
   Dagmar Lenk            : GEPOL surface, SMD
   Dimitrios Liakos       : Extrapolation schemes; Compound Job, initial MDCI parallelization
   Dimitrios Manganas     : Further ROCIS development; embedding schemes
   Dimitrios Pantazis     : SARC Basis sets
   Taras Petrenko         : DFT Hessian,TD-DFT gradient, ASA, ECA, R-Raman, ABS, FL, XAS/XES, NRVS
   Peter Pinski           : DLPNO-MP2, DLPNO-MP2 Gradient
   Christoph Reimann      : Effective Core Potentials
   Marius Retegan         : Local ZFS, SOC
   Christoph Riplinger    : Optimizer, TS searches, QM/MM, DLPNO-CCSD(T), (RO)-DLPNO pert. Triples
   Tobias Risthaus        : Range-separated hybrids, TD-DFT gradient, RPA, STAB
   Michael Roemelt        : Original ROCIS implementation
   Masaaki Saitow         : Open-shell DLPNO-CCSD energy and density
   Barbara Sandhoefer     : DKH picture change effects
   Avijit Sen             : IP-ROCIS
   Kantharuban Sivalingam : CASSCF convergence, NEVPT2, FIC-MRCI
   Bernardo de Souza      : ESD, SOC TD-DFT
   Georgi Stoychev        : AutoAux, RI-MP2 NMR
   Willem Van den Heuvel  : Paramagnetic NMR
   Boris Wezisla          : Elementary symmetry handling
   Frank Wennmohs         : Technical directorship


 We gratefully acknowledge several colleagues who have allowed us to
 interface, adapt or use parts of their codes:
   Stefan Grimme, W. Hujo, H. Kruse,             : VdW corrections, initial TS optimization,
                  C. Bannwarth                     DFT functionals, gCP, sTDA/sTD-DF
   Ed Valeev, F. Pavosevic, A. Kumar             : LibInt (2-el integral package), F12 methods
   Garnet Chan, S. Sharma, J. Yang, R. Olivares  : DMRG
   Ulf Ekstrom                                   : XCFun DFT Library
   Mihaly Kallay                                 : mrcc  (arbitrary order and MRCC methods)
   Andreas Klamt, Michael Diedenhofen            : otool_cosmo (COSMO solvation model)
   Jiri Pittner, Ondrej Demel                    : Mk-CCSD
   Frank Weinhold                                : gennbo (NPA and NBO analysis)
   Christopher J. Cramer and Donald G. Truhlar   : smd solvation model
   Lars Goerigk                                  : TD-DFT with DH, B97 family of functionals
   V. Asgeirsson, H. Jonsson                     : NEB implementation
   FAccTs GmbH                                   : IRC, NEB, NEB-TS, Multilevel, MM, QM/MM, CI optimization
   S Lehtola, MJT Oliveira, MAL Marques          : LibXC Library


 Your calculation uses the libint2 library for the computation of 2-el integrals
 For citations please refer to: http://libint.valeyev.net

 Your ORCA version has been built with support for libXC version: 4.2.3
 For citations please refer to: https://tddft.org/programs/libxc/

 This ORCA versions uses:
   CBLAS   interface :  Fast vector & matrix operations
   LAPACKE interface :  Fast linear algebra routines
   SCALAPACK package :  Parallel linear algebra routines


----- Orbital basis set information -----
Your calculation utilizes the basis: cc-pVTZ 
       H, B-Ne : Obtained from the ccRepo (grant-hill.group.shef.ac.uk/ccrepo) Feb. 2017
                 T. H. Dunning, Jr., J. Chem. Phys. 90, 1007 (1989)
            He : Obtained from the ccRepo (grant-hill.group.shef.ac.uk/ccrepo) Feb. 2017
                 D. E. Woon, T. H. Dunning, Jr., J. Chem. Phys. 100, 2975 (1994)
  Li-Be, Na-Mg : Obtained from the ccRepo (grant-hill.group.shef.ac.uk/ccrepo) Feb. 2017
                 B. P. Prascher, D. E. Woon, K. A. Peterson, T. H. Dunning, Jr., A. K. Wilson, Theor. Chem. Acc. 128, 69 (2011)
         Al-Ar : Obtained from the ccRepo (grant-hill.group.shef.ac.uk/ccrepo) Feb. 2017
                 D. E. Woon, T. H. Dunning, Jr., J. Chem. Phys. 98, 1358 (1993)
            Ca : Obtained from the Peterson Research Group Website (tyr0.chem.wsu.edu/~kipeters) Feb. 2017
                 J. Koput, K. A. Peterson, J. Phys. Chem. 106, 9595 (2002)
         Sc-Zn : Obtained from the ccRepo (grant-hill.group.shef.ac.uk/ccrepo) Feb. 2017
                 N. B. Balabanov, K. A. Peterson, J. Chem. Phys. 123, 064107 (2005)
                 N. B. Balabanov, K. A. Peterson, J. Chem. Phys. 125, 074110 (2006)
         Ga-Kr : Obtained from the ccRepo (grant-hill.group.shef.ac.uk/ccrepo) Feb. 2017
                 A. K. Wilson, D. E. Woon, K. A. Peterson, T. H. Dunning, Jr., J. Chem. Phys. 110, 7667 (1999)
             Y : Obtained from the ccRepo (grant-hill.group.shef.ac.uk/ccrepo) Feb. 2017
                 K. A. Peterson, D. Figgen, M. Dolg, H. Stoll, J. Chem. Phys. 126, 124101 (2007)
        Ag, Au : Obtained from the Peterson Research Group Website (tyr0.chem.wsu.edu/~kipeters) Feb. 2017
                 K. A. Peterson, C. Puzzarini, Theor. Chem. Acc. 114, 283 (2005)

----- AuxC basis set information -----
Your calculation utilizes the auxiliary basis: cc-pVTZ/C 
  Obtained from the EMSL Basis Set Exchange (bse.pnl.gov) Feb. 2017
  H-He, B-F, Al-Ar, Ga-Kr : F. Weigend, A. Kohn, C. Hattig, J. Chem. Phys. 116, 3175 (2002)
             Li-Be, Na-Mg : C. Haettig, Phys. Chem. Chem. Phys. 7, 59 (2005)
                       Ne : C. Haettig, Phys. Chem. Chem. Phys. 7, 59 (2005)
                            F. Weigend, A. Kohn, C. Hattig, J. Chem. Phys. 116, 3175 (2002)
                    Sc-Zn : J. G. Hill, J. A. Platts, J. Chem. Phys. 128, 044104 (2008)

================================================================================
                                        WARNINGS
                       Please study these warnings very carefully!
================================================================================


WARNING: No MP2 level density has been requested!
         To caclulate MP2 level properties use
         %mp2 Density relaxed end
         or
         %mp2 Density unrelaxed end

WARNING: Post HF methods need fully converged wavefunctions
  ===> : Setting SCFConvForced true
         You can overwrite this default with %scf ConvForced false 


INFO   : the flag for use of LIBINT has been found!

================================================================================
                                       INPUT FILE
================================================================================
NAME = CONFS/Conf5.orca
|  1> ! ri-mp2 cc-pvtz cc-pvtz/c TightSCF NoKeepInts
|  2> 
|  3> %scf
|  4>   MaxCore 4096
|  5> end
|  6> *xyz  0  1
|  7>     C       15.0038349   15.9016432   17.3201022
|  8>     C       15.5164375   15.1630804   16.0664124
|  9>     O       16.9546823   15.0355866   15.8856351
| 10>     C       18.0568350   15.6049950   16.4875358
| 11>     O       19.1092352   14.9937132   16.4629557
| 12>     C       17.8984126   16.7678141   17.4101003
| 13>     C       17.3979251   17.9502594   16.9792878
| 14>     C       16.9011496   18.2817747   15.5859331
| 15>     N       17.4032081   19.0606092   17.8260306
| 16>     C       18.0334677   19.1097950   19.0415942
| 17>     S       18.0610529   20.4908910   19.9504608
| 18>     N       18.6475930   17.9568040   19.4641174
| 19>     C       18.5729312   16.6488616   18.7816865
| 20>     C       17.9038635   15.5924438   19.6593461
| 21>     C       18.3405952   14.2558434   19.6009198
| 22>     C       17.7345333   13.2662357   20.3923200
| 23>     C       16.6806812   13.6136329   21.2538481
| 24>     C       16.2410581   14.9424146   21.3170782
| 25>     O       15.2172464   15.2796768   22.1408781
| 26>     C       16.8461200   15.9260906   20.5281302
| 27>     H       15.5365995   15.5697522   18.2154376
| 28>     H       13.9457642   15.6570114   17.4745585
| 29>     H       15.0550840   16.9884733   17.2338225
| 30>     H       15.0986822   14.1478064   16.0799918
| 31>     H       15.0943800   15.6579977   15.1823258
| 32>     H       17.0949524   17.4772754   14.8669550
| 33>     H       17.4083954   19.1737887   15.1965120
| 34>     H       15.8232901   18.4824488   15.5818380
| 35>     H       16.9809513   19.9240417   17.5226516
| 36>     H       19.0968223   18.0193491   20.3690530
| 37>     H       19.6069987   16.3159730   18.6072134
| 38>     H       19.1513729   13.9802829   18.9294398
| 39>     H       18.0816593   12.2360365   20.3326589
| 40>     H       16.2087360   12.8517542   21.8654205
| 41>     H       14.9631774   14.4826191   22.6300983
| 42>     H       16.4792715   16.9452242   20.5916507
| 43> *
| 44> 
| 45>                          ****END OF INPUT****
================================================================================

                       ****************************
                       * Single Point Calculation *
                       ****************************

---------------------------------
CARTESIAN COORDINATES (ANGSTROEM)
---------------------------------
  C     15.003835   15.901643   17.320102
  C     15.516438   15.163080   16.066412
  O     16.954682   15.035587   15.885635
  C     18.056835   15.604995   16.487536
  O     19.109235   14.993713   16.462956
  C     17.898413   16.767814   17.410100
  C     17.397925   17.950259   16.979288
  C     16.901150   18.281775   15.585933
  N     17.403208   19.060609   17.826031
  C     18.033468   19.109795   19.041594
  S     18.061053   20.490891   19.950461
  N     18.647593   17.956804   19.464117
  C     18.572931   16.648862   18.781686
  C     17.903863   15.592444   19.659346
  C     18.340595   14.255843   19.600920
  C     17.734533   13.266236   20.392320
  C     16.680681   13.613633   21.253848
  C     16.241058   14.942415   21.317078
  O     15.217246   15.279677   22.140878
  C     16.846120   15.926091   20.528130
  H     15.536599   15.569752   18.215438
  H     13.945764   15.657011   17.474558
  H     15.055084   16.988473   17.233822
  H     15.098682   14.147806   16.079992
  H     15.094380   15.657998   15.182326
  H     17.094952   17.477275   14.866955
  H     17.408395   19.173789   15.196512
  H     15.823290   18.482449   15.581838
  H     16.980951   19.924042   17.522652
  H     19.096822   18.019349   20.369053
  H     19.606999   16.315973   18.607213
  H     19.151373   13.980283   18.929440
  H     18.081659   12.236037   20.332659
  H     16.208736   12.851754   21.865420
  H     14.963177   14.482619   22.630098
  H     16.479271   16.945224   20.591651

----------------------------
CARTESIAN COORDINATES (A.U.)
----------------------------
  NO LB      ZA    FRAG     MASS         X           Y           Z
   0 C     6.0000    0    12.011   28.353139   30.049751   32.730250
   1 C     6.0000    0    12.011   29.321817   28.654069   30.361119
   2 O     8.0000    0    15.999   32.039706   28.413141   30.019500
   3 C     6.0000    0    12.011   34.122473   29.489167   31.156927
   4 O     8.0000    0    15.999   36.111221   28.334012   31.110478
   5 C     6.0000    0    12.011   33.823098   31.686577   32.900322
   6 C     6.0000    0    12.011   32.877314   33.921074   32.086204
   7 C     6.0000    0    12.011   31.938544   34.547547   29.453145
   8 N     7.0000    0    14.007   32.887297   36.019331   33.686316
   9 C     6.0000    0    12.011   34.078315   36.112279   35.983398
  10 S    16.0000    0    32.060   34.130444   38.722172   37.700907
  11 N     7.0000    0    14.007   35.238844   33.933442   36.781851
  12 C     6.0000    0    12.011   35.097753   31.461789   35.492244
  13 C     6.0000    0    12.011   33.833399   29.465449   37.150780
  14 C     6.0000    0    12.011   34.658702   26.939640   37.040370
  15 C     6.0000    0    12.011   33.513411   25.069552   38.535900
  16 C     6.0000    0    12.011   31.521919   25.726038   40.163952
  17 C     6.0000    0    12.011   30.691152   28.237071   40.283440
  18 O     8.0000    0    15.999   28.756428   28.874405   41.840196
  19 C     6.0000    0    12.011   31.834553   30.095950   38.792544
  20 H     1.0000    0     1.008   29.359918   29.422568   34.422188
  21 H     1.0000    0     1.008   26.353675   29.587464   33.022130
  22 H     1.0000    0     1.008   28.449986   32.103562   32.567205
  23 H     1.0000    0     1.008   28.532374   26.735479   30.386781
  24 H     1.0000    0     1.008   28.524244   29.589327   28.690438
  25 H     1.0000    0     1.008   32.304778   33.027264   28.094473
  26 H     1.0000    0     1.008   32.897100   36.233210   28.717246
  27 H     1.0000    0     1.008   29.901685   34.926767   29.445406
  28 H     1.0000    0     1.008   32.089347   37.650982   33.113013
  29 H     1.0000    0     1.008   36.087764   34.051635   38.491932
  30 H     1.0000    0     1.008   37.051858   30.832721   35.162537
  31 H     1.0000    0     1.008   36.190850   26.418906   35.771457
  32 H     1.0000    0     1.008   34.169384   23.122758   38.423157
  33 H     1.0000    0     1.008   30.630072   24.286296   41.319657
  34 H     1.0000    0     1.008   28.276307   27.368184   42.764688
  35 H     1.0000    0     1.008   31.141310   32.021833   38.912580

--------------------------------
INTERNAL COORDINATES (ANGSTROEM)
--------------------------------
 C      0   0   0     0.000000000000     0.00000000     0.00000000
 C      1   0   0     1.542716613541     0.00000000     0.00000000
 O      2   1   0     1.455157450574   118.11957133     0.00000000
 C      3   2   1     1.378858568805   134.39662021   348.07901326
 O      4   3   2     1.217298567028   118.35014669   154.75796367
 C      4   3   2     1.492772981001   120.43953191   348.83449683
 C      6   4   3     1.354350041645   121.51500252   297.42431067
 C      7   6   4     1.515956995283   127.18524454     1.79495715
 N      7   6   4     1.396380305576   119.99659208   187.24073045
 C      9   7   6     1.370124546149   124.62931814     8.41259462
 S     10   9   7     1.653549394808   121.68838519   176.67524328
 N     10   9   7     1.372976323437   116.65621965   357.02736732
 C     12  10   9     1.477159314147   125.36563751   353.82740031
 C     13  12  10     1.527729206637   111.65459473   242.66591980
 C     14  13  12     1.407355264173   119.80013097   214.95419093
 C     15  14  13     1.404616923966   120.78587040   180.41077688
 C     16  15  14     1.404820177223   119.66892310   359.93573915
 C     17  16  15     1.401045082021   119.84143774     0.05505657
 O     18  17  16     1.356680678659   119.99800443   179.52859278
 C     18  17  16     1.398626941865   120.38688558   359.94193496
 H      1   2   3     1.093441920445   110.99030394   314.31645461
 H      1   2   3     1.096911606457   109.15763420   197.01306941
 H      1   2   3     1.091453307819   113.38276070    78.88675522
 H      2   1   3     1.097945893867   107.83141478   121.67784779
 H      2   1   3     1.097581333408   108.11566606   236.22141179
 H      8   7   6     1.096224501308   112.60664822   352.85747718
 H      8   7   6     1.097559142342   110.63377980   233.96023037
 H      8   7   6     1.096388601726   111.44565857   114.14384743
 H      9   7   6     1.007896475261   119.80716919   183.61559533
 H     12  10   9     1.012238753289   114.94447507   180.59248002
 H     13  12  10     1.100250552006   107.07683585   125.77427746
 H     15  14  13     1.088200100339   119.82289347   359.87020099
 H     16  15  14     1.088745286286   119.88163542   179.76959137
 H     17  16  15     1.084994113237   119.88989415   179.88763760
 H     19  18  17     0.969117349952   107.45239989     3.13562962
 H     20  18  17     1.085009663792   118.77174837   179.48771443

---------------------------
INTERNAL COORDINATES (A.U.)
---------------------------
 C      0   0   0     0.000000000000     0.00000000     0.00000000
 C      1   0   0     2.915311901842     0.00000000     0.00000000
 O      2   1   0     2.749849063320   118.11957133     0.00000000
 C      3   2   1     2.605665072453   134.39662021   348.07901326
 O      4   3   2     2.300360914897   118.35014669   154.75796367
 C      4   3   2     2.820932114209   120.43953191   348.83449683
 C      6   4   3     2.559350668174   121.51500252   297.42431067
 C      7   6   4     2.864743551886   127.18524454     1.79495715
 N      7   6   4     2.638776356340   119.99659208   187.24073045
 C      9   7   6     2.589160161584   124.62931814     8.41259462
 S     10   9   7     3.124755505099   121.68838519   176.67524328
 N     10   9   7     2.594549239655   116.65621965   357.02736732
 C     12  10   9     2.791426559909   125.36563751   353.82740031
 C     13  12  10     2.886989807337   111.65459473   242.66591980
 C     14  13  12     2.659516022420   119.80013097   214.95419093
 C     15  14  13     2.654341309366   120.78587040   180.41077688
 C     16  15  14     2.654725402358   119.66892310   359.93573915
 C     17  16  15     2.647591506296   119.84143774     0.05505657
 O     18  17  16     2.563754933847   119.99800443   179.52859278
 C     18  17  16     2.643021883649   120.38688558   359.94193496
 H      1   2   3     2.066305772991   110.99030394   314.31645461
 H      1   2   3     2.072862529323   109.15763420   197.01306941
 H      1   2   3     2.062547839740   113.38276070    78.88675522
 H      2   1   3     2.074817049271   107.83141478   121.67784779
 H      2   1   3     2.074128129845   108.11566606   236.22141179
 H      8   7   6     2.071564088766   112.60664822   352.85747718
 H      8   7   6     2.074086194808   110.63377980   233.96023037
 H      8   7   6     2.071874193615   111.44565857   114.14384743
 H      9   7   6     1.904648309588   119.80716919   183.61559533
 H     12  10   9     1.912854025858   114.94447507   180.59248002
 H     13  12  10     2.079172221987   107.07683585   125.77427746
 H     15  14  13     2.056400168546   119.82289347   359.87020099
 H     16  15  14     2.057430420678   119.88163542   179.76959137
 H     17  16  15     2.050341730934   119.88989415   179.88763760
 H     19  18  17     1.831366383041   107.45239989     3.13562962
 H     20  18  17     2.050371117224   118.77174837   179.48771443

---------------------
BASIS SET INFORMATION
---------------------
There are 5 groups of distinct atoms

 Group   1 Type C   : 18s5p2d1f contracted to 4s3p2d1f pattern {8811/311/11/1}
 Group   2 Type O   : 18s5p2d1f contracted to 4s3p2d1f pattern {8811/311/11/1}
 Group   3 Type N   : 18s5p2d1f contracted to 4s3p2d1f pattern {8811/311/11/1}
 Group   4 Type S   : 41s16p2d1f contracted to 5s4p2d1f pattern {13131311/7711/11/1}
 Group   5 Type H   : 5s2p1d contracted to 3s2p1d pattern {311/11/1}

Atom   0C    basis set group =>   1
Atom   1C    basis set group =>   1
Atom   2O    basis set group =>   2
Atom   3C    basis set group =>   1
Atom   4O    basis set group =>   2
Atom   5C    basis set group =>   1
Atom   6C    basis set group =>   1
Atom   7C    basis set group =>   1
Atom   8N    basis set group =>   3
Atom   9C    basis set group =>   1
Atom  10S    basis set group =>   4
Atom  11N    basis set group =>   3
Atom  12C    basis set group =>   1
Atom  13C    basis set group =>   1
Atom  14C    basis set group =>   1
Atom  15C    basis set group =>   1
Atom  16C    basis set group =>   1
Atom  17C    basis set group =>   1
Atom  18O    basis set group =>   2
Atom  19C    basis set group =>   1
Atom  20H    basis set group =>   5
Atom  21H    basis set group =>   5
Atom  22H    basis set group =>   5
Atom  23H    basis set group =>   5
Atom  24H    basis set group =>   5
Atom  25H    basis set group =>   5
Atom  26H    basis set group =>   5
Atom  27H    basis set group =>   5
Atom  28H    basis set group =>   5
Atom  29H    basis set group =>   5
Atom  30H    basis set group =>   5
Atom  31H    basis set group =>   5
Atom  32H    basis set group =>   5
Atom  33H    basis set group =>   5
Atom  34H    basis set group =>   5
Atom  35H    basis set group =>   5
---------------------------------
AUXILIARY/C BASIS SET INFORMATION
---------------------------------
There are 5 groups of distinct atoms

 Group   1 Type C   : 8s6p5d3f1g contracted to 8s6p5d3f1g pattern {11111111/111111/11111/111/1}
 Group   2 Type O   : 8s6p5d3f1g contracted to 8s6p5d3f1g pattern {11111111/111111/11111/111/1}
 Group   3 Type N   : 8s6p5d3f1g contracted to 8s6p5d3f1g pattern {11111111/111111/11111/111/1}
 Group   4 Type S   : 10s8p7d5f2g contracted to 10s8p7d5f2g pattern {1111111111/11111111/1111111/11111/11}
 Group   5 Type H   : 4s3p2d1f contracted to 4s3p2d1f pattern {1111/111/11/1}

Atom   0C    basis set group =>   1
Atom   1C    basis set group =>   1
Atom   2O    basis set group =>   2
Atom   3C    basis set group =>   1
Atom   4O    basis set group =>   2
Atom   5C    basis set group =>   1
Atom   6C    basis set group =>   1
Atom   7C    basis set group =>   1
Atom   8N    basis set group =>   3
Atom   9C    basis set group =>   1
Atom  10S    basis set group =>   4
Atom  11N    basis set group =>   3
Atom  12C    basis set group =>   1
Atom  13C    basis set group =>   1
Atom  14C    basis set group =>   1
Atom  15C    basis set group =>   1
Atom  16C    basis set group =>   1
Atom  17C    basis set group =>   1
Atom  18O    basis set group =>   2
Atom  19C    basis set group =>   1
Atom  20H    basis set group =>   5
Atom  21H    basis set group =>   5
Atom  22H    basis set group =>   5
Atom  23H    basis set group =>   5
Atom  24H    basis set group =>   5
Atom  25H    basis set group =>   5
Atom  26H    basis set group =>   5
Atom  27H    basis set group =>   5
Atom  28H    basis set group =>   5
Atom  29H    basis set group =>   5
Atom  30H    basis set group =>   5
Atom  31H    basis set group =>   5
Atom  32H    basis set group =>   5
Atom  33H    basis set group =>   5
Atom  34H    basis set group =>   5
Atom  35H    basis set group =>   5
------------------------------------------------------------------------------
                           ORCA GTO INTEGRAL CALCULATION
------------------------------------------------------------------------------

                         BASIS SET STATISTICS AND STARTUP INFO

 # of primitive gaussian shells          ...  682
 # of primitive gaussian functions       ... 1312
 # of contracted shells                  ...  298
 # of contracted basis functions         ...  828
 Highest angular momentum                ...    3
 Maximum contraction depth               ...   13
 Integral package used                   ... LIBINT
 Integral threshhold            Thresh   ...  2.500e-11
 Primitive cut-off              TCut     ...  2.500e-12


------------------------------ INTEGRAL EVALUATION ----------------------------


 * One electron integrals 
 Pre-screening matrix                    ... done
 Shell pair data                         ... done (   0.014 sec)

-------------------------------------------------------------------------------
                                 ORCA SCF
-------------------------------------------------------------------------------

------------
SCF SETTINGS
------------
Hamiltonian:
 Ab initio Hamiltonian  Method          .... Hartree-Fock(GTOs)


General Settings:
 Integral files         IntName         .... CONFS/Conf5.orca
 Hartree-Fock type      HFTyp           .... RHF
 Total Charge           Charge          ....    0
 Multiplicity           Mult            ....    1
 Number of Electrons    NEL             ....  154
 Basis Dimension        Dim             ....  828
 Nuclear Repulsion      ENuc            ....   1728.7764957373 Eh

Convergence Acceleration:
 DIIS                   CNVDIIS         .... on
   Start iteration      DIISMaxIt       ....    12
   Startup error        DIISStart       ....  0.200000
   # of expansion vecs  DIISMaxEq       ....     5
   Bias factor          DIISBfac        ....   1.050
   Max. coefficient     DIISMaxC        ....  10.000
 Newton-Raphson         CNVNR           .... off
 SOSCF                  CNVSOSCF        .... on
   Start iteration      SOSCFMaxIt      ....   150
   Startup grad/error   SOSCFStart      ....  0.003300
 Level Shifting         CNVShift        .... on
   Level shift para.    LevelShift      ....    0.2500
   Turn off err/grad.   ShiftErr        ....    0.0010
 Zerner damping         CNVZerner       .... off
 Static damping         CNVDamp         .... on
   Fraction old density DampFac         ....    0.7000
   Max. Damping (<1)    DampMax         ....    0.9800
   Min. Damping (>=0)   DampMin         ....    0.0000
   Turn off err/grad.   DampErr         ....    0.1000
 Fernandez-Rico         CNVRico         .... off

SCF Procedure:
 Maximum # iterations   MaxIter         ....   125
 SCF integral mode      SCFMode         .... Direct
   Integral package                     .... LIBINT
 Reset frequency        DirectResetFreq ....    20
 Integral Threshold     Thresh          ....  2.500e-11 Eh
 Primitive CutOff       TCut            ....  2.500e-12 Eh

Convergence Tolerance:
 Convergence Check Mode ConvCheckMode   .... Total+1el-Energy
 Convergence forced     ConvForced      .... 1
 Energy Change          TolE            ....  1.000e-08 Eh
 1-El. energy change                    ....  1.000e-05 Eh
 Orbital Gradient       TolG            ....  1.000e-05
 Orbital Rotation angle TolX            ....  1.000e-05
 DIIS Error             TolErr          ....  5.000e-07


Diagonalization of the overlap matrix:
Smallest eigenvalue                        ... 3.210e-05
Time for diagonalization                   ...    0.145 sec
Threshold for overlap eigenvalues          ... 1.000e-08
Number of eigenvalues below threshold      ... 0
Time for construction of square roots      ...    0.069 sec
Total time needed                          ...    0.217 sec

-------------------
DFT GRID GENERATION
-------------------

General Integration Accuracy     IntAcc      ...  4.340
Radial Grid Type                 RadialGrid  ... Gauss-Chebyshev
Angular Grid (max. acc.)         AngularGrid ... Lebedev-110
Angular grid pruning method      GridPruning ... 3 (G Style)
Weight generation scheme         WeightScheme... Becke
Basis function cutoff            BFCut       ...    1.0000e-11
Integration weight cutoff        WCut        ...    1.0000e-14
Grids for H and He will be reduced by one unit

# of grid points (after initial pruning)     ...  46246 (   0.0 sec)
# of grid points (after weights+screening)   ...  41160 (   0.3 sec)
nearest neighbour list constructed           ...    0.0 sec
Grid point re-assignment to atoms done       ...    0.0 sec
Grid point division into batches done        ...    0.0 sec
Reduced shell lists constructed in    1.0 sec

Total number of grid points                  ...    41160
Total number of batches                      ...      659
Average number of points per batch           ...       62
Average number of grid points per atom       ...     1143
Average number of shells per batch           ...   155.12 (52.06%)
Average number of basis functions per batch  ...   395.02 (47.71%)
Average number of large shells per batch     ...   100.19 (64.59%)
Average number of large basis fcns per batch ...   255.74 (64.74%)
Maximum spatial batch extension              ...  23.03, 20.15, 20.17 au
Average spatial batch extension              ...   3.56,  3.39,  3.33 au

Time for grid setup =    1.305 sec

------------------------------
INITIAL GUESS: MODEL POTENTIAL
------------------------------
Loading Hartree-Fock densities                     ... done
Calculating cut-offs                               ... done
Setting up the integral package                    ... done
Initializing the effective Hamiltonian             ... done
Starting the Coulomb interaction                   ... done (   3.2 sec)
Reading the grid                                   ... done
Mapping shells                                     ... done
Starting the XC term evaluation                    ... done (   1.3 sec)
Transforming the Hamiltonian                       ... done (   0.1 sec)
Diagonalizing the Hamiltonian                      ... done (   0.1 sec)
Back transforming the eigenvectors                 ... done (   0.0 sec)
Now organizing SCF variables                       ... done
                      ------------------
                      INITIAL GUESS DONE (   7.0 sec)
                      ------------------
--------------
SCF ITERATIONS
--------------
ITER       Energy         Delta-E        Max-DP      RMS-DP      [F,P]     Damp
               ***  Starting incremental Fock matrix formation  ***
  0  -1269.9906766662   0.000000000000 0.04932686  0.00045187  0.3163793 0.7000
  1  -1270.2558263982  -0.265149732015 0.03610171  0.00036725  0.1857208 0.7000
                               ***Turning on DIIS***
  2  -1270.4213213057  -0.165494907477 0.02586255  0.00024372  0.1097892 0.7000
  3  -1272.5464021607  -2.125080854982 0.06324914  0.00052252  0.0830206 0.0000
  4  -1270.7327724128   1.813629747871 0.01265060  0.00010806  0.0067501 0.0000
  5  -1270.7865963589  -0.053823946078 0.00607991  0.00005603  0.0037889 0.0000
                      *** Initiating the SOSCF procedure ***
                           *** Shutting down DIIS ***
                      *** Re-Reading the Fockian *** 
                      *** Removing any level shift *** 
ITER      Energy       Delta-E        Grad      Rot      Max-DP    RMS-DP
  6  -1270.76605318   0.0205431782  0.001536  0.001536  0.002857  0.000028
               *** Restarting incremental Fock matrix formation ***
  7  -1270.78153305  -0.0154798662  0.000806  0.001999  0.001537  0.000018
  8  -1270.78157996  -0.0000469125  0.000387  0.002344  0.001685  0.000019
  9  -1270.78159824  -0.0000182771  0.000162  0.000305  0.000398  0.000005
 10  -1270.78160059  -0.0000023488  0.000038  0.000104  0.000127  0.000001
 11  -1270.78160080  -0.0000002138  0.000018  0.000099  0.000095  0.000001
 12  -1270.78160086  -0.0000000575  0.000009  0.000031  0.000028  0.000000
 13  -1270.78160086  -0.0000000065  0.000003  0.000009  0.000006  0.000000
                  ***Gradient check signals convergence***
              ***Rediagonalizing the Fockian in SOSCF/NRSCF***

               *****************************************************
               *                     SUCCESS                       *
               *           SCF CONVERGED AFTER  14 CYCLES          *
               *****************************************************


----------------
TOTAL SCF ENERGY
----------------

Total Energy       :        -1270.78160086 Eh          -34579.72536 eV

Components:
Nuclear Repulsion  :         1728.77649574 Eh           47042.40004 eV
Electronic Energy  :        -2999.55809659 Eh          -81622.12540 eV
One Electron Energy:        -5178.27120987 Eh         -140907.92324 eV
Two Electron Energy:         2178.71311328 Eh           59285.79784 eV

Virial components:
Potential Energy   :        -2539.70094872 Eh          -69108.77624 eV
Kinetic Energy     :         1268.91934786 Eh           34529.05088 eV
Virial Ratio       :            2.00146759


---------------
SCF CONVERGENCE
---------------

  Last Energy change         ...    6.3369e-09  Tolerance :   1.0000e-08
  Last MAX-Density change    ...    3.4380e-06  Tolerance :   1.0000e-07
  Last RMS-Density change    ...    3.7699e-08  Tolerance :   5.0000e-09
  Last Orbital Gradient      ...    1.3939e-06  Tolerance :   1.0000e-05
  Last Orbital Rotation      ...    3.5973e-06  Tolerance :   1.0000e-05

             **** THE GBW FILE WAS UPDATED (CONFS/Conf5.orca.gbw) ****
             **** DENSITY FILE WAS UPDATED (CONFS/Conf5.orca.scfp) ****
             **** ENERGY FILE WAS UPDATED (CONFS/Conf5.orca.en.tmp) ****
             **** THE GBW FILE WAS UPDATED (CONFS/Conf5.orca.gbw) ****
             **** DENSITY FILE WAS UPDATED (CONFS/Conf5.orca.scfp) ****
----------------
ORBITAL ENERGIES
----------------

  NO   OCC          E(Eh)            E(eV) 
   0   2.0000     -91.890431     -2500.4658 
   1   2.0000     -20.598179      -560.5050 
   2   2.0000     -20.596380      -560.4560 
   3   2.0000     -20.546001      -559.0851 
   4   2.0000     -15.628120      -425.2628 
   5   2.0000     -15.611130      -424.8004 
   6   2.0000     -11.400596      -310.2260 
   7   2.0000     -11.386925      -309.8540 
   8   2.0000     -11.331121      -308.3355 
   9   2.0000     -11.315090      -307.8993 
  10   2.0000     -11.313851      -307.8655 
  11   2.0000     -11.313664      -307.8605 
  12   2.0000     -11.269126      -306.6485 
  13   2.0000     -11.264819      -306.5313 
  14   2.0000     -11.262913      -306.4795 
  15   2.0000     -11.255329      -306.2731 
  16   2.0000     -11.244235      -305.9712 
  17   2.0000     -11.240240      -305.8625 
  18   2.0000     -11.236654      -305.7649 
  19   2.0000     -11.235964      -305.7461 
  20   2.0000      -8.895532      -242.0597 
  21   2.0000      -6.577119      -178.9725 
  22   2.0000      -6.575095      -178.9174 
  23   2.0000      -6.574518      -178.9017 
  24   2.0000      -1.440572       -39.2000 
  25   2.0000      -1.417989       -38.5854 
  26   2.0000      -1.352952       -36.8157 
  27   2.0000      -1.340993       -36.4903 
  28   2.0000      -1.240160       -33.7465 
  29   2.0000      -1.159354       -31.5476 
  30   2.0000      -1.124941       -30.6112 
  31   2.0000      -1.047572       -28.5059 
  32   2.0000      -1.042251       -28.3611 
  33   2.0000      -1.017795       -27.6956 
  34   2.0000      -1.005210       -27.3531 
  35   2.0000      -0.990424       -26.9508 
  36   2.0000      -0.927963       -25.2512 
  37   2.0000      -0.902547       -24.5596 
  38   2.0000      -0.853920       -23.2363 
  39   2.0000      -0.840721       -22.8772 
  40   2.0000      -0.834762       -22.7150 
  41   2.0000      -0.827941       -22.5294 
  42   2.0000      -0.745073       -20.2745 
  43   2.0000      -0.733444       -19.9580 
  44   2.0000      -0.730728       -19.8841 
  45   2.0000      -0.695170       -18.9165 
  46   2.0000      -0.686256       -18.6740 
  47   2.0000      -0.677760       -18.4428 
  48   2.0000      -0.674302       -18.3487 
  49   2.0000      -0.660938       -17.9850 
  50   2.0000      -0.658850       -17.9282 
  51   2.0000      -0.652208       -17.7475 
  52   2.0000      -0.641431       -17.4542 
  53   2.0000      -0.614427       -16.7194 
  54   2.0000      -0.607308       -16.5257 
  55   2.0000      -0.604554       -16.4508 
  56   2.0000      -0.602135       -16.3849 
  57   2.0000      -0.593963       -16.1626 
  58   2.0000      -0.576899       -15.6982 
  59   2.0000      -0.574163       -15.6238 
  60   2.0000      -0.565434       -15.3862 
  61   2.0000      -0.558194       -15.1892 
  62   2.0000      -0.543442       -14.7878 
  63   2.0000      -0.530590       -14.4381 
  64   2.0000      -0.520482       -14.1630 
  65   2.0000      -0.514020       -13.9872 
  66   2.0000      -0.501428       -13.6445 
  67   2.0000      -0.496123       -13.5002 
  68   2.0000      -0.483791       -13.1646 
  69   2.0000      -0.467554       -12.7228 
  70   2.0000      -0.454645       -12.3715 
  71   2.0000      -0.448368       -12.2007 
  72   2.0000      -0.356258        -9.6943 
  73   2.0000      -0.349047        -9.4980 
  74   2.0000      -0.330013        -8.9801 
  75   2.0000      -0.323346        -8.7987 
  76   2.0000      -0.319021        -8.6810 
  77   0.0000       0.084699         2.3048 
  78   0.0000       0.107334         2.9207 
  79   0.0000       0.113765         3.0957 
  80   0.0000       0.128110         3.4860 
  81   0.0000       0.130989         3.5644 
  82   0.0000       0.141359         3.8466 
  83   0.0000       0.150395         4.0924 
  84   0.0000       0.154253         4.1974 
  85   0.0000       0.159567         4.3421 
  86   0.0000       0.166631         4.5343 
  87   0.0000       0.171553         4.6682 
  88   0.0000       0.188293         5.1237 
  89   0.0000       0.192717         5.2441 
  90   0.0000       0.203388         5.5345 
  91   0.0000       0.206147         5.6095 
  92   0.0000       0.212860         5.7922 
  93   0.0000       0.216754         5.8982 
  94   0.0000       0.220191         5.9917 
  95   0.0000       0.235296         6.4027 
  96   0.0000       0.240756         6.5513 
  97   0.0000       0.244314         6.6481 
  98   0.0000       0.256847         6.9892 
  99   0.0000       0.269796         7.3415 
 100   0.0000       0.292775         7.9668 
 101   0.0000       0.304742         8.2925 
 102   0.0000       0.308076         8.3832 
 103   0.0000       0.321038         8.7359 
 104   0.0000       0.330226         8.9859 
 105   0.0000       0.337853         9.1934 
 106   0.0000       0.340881         9.2758 
 107   0.0000       0.349655         9.5146 
 108   0.0000       0.355782         9.6813 
 109   0.0000       0.362203         9.8560 
 110   0.0000       0.369707        10.0602 
 111   0.0000       0.371925        10.1206 
 112   0.0000       0.380945        10.3660 
 113   0.0000       0.388771        10.5790 
 114   0.0000       0.392562        10.6821 
 115   0.0000       0.403374        10.9764 
 116   0.0000       0.417837        11.3699 
 117   0.0000       0.420433        11.4406 
 118   0.0000       0.430687        11.7196 
 119   0.0000       0.435188        11.8421 
 120   0.0000       0.444273        12.0893 
 121   0.0000       0.446625        12.1533 
 122   0.0000       0.453435        12.3386 
 123   0.0000       0.457608        12.4522 
 124   0.0000       0.466287        12.6883 
 125   0.0000       0.470060        12.7910 
 126   0.0000       0.480861        13.0849 
 127   0.0000       0.481555        13.1038 
 128   0.0000       0.484514        13.1843 
 129   0.0000       0.490878        13.3575 
 130   0.0000       0.502814        13.6823 
 131   0.0000       0.508047        13.8246 
 132   0.0000       0.515195        14.0192 
 133   0.0000       0.518721        14.1151 
 134   0.0000       0.526540        14.3279 
 135   0.0000       0.530050        14.4234 
 136   0.0000       0.534942        14.5565 
 137   0.0000       0.537218        14.6184 
 138   0.0000       0.548318        14.9205 
 139   0.0000       0.550080        14.9684 
 140   0.0000       0.554818        15.0974 
 141   0.0000       0.560881        15.2623 
 142   0.0000       0.566027        15.4024 
 143   0.0000       0.574513        15.6333 
 144   0.0000       0.578479        15.7412 
 145   0.0000       0.583291        15.8722 
 146   0.0000       0.584292        15.8994 
 147   0.0000       0.590502        16.0684 
 148   0.0000       0.595197        16.1961 
 149   0.0000       0.597744        16.2654 
 150   0.0000       0.602111        16.3843 
 151   0.0000       0.605316        16.4715 
 152   0.0000       0.612233        16.6597 
 153   0.0000       0.616626        16.7792 
 154   0.0000       0.619485        16.8570 
 155   0.0000       0.625840        17.0300 
 156   0.0000       0.630281        17.1508 
 157   0.0000       0.635667        17.2974 
 158   0.0000       0.641884        17.4666 
 159   0.0000       0.643487        17.5102 
 160   0.0000       0.650289        17.6953 
 161   0.0000       0.653684        17.7876 
 162   0.0000       0.659494        17.9457 
 163   0.0000       0.661114        17.9898 
 164   0.0000       0.670229        18.2379 
 165   0.0000       0.674545        18.3553 
 166   0.0000       0.678927        18.4745 
 167   0.0000       0.683341        18.5947 
 168   0.0000       0.690763        18.7966 
 169   0.0000       0.701037        19.0762 
 170   0.0000       0.707358        19.2482 
 171   0.0000       0.713061        19.4034 
 172   0.0000       0.718794        19.5594 
 173   0.0000       0.722000        19.6466 
 174   0.0000       0.732728        19.9385 
 175   0.0000       0.738998        20.1092 
 176   0.0000       0.745365        20.2824 
 177   0.0000       0.749947        20.4071 
 178   0.0000       0.756798        20.5935 
 179   0.0000       0.760592        20.6968 
 180   0.0000       0.770463        20.9654 
 181   0.0000       0.774100        21.0643 
 182   0.0000       0.790612        21.5137 
 183   0.0000       0.794741        21.6260 
 184   0.0000       0.811009        22.0687 
 185   0.0000       0.814944        22.1758 
 186   0.0000       0.821497        22.3541 
 187   0.0000       0.831277        22.6202 
 188   0.0000       0.836844        22.7717 
 189   0.0000       0.846096        23.0234 
 190   0.0000       0.851457        23.1693 
 191   0.0000       0.854721        23.2582 
 192   0.0000       0.858481        23.3605 
 193   0.0000       0.863288        23.4913 
 194   0.0000       0.872721        23.7479 
 195   0.0000       0.886480        24.1224 
 196   0.0000       0.887741        24.1567 
 197   0.0000       0.897150        24.4127 
 198   0.0000       0.903692        24.5907 
 199   0.0000       0.911421        24.8010 
 200   0.0000       0.917717        24.9723 
 201   0.0000       0.932445        25.3731 
 202   0.0000       0.936520        25.4840 
 203   0.0000       0.936618        25.4867 
 204   0.0000       0.943259        25.6674 
 205   0.0000       0.949950        25.8495 
 206   0.0000       0.957428        26.0530 
 207   0.0000       0.961220        26.1561 
 208   0.0000       0.968513        26.3546 
 209   0.0000       0.981144        26.6983 
 210   0.0000       0.985102        26.8060 
 211   0.0000       0.992658        27.0116 
 212   0.0000       1.004560        27.3355 
 213   0.0000       1.005409        27.3586 
 214   0.0000       1.015064        27.6213 
 215   0.0000       1.017549        27.6889 
 216   0.0000       1.022937        27.8355 
 217   0.0000       1.030568        28.0432 
 218   0.0000       1.042492        28.3676 
 219   0.0000       1.049978        28.5713 
 220   0.0000       1.055020        28.7086 
 221   0.0000       1.067446        29.0467 
 222   0.0000       1.073453        29.2102 
 223   0.0000       1.079694        29.3800 
 224   0.0000       1.088187        29.6111 
 225   0.0000       1.094672        29.7875 
 226   0.0000       1.097380        29.8612 
 227   0.0000       1.102441        29.9989 
 228   0.0000       1.113086        30.2886 
 229   0.0000       1.118644        30.4398 
 230   0.0000       1.130310        30.7573 
 231   0.0000       1.139481        31.0069 
 232   0.0000       1.145442        31.1691 
 233   0.0000       1.147664        31.2295 
 234   0.0000       1.159616        31.5548 
 235   0.0000       1.164686        31.6927 
 236   0.0000       1.171960        31.8906 
 237   0.0000       1.185265        32.2527 
 238   0.0000       1.194740        32.5105 
 239   0.0000       1.199224        32.6325 
 240   0.0000       1.205774        32.8108 
 241   0.0000       1.212551        32.9952 
 242   0.0000       1.218395        33.1542 
 243   0.0000       1.225185        33.3390 
 244   0.0000       1.229983        33.4695 
 245   0.0000       1.233208        33.5573 
 246   0.0000       1.238246        33.6944 
 247   0.0000       1.245704        33.8973 
 248   0.0000       1.260713        34.3057 
 249   0.0000       1.268184        34.5090 
 250   0.0000       1.275391        34.7052 
 251   0.0000       1.280174        34.8353 
 252   0.0000       1.288934        35.0737 
 253   0.0000       1.297137        35.2969 
 254   0.0000       1.303404        35.4674 
 255   0.0000       1.304045        35.4849 
 256   0.0000       1.319643        35.9093 
 257   0.0000       1.329676        36.1823 
 258   0.0000       1.337065        36.3834 
 259   0.0000       1.345274        36.6068 
 260   0.0000       1.347683        36.6723 
 261   0.0000       1.354923        36.8693 
 262   0.0000       1.365105        37.1464 
 263   0.0000       1.373065        37.3630 
 264   0.0000       1.378013        37.4976 
 265   0.0000       1.387177        37.7470 
 266   0.0000       1.394934        37.9581 
 267   0.0000       1.410805        38.3900 
 268   0.0000       1.414379        38.4872 
 269   0.0000       1.427207        38.8363 
 270   0.0000       1.433357        39.0036 
 271   0.0000       1.439827        39.1797 
 272   0.0000       1.445303        39.3287 
 273   0.0000       1.449752        39.4498 
 274   0.0000       1.460354        39.7383 
 275   0.0000       1.461321        39.7646 
 276   0.0000       1.476421        40.1755 
 277   0.0000       1.480945        40.2986 
 278   0.0000       1.490377        40.5552 
 279   0.0000       1.499044        40.7911 
 280   0.0000       1.505384        40.9636 
 281   0.0000       1.510098        41.0919 
 282   0.0000       1.518822        41.3292 
 283   0.0000       1.536190        41.8019 
 284   0.0000       1.536565        41.8121 
 285   0.0000       1.537983        41.8507 
 286   0.0000       1.541254        41.9397 
 287   0.0000       1.544488        42.0277 
 288   0.0000       1.548773        42.1442 
 289   0.0000       1.558867        42.4189 
 290   0.0000       1.564135        42.5623 
 291   0.0000       1.572901        42.8008 
 292   0.0000       1.583807        43.0976 
 293   0.0000       1.592311        43.3290 
 294   0.0000       1.594921        43.4000 
 295   0.0000       1.607664        43.7468 
 296   0.0000       1.611514        43.8515 
 297   0.0000       1.623325        44.1729 
 298   0.0000       1.626117        44.2489 
 299   0.0000       1.636231        44.5241 
 300   0.0000       1.640116        44.6298 
 301   0.0000       1.643878        44.7322 
 302   0.0000       1.657795        45.1109 
 303   0.0000       1.663229        45.2588 
 304   0.0000       1.674674        45.5702 
 305   0.0000       1.678463        45.6733 
 306   0.0000       1.685789        45.8726 
 307   0.0000       1.699120        46.2354 
 308   0.0000       1.710638        46.5488 
 309   0.0000       1.714220        46.6463 
 310   0.0000       1.716753        46.7152 
 311   0.0000       1.727182        46.9990 
 312   0.0000       1.741005        47.3752 
 313   0.0000       1.746725        47.5308 
 314   0.0000       1.753110        47.7045 
 315   0.0000       1.762641        47.9639 
 316   0.0000       1.774318        48.2816 
 317   0.0000       1.790381        48.7187 
 318   0.0000       1.794173        48.8219 
 319   0.0000       1.804976        49.1159 
 320   0.0000       1.827829        49.7378 
 321   0.0000       1.841264        50.1033 
 322   0.0000       1.852110        50.3985 
 323   0.0000       1.866211        50.7822 
 324   0.0000       1.867793        50.8252 
 325   0.0000       1.885413        51.3047 
 326   0.0000       1.891039        51.4578 
 327   0.0000       1.902177        51.7609 
 328   0.0000       1.910555        51.9888 
 329   0.0000       1.932138        52.5761 
 330   0.0000       1.938628        52.7528 
 331   0.0000       1.944430        52.9106 
 332   0.0000       1.952333        53.1257 
 333   0.0000       1.969114        53.5823 
 334   0.0000       1.976389        53.7803 
 335   0.0000       1.986007        54.0420 
 336   0.0000       1.997608        54.3577 
 337   0.0000       2.000228        54.4290 
 338   0.0000       2.016868        54.8818 
 339   0.0000       2.022791        55.0429 
 340   0.0000       2.040075        55.5133 
 341   0.0000       2.052514        55.8517 
 342   0.0000       2.060142        56.0593 
 343   0.0000       2.081488        56.6402 
 344   0.0000       2.083906        56.7060 
 345   0.0000       2.103450        57.2378 
 346   0.0000       2.121914        57.7402 
 347   0.0000       2.130102        57.9630 
 348   0.0000       2.147447        58.4350 
 349   0.0000       2.153676        58.6045 
 350   0.0000       2.188125        59.5419 
 351   0.0000       2.199261        59.8449 
 352   0.0000       2.210762        60.1579 
 353   0.0000       2.219568        60.3975 
 354   0.0000       2.227781        60.6210 
 355   0.0000       2.271214        61.8029 
 356   0.0000       2.288321        62.2684 
 357   0.0000       2.290945        62.3398 
 358   0.0000       2.303255        62.6748 
 359   0.0000       2.321672        63.1759 
 360   0.0000       2.324188        63.2444 
 361   0.0000       2.327722        63.3405 
 362   0.0000       2.349619        63.9364 
 363   0.0000       2.358680        64.1829 
 364   0.0000       2.372936        64.5709 
 365   0.0000       2.377059        64.6831 
 366   0.0000       2.384705        64.8911 
 367   0.0000       2.398496        65.2664 
 368   0.0000       2.409624        65.5692 
 369   0.0000       2.430670        66.1419 
 370   0.0000       2.439961        66.3947 
 371   0.0000       2.465018        67.0766 
 372   0.0000       2.470750        67.2325 
 373   0.0000       2.477707        67.4218 
 374   0.0000       2.491915        67.8085 
 375   0.0000       2.500253        68.0353 
 376   0.0000       2.526775        68.7570 
 377   0.0000       2.536864        69.0316 
 378   0.0000       2.546675        69.2986 
 379   0.0000       2.548202        69.3401 
 380   0.0000       2.576176        70.1013 
 381   0.0000       2.591128        70.5082 
 382   0.0000       2.593684        70.5777 
 383   0.0000       2.604925        70.8836 
 384   0.0000       2.612879        71.1001 
 385   0.0000       2.632366        71.6303 
 386   0.0000       2.635907        71.7267 
 387   0.0000       2.651643        72.1549 
 388   0.0000       2.656680        72.2920 
 389   0.0000       2.676595        72.8339 
 390   0.0000       2.680257        72.9335 
 391   0.0000       2.701640        73.5154 
 392   0.0000       2.708142        73.6923 
 393   0.0000       2.712610        73.8139 
 394   0.0000       2.733294        74.3767 
 395   0.0000       2.743713        74.6602 
 396   0.0000       2.754192        74.9454 
 397   0.0000       2.762737        75.1779 
 398   0.0000       2.774524        75.4986 
 399   0.0000       2.779159        75.6248 
 400   0.0000       2.794402        76.0396 
 401   0.0000       2.806084        76.3574 
 402   0.0000       2.818214        76.6875 
 403   0.0000       2.825220        76.8782 
 404   0.0000       2.831690        77.0542 
 405   0.0000       2.845038        77.4174 
 406   0.0000       2.851610        77.5963 
 407   0.0000       2.869024        78.0701 
 408   0.0000       2.872622        78.1680 
 409   0.0000       2.876840        78.2828 
 410   0.0000       2.891269        78.6754 
 411   0.0000       2.900677        78.9314 
 412   0.0000       2.910701        79.2042 
 413   0.0000       2.913003        79.2668 
 414   0.0000       2.920763        79.4780 
 415   0.0000       2.932234        79.7902 
 416   0.0000       2.933833        79.8337 
 417   0.0000       2.947474        80.2048 
 418   0.0000       2.952482        80.3411 
 419   0.0000       2.958064        80.4930 
 420   0.0000       2.970392        80.8285 
 421   0.0000       2.971198        80.8504 
 422   0.0000       2.992081        81.4187 
 423   0.0000       3.003117        81.7190 
 424   0.0000       3.013068        81.9897 
 425   0.0000       3.016196        82.0749 
 426   0.0000       3.018685        82.1426 
 427   0.0000       3.028930        82.4214 
 428   0.0000       3.035165        82.5910 
 429   0.0000       3.040070        82.7245 
 430   0.0000       3.045525        82.8730 
 431   0.0000       3.053144        83.0803 
 432   0.0000       3.057424        83.1967 
 433   0.0000       3.073094        83.6231 
 434   0.0000       3.079971        83.8103 
 435   0.0000       3.082453        83.8778 
 436   0.0000       3.089589        84.0720 
 437   0.0000       3.101641        84.4000 
 438   0.0000       3.104390        84.4748 
 439   0.0000       3.116211        84.7964 
 440   0.0000       3.123299        84.9893 
 441   0.0000       3.129389        85.1550 
 442   0.0000       3.138739        85.4094 
 443   0.0000       3.146907        85.6317 
 444   0.0000       3.152846        85.7933 
 445   0.0000       3.157424        85.9179 
 446   0.0000       3.167849        86.2015 
 447   0.0000       3.176463        86.4359 
 448   0.0000       3.184231        86.6473 
 449   0.0000       3.198378        87.0323 
 450   0.0000       3.204724        87.2050 
 451   0.0000       3.215064        87.4863 
 452   0.0000       3.220274        87.6281 
 453   0.0000       3.221738        87.6679 
 454   0.0000       3.228292        87.8463 
 455   0.0000       3.244182        88.2787 
 456   0.0000       3.245711        88.3203 
 457   0.0000       3.259579        88.6976 
 458   0.0000       3.261804        88.7582 
 459   0.0000       3.270529        88.9956 
 460   0.0000       3.277111        89.1747 
 461   0.0000       3.280281        89.2610 
 462   0.0000       3.290649        89.5431 
 463   0.0000       3.292601        89.5962 
 464   0.0000       3.299288        89.7782 
 465   0.0000       3.310775        90.0908 
 466   0.0000       3.316337        90.2421 
 467   0.0000       3.318750        90.3078 
 468   0.0000       3.323815        90.4456 
 469   0.0000       3.330041        90.6150 
 470   0.0000       3.339977        90.8854 
 471   0.0000       3.348836        91.1265 
 472   0.0000       3.351097        91.1880 
 473   0.0000       3.354390        91.2776 
 474   0.0000       3.365625        91.5833 
 475   0.0000       3.367528        91.6351 
 476   0.0000       3.371301        91.7378 
 477   0.0000       3.376074        91.8676 
 478   0.0000       3.381237        92.0081 
 479   0.0000       3.388428        92.2038 
 480   0.0000       3.390840        92.2694 
 481   0.0000       3.396051        92.4112 
 482   0.0000       3.400657        92.5366 
 483   0.0000       3.409203        92.7691 
 484   0.0000       3.412177        92.8500 
 485   0.0000       3.423696        93.1635 
 486   0.0000       3.429657        93.3257 
 487   0.0000       3.433141        93.4205 
 488   0.0000       3.439635        93.5972 
 489   0.0000       3.446255        93.7774 
 490   0.0000       3.449029        93.8529 
 491   0.0000       3.454150        93.9922 
 492   0.0000       3.460427        94.1630 
 493   0.0000       3.465482        94.3006 
 494   0.0000       3.470151        94.4276 
 495   0.0000       3.480574        94.7112 
 496   0.0000       3.486941        94.8845 
 497   0.0000       3.494747        95.0969 
 498   0.0000       3.503747        95.3418 
 499   0.0000       3.505973        95.4024 
 500   0.0000       3.515483        95.6611 
 501   0.0000       3.521848        95.8344 
 502   0.0000       3.527881        95.9985 
 503   0.0000       3.535919        96.2172 
 504   0.0000       3.549504        96.5869 
 505   0.0000       3.558365        96.8280 
 506   0.0000       3.567757        97.0836 
 507   0.0000       3.577367        97.3451 
 508   0.0000       3.587102        97.6100 
 509   0.0000       3.593587        97.7865 
 510   0.0000       3.596667        97.8703 
 511   0.0000       3.601419        97.9996 
 512   0.0000       3.614698        98.3609 
 513   0.0000       3.617508        98.4374 
 514   0.0000       3.621155        98.5366 
 515   0.0000       3.631880        98.8285 
 516   0.0000       3.633337        98.8681 
 517   0.0000       3.641464        99.0893 
 518   0.0000       3.645697        99.2045 
 519   0.0000       3.654486        99.4436 
 520   0.0000       3.663042        99.6764 
 521   0.0000       3.670597        99.8820 
 522   0.0000       3.675503       100.0155 
 523   0.0000       3.683231       100.2258 
 524   0.0000       3.685932       100.2993 
 525   0.0000       3.691536       100.4518 
 526   0.0000       3.695260       100.5531 
 527   0.0000       3.701058       100.7109 
 528   0.0000       3.703926       100.7889 
 529   0.0000       3.711918       101.0064 
 530   0.0000       3.715403       101.1012 
 531   0.0000       3.724051       101.3366 
 532   0.0000       3.728985       101.4708 
 533   0.0000       3.741157       101.8020 
 534   0.0000       3.753422       102.1358 
 535   0.0000       3.758526       102.2747 
 536   0.0000       3.763286       102.4042 
 537   0.0000       3.764961       102.4498 
 538   0.0000       3.773628       102.6856 
 539   0.0000       3.782156       102.9177 
 540   0.0000       3.788069       103.0786 
 541   0.0000       3.794374       103.2502 
 542   0.0000       3.799792       103.3976 
 543   0.0000       3.809777       103.6693 
 544   0.0000       3.812398       103.7406 
 545   0.0000       3.826697       104.1297 
 546   0.0000       3.834434       104.3402 
 547   0.0000       3.840197       104.4971 
 548   0.0000       3.849385       104.7471 
 549   0.0000       3.858868       105.0051 
 550   0.0000       3.862415       105.1017 
 551   0.0000       3.874441       105.4289 
 552   0.0000       3.877854       105.5218 
 553   0.0000       3.878657       105.5436 
 554   0.0000       3.894661       105.9791 
 555   0.0000       3.901166       106.1561 
 556   0.0000       3.908025       106.3428 
 557   0.0000       3.914076       106.5074 
 558   0.0000       3.929681       106.9320 
 559   0.0000       3.933717       107.0419 
 560   0.0000       3.936196       107.1094 
 561   0.0000       3.953963       107.5928 
 562   0.0000       3.967145       107.9515 
 563   0.0000       3.969984       108.0288 
 564   0.0000       3.981673       108.3468 
 565   0.0000       3.993835       108.6778 
 566   0.0000       4.000844       108.8685 
 567   0.0000       4.007028       109.0368 
 568   0.0000       4.020230       109.3960 
 569   0.0000       4.027574       109.5959 
 570   0.0000       4.029816       109.6569 
 571   0.0000       4.035906       109.8226 
 572   0.0000       4.058704       110.4429 
 573   0.0000       4.069055       110.7246 
 574   0.0000       4.071412       110.7887 
 575   0.0000       4.077794       110.9624 
 576   0.0000       4.086175       111.1905 
 577   0.0000       4.097022       111.4856 
 578   0.0000       4.105990       111.7297 
 579   0.0000       4.114228       111.9538 
 580   0.0000       4.118824       112.0789 
 581   0.0000       4.123083       112.1948 
 582   0.0000       4.124763       112.2405 
 583   0.0000       4.136652       112.5640 
 584   0.0000       4.142053       112.7110 
 585   0.0000       4.151810       112.9765 
 586   0.0000       4.161209       113.2323 
 587   0.0000       4.167842       113.4128 
 588   0.0000       4.171844       113.5216 
 589   0.0000       4.179312       113.7249 
 590   0.0000       4.182472       113.8108 
 591   0.0000       4.191031       114.0438 
 592   0.0000       4.197554       114.2213 
 593   0.0000       4.213332       114.6506 
 594   0.0000       4.215285       114.7037 
 595   0.0000       4.221475       114.8722 
 596   0.0000       4.229892       115.1012 
 597   0.0000       4.234921       115.2381 
 598   0.0000       4.242622       115.4476 
 599   0.0000       4.258368       115.8761 
 600   0.0000       4.258908       115.8908 
 601   0.0000       4.266988       116.1107 
 602   0.0000       4.275246       116.3354 
 603   0.0000       4.292394       116.8020 
 604   0.0000       4.297666       116.9454 
 605   0.0000       4.305614       117.1617 
 606   0.0000       4.313138       117.3664 
 607   0.0000       4.314720       117.4095 
 608   0.0000       4.317985       117.4983 
 609   0.0000       4.325714       117.7087 
 610   0.0000       4.349591       118.3584 
 611   0.0000       4.354417       118.4897 
 612   0.0000       4.358212       118.5930 
 613   0.0000       4.367760       118.8528 
 614   0.0000       4.372028       118.9689 
 615   0.0000       4.380662       119.2039 
 616   0.0000       4.394080       119.5690 
 617   0.0000       4.404626       119.8560 
 618   0.0000       4.416728       120.1853 
 619   0.0000       4.424303       120.3914 
 620   0.0000       4.434413       120.6665 
 621   0.0000       4.442089       120.8754 
 622   0.0000       4.445320       120.9633 
 623   0.0000       4.452659       121.1630 
 624   0.0000       4.463102       121.4472 
 625   0.0000       4.464182       121.4766 
 626   0.0000       4.470264       121.6421 
 627   0.0000       4.484571       122.0314 
 628   0.0000       4.500095       122.4538 
 629   0.0000       4.506654       122.6323 
 630   0.0000       4.513525       122.8193 
 631   0.0000       4.528300       123.2213 
 632   0.0000       4.529392       123.2510 
 633   0.0000       4.537809       123.4801 
 634   0.0000       4.541924       123.5920 
 635   0.0000       4.551144       123.8429 
 636   0.0000       4.555744       123.9681 
 637   0.0000       4.566316       124.2558 
 638   0.0000       4.574680       124.4834 
 639   0.0000       4.583036       124.7108 
 640   0.0000       4.601115       125.2027 
 641   0.0000       4.606969       125.3620 
 642   0.0000       4.611129       125.4752 
 643   0.0000       4.619533       125.7039 
 644   0.0000       4.629595       125.9777 
 645   0.0000       4.638442       126.2184 
 646   0.0000       4.640762       126.2816 
 647   0.0000       4.646841       126.4470 
 648   0.0000       4.653100       126.6173 
 649   0.0000       4.661313       126.8408 
 650   0.0000       4.674240       127.1925 
 651   0.0000       4.675413       127.2244 
 652   0.0000       4.680378       127.3596 
 653   0.0000       4.695342       127.7668 
 654   0.0000       4.697556       127.8270 
 655   0.0000       4.709169       128.1430 
 656   0.0000       4.718083       128.3856 
 657   0.0000       4.727572       128.6438 
 658   0.0000       4.735657       128.8638 
 659   0.0000       4.753328       129.3446 
 660   0.0000       4.768902       129.7684 
 661   0.0000       4.773254       129.8869 
 662   0.0000       4.789470       130.3281 
 663   0.0000       4.806289       130.7858 
 664   0.0000       4.822235       131.2197 
 665   0.0000       4.832676       131.5038 
 666   0.0000       4.851195       132.0077 
 667   0.0000       4.871260       132.5537 
 668   0.0000       4.892334       133.1272 
 669   0.0000       4.913394       133.7003 
 670   0.0000       4.919746       133.8731 
 671   0.0000       4.928196       134.1030 
 672   0.0000       4.934700       134.2800 
 673   0.0000       4.950359       134.7061 
 674   0.0000       4.970793       135.2622 
 675   0.0000       4.985566       135.6642 
 676   0.0000       5.013591       136.4267 
 677   0.0000       5.022383       136.6660 
 678   0.0000       5.030662       136.8913 
 679   0.0000       5.040167       137.1499 
 680   0.0000       5.051286       137.4525 
 681   0.0000       5.060557       137.7048 
 682   0.0000       5.080052       138.2352 
 683   0.0000       5.091423       138.5447 
 684   0.0000       5.110200       139.0556 
 685   0.0000       5.114795       139.1807 
 686   0.0000       5.117282       139.2483 
 687   0.0000       5.131351       139.6312 
 688   0.0000       5.137350       139.7944 
 689   0.0000       5.148650       140.1019 
 690   0.0000       5.174077       140.7938 
 691   0.0000       5.180595       140.9712 
 692   0.0000       5.190186       141.2321 
 693   0.0000       5.201895       141.5508 
 694   0.0000       5.208284       141.7246 
 695   0.0000       5.220518       142.0575 
 696   0.0000       5.223589       142.1411 
 697   0.0000       5.236765       142.4996 
 698   0.0000       5.245403       142.7347 
 699   0.0000       5.255703       143.0150 
 700   0.0000       5.270556       143.4191 
 701   0.0000       5.281426       143.7149 
 702   0.0000       5.292902       144.0272 
 703   0.0000       5.297354       144.1483 
 704   0.0000       5.315794       144.6501 
 705   0.0000       5.332586       145.1070 
 706   0.0000       5.335129       145.1762 
 707   0.0000       5.345489       145.4581 
 708   0.0000       5.353251       145.6694 
 709   0.0000       5.373853       146.2300 
 710   0.0000       5.388989       146.6418 
 711   0.0000       5.395854       146.8287 
 712   0.0000       5.439065       148.0045 
 713   0.0000       5.466541       148.7521 
 714   0.0000       5.472727       148.9205 
 715   0.0000       5.482202       149.1783 
 716   0.0000       5.489348       149.3728 
 717   0.0000       5.498694       149.6271 
 718   0.0000       5.511635       149.9792 
 719   0.0000       5.525222       150.3489 
 720   0.0000       5.540197       150.7564 
 721   0.0000       5.555539       151.1739 
 722   0.0000       5.559288       151.2759 
 723   0.0000       5.571682       151.6132 
 724   0.0000       5.582388       151.9045 
 725   0.0000       5.585399       151.9864 
 726   0.0000       5.612364       152.7202 
 727   0.0000       5.632267       153.2618 
 728   0.0000       5.639291       153.4529 
 729   0.0000       5.646996       153.6626 
 730   0.0000       5.657415       153.9461 
 731   0.0000       5.665986       154.1793 
 732   0.0000       5.675952       154.4505 
 733   0.0000       5.694069       154.9435 
 734   0.0000       5.703730       155.2064 
 735   0.0000       5.719549       155.6368 
 736   0.0000       5.730743       155.9414 
 737   0.0000       5.742338       156.2570 
 738   0.0000       5.747387       156.3943 
 739   0.0000       5.750309       156.4739 
 740   0.0000       5.759332       156.7194 
 741   0.0000       5.776183       157.1779 
 742   0.0000       5.790166       157.5584 
 743   0.0000       5.801660       157.8712 
 744   0.0000       5.813089       158.1822 
 745   0.0000       5.826652       158.5513 
 746   0.0000       5.841429       158.9534 
 747   0.0000       5.858283       159.4120 
 748   0.0000       5.883474       160.0975 
 749   0.0000       5.889005       160.2480 
 750   0.0000       5.936427       161.5384 
 751   0.0000       5.957207       162.1039 
 752   0.0000       5.971319       162.4878 
 753   0.0000       5.995404       163.1432 
 754   0.0000       5.999694       163.2600 
 755   0.0000       6.011594       163.5838 
 756   0.0000       6.045131       164.4964 
 757   0.0000       6.052302       164.6915 
 758   0.0000       6.069204       165.1514 
 759   0.0000       6.077904       165.3882 
 760   0.0000       6.105833       166.1482 
 761   0.0000       6.175386       168.0408 
 762   0.0000       6.221114       169.2851 
 763   0.0000       6.238127       169.7481 
 764   0.0000       6.240769       169.8199 
 765   0.0000       6.309386       171.6871 
 766   0.0000       6.324978       172.1114 
 767   0.0000       6.334416       172.3682 
 768   0.0000       6.350247       172.7990 
 769   0.0000       6.366751       173.2481 
 770   0.0000       6.386557       173.7871 
 771   0.0000       6.400867       174.1764 
 772   0.0000       6.417530       174.6299 
 773   0.0000       6.441342       175.2778 
 774   0.0000       6.453877       175.6189 
 775   0.0000       6.458990       175.7580 
 776   0.0000       6.502820       176.9507 
 777   0.0000       6.514823       177.2773 
 778   0.0000       6.554833       178.3661 
 779   0.0000       6.613951       179.9748 
 780   0.0000       6.668395       181.4562 
 781   0.0000       6.697358       182.2444 
 782   0.0000       6.729265       183.1126 
 783   0.0000       6.737196       183.3284 
 784   0.0000       6.829126       185.8300 
 785   0.0000       6.888991       187.4590 
 786   0.0000       6.908963       188.0024 
 787   0.0000       6.920321       188.3115 
 788   0.0000       6.964707       189.5193 
 789   0.0000       7.005077       190.6178 
 790   0.0000       7.051657       191.8853 
 791   0.0000       7.065581       192.2642 
 792   0.0000       7.081678       192.7022 
 793   0.0000       7.127592       193.9516 
 794   0.0000       7.140021       194.2899 
 795   0.0000       7.214290       196.3108 
 796   0.0000       7.259646       197.5450 
 797   0.0000       7.280994       198.1259 
 798   0.0000       7.341444       199.7709 
 799   0.0000       7.397127       201.2861 
 800   0.0000       7.429496       202.1669 
 801   0.0000       7.519439       204.6143 
 802   0.0000       7.581119       206.2927 
 803   0.0000       7.585407       206.4094 
 804   0.0000       7.606966       206.9961 
 805   0.0000       7.740695       210.6350 
 806   0.0000       7.821515       212.8342 
 807   0.0000       7.932983       215.8674 
 808   0.0000       8.090670       220.1583 
 809   0.0000       9.485762       258.1207 
 810   0.0000       9.575186       260.5540 
 811   0.0000      10.797029       293.8021 
 812   0.0000      11.119691       302.5822 
 813   0.0000      11.960149       325.4522 
 814   0.0000      12.550277       341.5104 
 815   0.0000      12.804384       348.4250 
 816   0.0000      12.947271       352.3132 
 817   0.0000      13.080842       355.9478 
 818   0.0000      13.292381       361.7041 
 819   0.0000      13.439638       365.7111 
 820   0.0000      13.513141       367.7113 
 821   0.0000      13.741500       373.9252 
 822   0.0000      13.952394       379.6639 
 823   0.0000      14.163391       385.4055 
 824   0.0000      14.254857       387.8944 
 825   0.0000      14.510054       394.8386 
 826   0.0000      14.746351       401.2686 
 827   0.0000      15.967017       434.4846 

                    ********************************
                    * MULLIKEN POPULATION ANALYSIS *
                    ********************************

-----------------------
MULLIKEN ATOMIC CHARGES
-----------------------
   0 C :   -0.351399
   1 C :    0.053377
   2 O :   -0.339063
   3 C :    0.423099
   4 O :   -0.385678
   5 C :   -0.216660
   6 C :    0.146155
   7 C :   -0.325919
   8 N :   -0.141311
   9 C :    0.204211
  10 S :   -0.440747
  11 N :   -0.229328
  12 C :    0.102220
  13 C :    0.013943
  14 C :   -0.218008
  15 C :   -0.135136
  16 C :   -0.275590
  17 C :    0.323818
  18 O :   -0.357458
  19 C :   -0.279845
  20 H :    0.136377
  21 H :    0.124225
  22 H :    0.102314
  23 H :    0.125333
  24 H :    0.089578
  25 H :    0.130035
  26 H :    0.139812
  27 H :    0.119963
  28 H :    0.196964
  29 H :    0.203210
  30 H :    0.166911
  31 H :    0.178742
  32 H :    0.164304
  33 H :    0.132024
  34 H :    0.241052
  35 H :    0.178475
Sum of atomic charges:   -0.0000000

--------------------------------
MULLIKEN REDUCED ORBITAL CHARGES
--------------------------------
  0 C s       :     3.274674  s :     3.274674
      pz      :     0.951832  p :     2.991555
      px      :     1.048761
      py      :     0.990962
      dz2     :     0.023361  d :     0.080736
      dxz     :     0.011980
      dyz     :     0.012821
      dx2y2   :     0.025316
      dxy     :     0.007257
      f0      :     0.000457  f :     0.004434
      f+1     :     0.000991
      f-1     :     0.001034
      f+2     :     0.000431
      f-2     :     0.000492
      f+3     :     0.000306
      f-3     :     0.000723
  1 C s       :     3.168341  s :     3.168341
      pz      :     0.958055  p :     2.614200
      px      :     0.628317
      py      :     1.027828
      dz2     :     0.028241  d :     0.152818
      dxz     :     0.036063
      dyz     :     0.017076
      dx2y2   :     0.036763
      dxy     :     0.034675
      f0      :     0.001288  f :     0.011264
      f+1     :     0.001624
      f-1     :     0.001425
      f+2     :     0.001849
      f-2     :     0.000593
      f+3     :     0.002220
      f-3     :     0.002264
  2 O s       :     3.720358  s :     3.720358
      pz      :     1.709708  p :     4.586665
      px      :     1.165918
      py      :     1.711038
      dz2     :     0.004196  d :     0.029737
      dxz     :     0.008339
      dyz     :     0.002859
      dx2y2   :     0.005165
      dxy     :     0.009177
      f0      :     0.000215  f :     0.002304
      f+1     :     0.000367
      f-1     :     0.000064
      f+2     :     0.000322
      f-2     :     0.000324
      f+3     :     0.000535
      f-3     :     0.000477
  3 C s       :     3.073558  s :     3.073558
      pz      :     0.686987  p :     2.183308
      px      :     0.700358
      py      :     0.795963
      dz2     :     0.028455  d :     0.293677
      dxz     :     0.087518
      dyz     :     0.021927
      dx2y2   :     0.084191
      dxy     :     0.071586
      f0      :     0.002237  f :     0.026358
      f+1     :     0.003026
      f-1     :     0.001843
      f+2     :     0.002791
      f-2     :     0.004581
      f+3     :     0.007931
      f-3     :     0.003948
  4 O s       :     3.767236  s :     3.767236
      pz      :     1.542884  p :     4.580083
      px      :     1.451041
      py      :     1.586157
      dz2     :     0.003798  d :     0.035866
      dxz     :     0.008123
      dyz     :     0.002971
      dx2y2   :     0.009904
      dxy     :     0.011070
      f0      :     0.000241  f :     0.002494
      f+1     :     0.000307
      f-1     :     0.000114
      f+2     :     0.000111
      f-2     :     0.000349
      f+3     :     0.000609
      f-3     :     0.000763
  5 C s       :     3.176449  s :     3.176449
      pz      :     0.937658  p :     2.942457
      px      :     1.069024
      py      :     0.935775
      dz2     :     0.016723  d :     0.087148
      dxz     :     0.013768
      dyz     :     0.027015
      dx2y2   :     0.015795
      dxy     :     0.013847
      f0      :     0.001193  f :     0.010607
      f+1     :     0.001215
      f-1     :     0.001922
      f+2     :     0.001976
      f-2     :     0.001076
      f+3     :     0.001304
      f-3     :     0.001922
  6 C s       :     3.176142  s :     3.176142
      pz      :     0.856775  p :     2.488033
      px      :     0.868626
      py      :     0.762632
      dz2     :     0.033681  d :     0.175383
      dxz     :     0.021526
      dyz     :     0.045861
      dx2y2   :     0.032663
      dxy     :     0.041652
      f0      :     0.001804  f :     0.014287
      f+1     :     0.001115
      f-1     :     0.003140
      f+2     :     0.002461
      f-2     :     0.002205
      f+3     :     0.001635
      f-3     :     0.001927
  7 C s       :     3.295052  s :     3.295052
      pz      :     0.887289  p :     2.953864
      px      :     1.004948
      py      :     1.061627
      dz2     :     0.017414  d :     0.072336
      dxz     :     0.011713
      dyz     :     0.016960
      dx2y2   :     0.015470
      dxy     :     0.010779
      f0      :     0.001051  f :     0.004667
      f+1     :     0.000903
      f-1     :     0.000893
      f+2     :     0.000551
      f-2     :     0.000265
      f+3     :     0.000809
      f-3     :     0.000194
  8 N s       :     3.359277  s :     3.359277
      pz      :     1.118876  p :     3.718126
      px      :     1.483990
      py      :     1.115260
      dz2     :     0.015213  d :     0.058924
      dxz     :     0.009339
      dyz     :     0.017119
      dx2y2   :     0.007314
      dxy     :     0.009939
      f0      :     0.000772  f :     0.004984
      f+1     :     0.000940
      f-1     :     0.000875
      f+2     :     0.000851
      f-2     :     0.000715
      f+3     :     0.000472
      f-3     :     0.000361
  9 C s       :     3.166622  s :     3.166622
      pz      :     0.778208  p :     2.349749
      px      :     0.691057
      py      :     0.880485
      dz2     :     0.067448  d :     0.261836
      dxz     :     0.037769
      dyz     :     0.052636
      dx2y2   :     0.045197
      dxy     :     0.058785
      f0      :     0.003255  f :     0.017582
      f+1     :     0.002096
      f-1     :     0.002989
      f+2     :     0.002511
      f-2     :     0.002112
      f+3     :     0.002054
      f-3     :     0.002566
 10 S s       :     5.855895  s :     5.855895
      pz      :     3.562240  p :    10.490108
      px      :     3.701992
      py      :     3.225877
      dz2     :     0.007142  d :     0.084617
      dxz     :     0.005348
      dyz     :     0.038732
      dx2y2   :     0.021286
      dxy     :     0.012110
      f0      :     0.001267  f :     0.010127
      f+1     :     0.000061
      f-1     :     0.001767
      f+2     :     0.003423
      f-2     :     0.001161
      f+3     :     0.001035
      f-3     :     0.001412
 11 N s       :     3.392840  s :     3.392840
      pz      :     1.229083  p :     3.774331
      px      :     1.485828
      py      :     1.059420
      dz2     :     0.011780  d :     0.057711
      dxz     :     0.006129
      dyz     :     0.015262
      dx2y2   :     0.011959
      dxy     :     0.012582
      f0      :     0.000374  f :     0.004446
      f+1     :     0.000534
      f-1     :     0.000565
      f+2     :     0.000713
      f-2     :     0.000628
      f+3     :     0.000813
      f-3     :     0.000819
 12 C s       :     3.098077  s :     3.098077
      pz      :     0.826717  p :     2.605210
      px      :     1.019433
      py      :     0.759060
      dz2     :     0.037795  d :     0.183374
      dxz     :     0.026214
      dyz     :     0.039970
      dx2y2   :     0.040817
      dxy     :     0.038577
      f0      :     0.001364  f :     0.011119
      f+1     :     0.001251
      f-1     :     0.001957
      f+2     :     0.002024
      f-2     :     0.001590
      f+3     :     0.001536
      f-3     :     0.001396
 13 C s       :     3.123460  s :     3.123460
      pz      :     0.918738  p :     2.745592
      px      :     0.894818
      py      :     0.932037
      dz2     :     0.019411  d :     0.105873
      dxz     :     0.007976
      dyz     :     0.031628
      dx2y2   :     0.020372
      dxy     :     0.026486
      f0      :     0.001200  f :     0.011132
      f+1     :     0.001547
      f-1     :     0.001122
      f+2     :     0.001965
[...]
      f-1     :     0.005999
      f+2     :     0.006349
      f-2     :     0.005479
      f+3     :     0.006485
      f-3     :     0.009321
 15 C s       :     2.705807  s :     2.705807
      pz      :     0.902073  p :     2.792370
      px      :     0.917818
      py      :     0.972479
      dz2     :     0.097331  d :     0.416353
      dxz     :     0.065441
      dyz     :     0.064475
      dx2y2   :     0.102711
      dxy     :     0.086395
      f0      :     0.003311  f :     0.041084
      f+1     :     0.005127
      f-1     :     0.006587
      f+2     :     0.006612
      f-2     :     0.006994
      f+3     :     0.006063
      f-3     :     0.006390
 16 C s       :     2.701810  s :     2.701810
      pz      :     0.941564  p :     2.868408
      px      :     0.955839
      py      :     0.971004
      dz2     :     0.049542  d :     0.390802
      dxz     :     0.052927
      dyz     :     0.094900
      dx2y2   :     0.089534
      dxy     :     0.103898
      f0      :     0.005096  f :     0.040351
      f+1     :     0.004591
      f-1     :     0.003503
      f+2     :     0.005802
      f-2     :     0.006230
      f+3     :     0.007769
      f-3     :     0.007361
 17 C s       :     2.701688  s :     2.701688
      pz      :     0.832533  p :     2.683204
      px      :     0.817585
      py      :     1.033086
      dz2     :     0.134317  d :     0.709445
      dxz     :     0.108366
      dyz     :     0.146497
      dx2y2   :     0.159845
      dxy     :     0.160420
      f0      :     0.011128  f :     0.099329
      f+1     :     0.015652
      f-1     :     0.010101
      f+2     :     0.015015
      f-2     :     0.016603
      f+3     :     0.014024
      f-3     :     0.016807
 18 O s       :     3.177217  s :     3.177217
      pz      :     1.429048  p :     4.346821
      px      :     1.441146
      py      :     1.476627
      dz2     :     0.009640  d :     0.075579
      dxz     :     0.017894
      dyz     :     0.017955
      dx2y2   :     0.016440
      dxy     :     0.013650
      f0      :     0.000624  f :     0.005070
      f+1     :     0.000789
      f-1     :     0.000355
      f+2     :     0.000888
      f-2     :     0.000952
      f+3     :     0.000637
      f-3     :     0.000825
 19 C s       :     2.696588  s :     2.696588
      pz      :     0.936484  p :     2.848710
      px      :     0.942924
      py      :     0.969302
      dz2     :     0.078491  d :     0.388212
      dxz     :     0.062929
      dyz     :     0.067862
      dx2y2   :     0.089950
      dxy     :     0.088980
      f0      :     0.003371  f :     0.040617
      f+1     :     0.005203
      f-1     :     0.006016
      f+2     :     0.006706
      f-2     :     0.007446
      f+3     :     0.006117
      f-3     :     0.005759
 20 H s       :     0.836461  s :     0.836461
      pz      :     0.069235  p :     0.160766
      px      :     0.050029
      py      :     0.041502
      dz2     :     0.008932  d :     0.028110
      dxz     :     0.006635
      dyz     :     0.006344
      dx2y2   :     0.003812
      dxy     :     0.002387
 21 H s       :     0.839969  s :     0.839969
      pz      :     0.040968  p :     0.152480
      px      :     0.070289
      py      :     0.041223
      dz2     :     0.002441  d :     0.027702
      dxz     :     0.009005
      dyz     :     0.000488
      dx2y2   :     0.007590
      dxy     :     0.008178
 22 H s       :     0.850227  s :     0.850227
      pz      :     0.039691  p :     0.157249
      px      :     0.043033
      py      :     0.074525
      dz2     :     0.002472  d :     0.028505
      dxz     :     0.000106
      dyz     :     0.009002
      dx2y2   :     0.007382
      dxy     :     0.009543
 23 H s       :     0.846684  s :     0.846684
      pz      :     0.040969  p :     0.144474
      px      :     0.029492
      py      :     0.074013
      dz2     :     0.002636  d :     0.027127
      dxz     :     0.000968
      dyz     :     0.009098
      dx2y2   :     0.007211
      dxy     :     0.007215
 24 H s       :     0.857803  s :     0.857803
      pz      :     0.067107  p :     0.147007
      px      :     0.031147
      py      :     0.048752
      dz2     :     0.008714  d :     0.027189
      dxz     :     0.005779
      dyz     :     0.006925
      dx2y2   :     0.003460
      dxy     :     0.002312
 25 H s       :     0.829684  s :     0.829684
      pz      :     0.051175  p :     0.151003
      px      :     0.040314
      py      :     0.059515
      dz2     :     0.006983  d :     0.027655
      dxz     :     0.003857
      dyz     :     0.006887
      dx2y2   :     0.004853
      dxy     :     0.005075
 26 H s       :     0.831000  s :     0.831000
      pz      :     0.040889  p :     0.150644
      px      :     0.046670
      py      :     0.063085
      dz2     :     0.003853  d :     0.027682
      dxz     :     0.002664
      dyz     :     0.006853
      dx2y2   :     0.008235
      dxy     :     0.006077
 27 H s       :     0.837347  s :     0.837347
      pz      :     0.037356  p :     0.153675
      px      :     0.073725
      py      :     0.042595
      dz2     :     0.002370  d :     0.027749
      dxz     :     0.008417
      dyz     :     0.000490
      dx2y2   :     0.007043
      dxy     :     0.009428
 28 H s       :     0.742468  s :     0.742468
      pz      :     0.055317  p :     0.253285
      px      :     0.092396
      py      :     0.105572
      dz2     :     0.007451  d :     0.061677
      dxz     :     0.004124
      dyz     :     0.015087
      dx2y2   :     0.017241
      dxy     :     0.017774
 29 H s       :     0.747651  s :     0.747651
      pz      :     0.117854  p :     0.254573
      px      :     0.091724
      py      :     0.044996
      dz2     :     0.022329  d :     0.061448
      dxz     :     0.018209
      dyz     :     0.012784
      dx2y2   :     0.004795
      dxy     :     0.003332
 30 H s       :     0.822951  s :     0.822951
      pz      :     0.038131  p :     0.150666
      px      :     0.076703
      py      :     0.035832
      dz2     :     0.002776  d :     0.028533
      dxz     :     0.008452
      dyz     :     0.001383
      dx2y2   :     0.008277
      dxy     :     0.007645
 31 H s       :     0.836064  s :     0.836064
      pz      :     0.059434  p :     0.158087
      px      :     0.064186
      py      :     0.034467
      dz2     :     0.006011  d :     0.027463
      dxz     :     0.007108
      dyz     :     0.003927
      dx2y2   :     0.005078
      dxy     :     0.005338
 32 H s       :     0.841331  s :     0.841331
      pz      :     0.036326  p :     0.150733
      px      :     0.040192
      py      :     0.074215
      dz2     :     0.002641  d :     0.026412
      dxz     :     0.000888
      dyz     :     0.007111
      dx2y2   :     0.007904
      dxy     :     0.007869
 33 H s       :     0.848368  s :     0.848368
      pz      :     0.055216  p :     0.158928
      px      :     0.047585
      py      :     0.056127
      dz2     :     0.005686  d :     0.027744
      dxz     :     0.004101
      dyz     :     0.006370
      dx2y2   :     0.006002
      dxy     :     0.005586
 34 H s       :     0.706295  s :     0.706295
      pz      :     0.104867  p :     0.347637
      px      :     0.086448
      py      :     0.156322
      dz2     :     0.020337  d :     0.099535
      dxz     :     0.009353
      dyz     :     0.025176
      dx2y2   :     0.022167
      dxy     :     0.022501
 35 H s       :     0.836768  s :     0.836768
      pz      :     0.040682  p :     0.160183
      px      :     0.043343
      py      :     0.076157
      dz2     :     0.002633  d :     0.028126
      dxz     :     0.001072
      dyz     :     0.007764
      dx2y2   :     0.008144
      dxy     :     0.008513


                      *****************************
                      * MAYER POPULATION ANALYSIS *
                      *****************************

  NA   - Mulliken gross atomic population
  ZA   - Total nuclear charge
  QA   - Mulliken gross atomic charge
  VA   - Mayer's total valence
  BVA  - Mayer's bonded valence
  FA   - Mayer's free valence

  ATOM       NA         ZA         QA         VA         BVA        FA
  0 C      6.3514     6.0000    -0.3514     3.8848     3.8848     0.0000
  1 C      5.9466     6.0000     0.0534     3.8591     3.8591    -0.0000
  2 O      8.3391     8.0000    -0.3391     2.0497     2.0497    -0.0000
  3 C      5.5769     6.0000     0.4231     4.2558     4.2558    -0.0000
  4 O      8.3857     8.0000    -0.3857     2.1246     2.1246     0.0000
  5 C      6.2167     6.0000    -0.2167     3.5878     3.5878    -0.0000
  6 C      5.8538     6.0000     0.1462     3.7896     3.7896    -0.0000
  7 C      6.3259     6.0000    -0.3259     3.8721     3.8721    -0.0000
  8 N      7.1413     7.0000    -0.1413     3.2603     3.2603    -0.0000
  9 C      5.7958     6.0000     0.2042     4.1468     4.1468    -0.0000
 10 S     16.4407    16.0000    -0.4407     1.7508     1.7508    -0.0000
 11 N      7.2293     7.0000    -0.2293     3.2533     3.2533     0.0000
 12 C      5.8978     6.0000     0.1022     3.9154     3.9154     0.0000
 13 C      5.9861     6.0000     0.0139     3.7234     3.7234    -0.0000
 14 C      6.2180     6.0000    -0.2180     3.8786     3.8786    -0.0000
 15 C      6.1351     6.0000    -0.1351     3.8133     3.8133    -0.0000
 16 C      6.2756     6.0000    -0.2756     3.7878     3.7878    -0.0000
 17 C      5.6762     6.0000     0.3238     3.8632     3.8632    -0.0000
 18 O      8.3575     8.0000    -0.3575     2.1176     2.1176     0.0000
 19 C      6.2798     6.0000    -0.2798     3.8098     3.8098    -0.0000
 20 H      0.8636     1.0000     0.1364     0.9619     0.9619     0.0000
 21 H      0.8758     1.0000     0.1242     0.9829     0.9829     0.0000
 22 H      0.8977     1.0000     0.1023     0.9638     0.9638     0.0000
 23 H      0.8747     1.0000     0.1253     0.9696     0.9696     0.0000
 24 H      0.9104     1.0000     0.0896     0.9669     0.9669     0.0000
 25 H      0.8700     1.0000     0.1300     0.9861     0.9861     0.0000
 26 H      0.8602     1.0000     0.1398     0.9786     0.9786    -0.0000
 27 H      0.8800     1.0000     0.1200     0.9709     0.9709     0.0000
 28 H      0.8030     1.0000     0.1970     1.0215     1.0215     0.0000
 29 H      0.7968     1.0000     0.2032     1.0121     1.0121    -0.0000
 30 H      0.8331     1.0000     0.1669     0.9910     0.9910    -0.0000
 31 H      0.8213     1.0000     0.1787     0.9848     0.9848     0.0000
 32 H      0.8357     1.0000     0.1643     0.9764     0.9764     0.0000
 33 H      0.8680     1.0000     0.1320     0.9909     0.9909    -0.0000
 34 H      0.7589     1.0000     0.2411     1.0104     1.0104     0.0000
 35 H      0.8215     1.0000     0.1785     0.9860     0.9860     0.0000

  Mayer bond orders larger than 0.100000
B(  0-C ,  1-C ) :   0.9585 B(  0-C , 20-H ) :   0.9627 B(  0-C , 21-H ) :   0.9788 
B(  0-C , 22-H ) :   0.9741 B(  1-C ,  2-O ) :   0.9063 B(  1-C , 23-H ) :   0.9780 
B(  1-C , 24-H ) :   0.9776 B(  2-O ,  3-C ) :   1.1723 B(  3-C ,  4-O ) :   2.0735 
B(  3-C ,  5-C ) :   0.9370 B(  5-C ,  6-C ) :   1.6930 B(  5-C , 12-C ) :   0.9455 
B(  6-C ,  7-C ) :   0.9443 B(  6-C ,  8-N ) :   1.1037 B(  7-C , 25-H ) :   0.9779 
B(  7-C , 26-H ) :   0.9716 B(  7-C , 27-H ) :   0.9646 B(  8-N ,  9-C ) :   1.1968 
B(  8-N , 28-H ) :   0.9517 B(  9-C , 10-S ) :   1.6085 B(  9-C , 11-N ) :   1.2894 
B( 11-N , 12-C ) :   0.9864 B( 11-N , 29-H ) :   0.9472 B( 12-C , 13-C ) :   0.9531 
B( 12-C , 30-H ) :   0.9934 B( 13-C , 14-C ) :   1.3904 B( 13-C , 19-C ) :   1.3398 
B( 14-C , 15-C ) :   1.4020 B( 14-C , 31-H ) :   0.9566 B( 15-C , 16-C ) :   1.3593 
B( 15-C , 32-H ) :   0.9699 B( 16-C , 17-C ) :   1.3319 B( 16-C , 33-H ) :   0.9846 
B( 17-C , 18-O ) :   1.1088 B( 17-C , 19-C ) :   1.3652 B( 18-O , 34-H ) :   0.9795 
B( 19-C , 35-H ) :   0.9589 

-------
TIMINGS
-------

Total SCF time: 0 days 1 hours 40 min 58 sec 

Total time                  ....    6058.888 sec
Sum of individual times     ....    6049.702 sec  ( 99.8%)

Fock matrix formation       ....    6027.979 sec  ( 99.5%)
Diagonalization             ....       1.391 sec  (  0.0%)
Density matrix formation    ....       0.257 sec  (  0.0%)
Population analysis         ....       0.247 sec  (  0.0%)
Initial guess               ....       5.669 sec  (  0.1%)
Orbital Transformation      ....       0.000 sec  (  0.0%)
Orbital Orthonormalization  ....       0.000 sec  (  0.0%)
DIIS solution               ....      10.186 sec  (  0.2%)
SOSCF solution              ....       2.669 sec  (  0.0%)

------------------------------------------------------------------------------
                                ORCA  MP2 
------------------------------------------------------------------------------

Freezing NCore=48 chemical core electrons

-------------
RI-MP2 ENERGY
-------------
Dimension of the basis                    ...  828
Memory devoted to MP2                     ...  256 MB   
Data format for buffers                   ... DOUBLE
Compression type for matrix containers    ... UNCOMPRESSED
Overall scaling of the MP2 energy         ...   1.000e+00
Calculating two index integrals           ... done (    0.041 sec)
Cholesky decomposition of V**-1           ... done (    0.331 sec)

-----------------
RI-TRANSFORMATION (AUX index driven)
-----------------

Dimension of the orbital-basis         ... 828
Dimension of the aux-basis             ... 2141
Transformation of internal/external MOs...   24-  76 to   77- 827
Number Format for Storage              ... Double (8 Byte)
Integral mode                          ... Direct

First Phase: integral generation and transformation of MO indices
  Aux angular momentum 0               ... done (    4.854 sec)
  Aux angular momentum 1               ... done (    7.901 sec)
  Aux angular momentum 2               ... done (    9.513 sec)
  Aux angular momentum 3               ... done (    7.766 sec)
  Aux angular momentum 4               ... done (    2.636 sec)
Closing buffer VIA ( 0.63 GB; CompressionRatio= 1.00)
  Phase 1 completed in    33.046 sec
Second Phase: sorting and transformation of aux index

IA-Transformation
Memory available                       ... 167 MB 
Max. # MO pairs treated in a batch     ... 12    
# of internal orbitals                 ... 53
# batches for internal orbitals        ... 5
Closing buffer IAV ( 0.63 GB; CompressionRatio= 1.00)
(ia|v) transformation done in    29.367 sec

  Phase 2 completed in    29.395 sec
RI-Integral transformation completed in    62.449 sec
Opening buffers                              ... done

Starting loop over batches of integrals:

Operator 0  - window                       ... ( 24- 76)x( 77-827)
Operator 0  - Memory available             ...   256 MB
Operator 0  - Memory needed per MO         ...  12.3 MB
Operator 0  - Number of orbitals per batch ... 13
Operator 0  - Number of batches            ... 5

OPERATOR  0   PASS   0:  MOs    24 ...   36
  Reading integrals       ... ok
  Internal MO  26
  Internal MO  29
  Internal MO  32
  Internal MO  35
OPERATOR  0   PASS   1:  MOs    37 ...   49
  Reading integrals       ... ok
  Internal MO  38
  Internal MO  41
  Internal MO  44
  Internal MO  47
OPERATOR  0   PASS   2:  MOs    50 ...   62
  Reading integrals       ... ok
  Internal MO  50
  Internal MO  53
  Internal MO  56
  Internal MO  59
  Internal MO  62
OPERATOR  0   PASS   3:  MOs    63 ...   75
  Reading integrals       ... ok
  Internal MO  65
  Internal MO  68
  Internal MO  71
  Internal MO  74
OPERATOR  0   PASS   4:  MOs    76 ...   76
  Reading integrals       ... ok
Time spent in pair loops =    80.546 sec
Deleting buffer (Ka|jb)[aa] ...done

-----------------------------------------------
 RI-MP2 CORRELATION ENERGY:     -3.541442599 Eh
-----------------------------------------------


-------
TIMINGS
-------

Total time                :  143.495 sec
Integral trafo            :   62.487 sec ( 43.5%)
I/O of integrals          :    3.784 sec (  2.6%)
K(i,j) Operators          :   46.800 sec ( 32.6%)
T(i,j) pair energies      :    8.455 sec (  5.9%)
V-calculation             :    0.041 sec (  0.0%)
V**(-1/2)                 :    0.331 sec (  0.2%)
Gamma(ia|P)               :    0.000 sec (  0.0%)
Gamma-Trafo               :    0.000 sec (  0.0%)
D(virtual)                :    0.000 sec (  0.0%)
D(internal)               :    0.000 sec (  0.0%)
W(virtual)                :    0.000 sec (  0.0%)
W(internal)               :    0.000 sec (  0.0%)
L(virtual)                :    0.000 sec (  0.0%)
L(internal)               :    0.000 sec (  0.0%)
G(D)                      :    0.000 sec (  0.0%)
G(Z)                      :    0.000 sec (  0.0%)
Z-Vector Solution         :    0.000 sec (  0.0%)
3-Index Derivative        :    0.000 sec (  0.0%)
2-Index Derivative        :    0.000 sec (  0.0%)
Separable Gradient        :    0.000 sec (  0.0%)


---------------------------------------
MP2 TOTAL ENERGY:    -1274.323043456 Eh
---------------------------------------

-------------------------   --------------------
FINAL SINGLE POINT ENERGY     -1274.323043455901
-------------------------   --------------------


                            ***************************************
                            *     ORCA property calculations      *
                            ***************************************


  WARNING: The energy has been calculated at the MP2 level but the densities
           used in the property calculations are still SCF densities
           MP2 response densities have not been calculated 
           use %mp2 Density relaxed end
           or  %mp2 Density unrelaxed end

                                    ---------------------
                                    Active property flags
                                    ---------------------
   (+) Dipole Moment


------------------------------------------------------------------------------
                       ORCA ELECTRIC PROPERTIES CALCULATION
------------------------------------------------------------------------------

Dipole Moment Calculation                       ... on
Quadrupole Moment Calculation                   ... off
Polarizability Calculation                      ... off
GBWName                                         ... CONFS/Conf5.orca.gbw
Electron density file                           ... CONFS/Conf5.orca.scfp
The origin for moment calculation is the CENTER OF MASS  = (32.761290, 31.278988 35.258193)

-------------
DIPOLE MOMENT
-------------
                                X             Y             Z
Electronic contribution:      9.43683       5.56420       6.82447
Nuclear contribution   :    -11.05553      -6.65290      -7.42015
                        -----------------------------------------
Total Dipole Moment    :     -1.61870      -1.08870      -0.59567
                        -----------------------------------------
Magnitude (a.u.)       :      2.03967
Magnitude (Debye)      :      5.18444



--------------------
Rotational spectrum 
--------------------
 
Rotational constants in cm-1:     0.011507     0.009557     0.006717 
Rotational constants in MHz :   344.956717   286.503323   201.379278 

 Dipole components along the rotational axes: 
x,y,z [a.u.] :    -1.032843    -1.062609     1.401559 
x,y,z [Debye]:    -2.625279    -2.700938     3.562479 

 

Timings for individual modules:

Sum of individual times         ...     6208.335 sec (= 103.472 min)
GTO integral calculation        ...        3.393 sec (=   0.057 min)   0.1 %
SCF iterations                  ...     6060.620 sec (= 101.010 min)  97.6 %
MP2 module                      ...      144.323 sec (=   2.405 min)   2.3 %
                             ****ORCA TERMINATED NORMALLY****
TOTAL RUN TIME: 0 days 1 hours 43 minutes 29 seconds 538 msec
