
                                 *****************
                                 * O   R   C   A *
                                 *****************

           --- An Ab Initio, DFT and Semiempirical electronic structure package ---

                  #######################################################
                  #                        -***-                        #
                  #          Department of theory and spectroscopy      #
                  #               Directorship: Frank Neese             #
                  #        Max Planck Institute fuer Kohlenforschung    #
                  #                Kaiser Wilhelm Platz 1               #
                  #                 D-45470 Muelheim/Ruhr               #
                  #                      Germany                        #
                  #                                                     #
                  #                  All rights reserved                #
                  #                        -***-                        #
                  #######################################################


                         Program Version 4.2.0 -  RELEASE  -


 With contributions from (in alphabetic order):
   Daniel Aravena         : Magnetic Suceptibility
   Michael Atanasov       : Ab Initio Ligand Field Theory (pilot matlab implementation)
   Alexander A. Auer      : GIAO ZORA, VPT2
   Ute Becker             : Parallelization
   Giovanni Bistoni       : ED, misc. LED, open-shell LED, HFLED
   Martin Brehm           : Molecular dynamics
   Dmytro Bykov           : SCF Hessian
   Vijay G. Chilkuri      : MRCI spin determinant printing, contributions to CSF-ICE
   Dipayan Datta          : RHF DLPNO-CCSD density
   Achintya Kumar Dutta   : EOM-CC, STEOM-CC
   Dmitry Ganyushin       : Spin-Orbit,Spin-Spin,Magnetic field MRCI
   Miquel Garcia          : C-PCM Hessian, Gaussian charge scheme
   Yang Guo               : DLPNO-NEVPT2, CIM, IAO-localization
   Andreas Hansen         : Spin unrestricted coupled pair/coupled cluster methods
   Benjamin Helmich-Paris : CASSCF linear response (MC-RPA)
   Lee Huntington         : MR-EOM, pCC
   Robert Izsak           : Overlap fitted RIJCOSX, COSX-SCS-MP3, EOM
   Christian Kollmar      : KDIIS, OOCD, Brueckner-CCSD(T), CCSD density
   Simone Kossmann        : Meta GGA functionals, TD-DFT gradient, OOMP2, MP2 Hessian
   Martin Krupicka        : AUTO-CI
   Lucas Lang             : DCDCAS
   Dagmar Lenk            : GEPOL surface, SMD
   Dimitrios Liakos       : Extrapolation schemes; Compound Job, initial MDCI parallelization
   Dimitrios Manganas     : Further ROCIS development; embedding schemes
   Dimitrios Pantazis     : SARC Basis sets
   Taras Petrenko         : DFT Hessian,TD-DFT gradient, ASA, ECA, R-Raman, ABS, FL, XAS/XES, NRVS
   Peter Pinski           : DLPNO-MP2, DLPNO-MP2 Gradient
   Christoph Reimann      : Effective Core Potentials
   Marius Retegan         : Local ZFS, SOC
   Christoph Riplinger    : Optimizer, TS searches, QM/MM, DLPNO-CCSD(T), (RO)-DLPNO pert. Triples
   Tobias Risthaus        : Range-separated hybrids, TD-DFT gradient, RPA, STAB
   Michael Roemelt        : Original ROCIS implementation
   Masaaki Saitow         : Open-shell DLPNO-CCSD energy and density
   Barbara Sandhoefer     : DKH picture change effects
   Avijit Sen             : IP-ROCIS
   Kantharuban Sivalingam : CASSCF convergence, NEVPT2, FIC-MRCI
   Bernardo de Souza      : ESD, SOC TD-DFT
   Georgi Stoychev        : AutoAux, RI-MP2 NMR
   Willem Van den Heuvel  : Paramagnetic NMR
   Boris Wezisla          : Elementary symmetry handling
   Frank Wennmohs         : Technical directorship


 We gratefully acknowledge several colleagues who have allowed us to
 interface, adapt or use parts of their codes:
   Stefan Grimme, W. Hujo, H. Kruse,             : VdW corrections, initial TS optimization,
                  C. Bannwarth                     DFT functionals, gCP, sTDA/sTD-DF
   Ed Valeev, F. Pavosevic, A. Kumar             : LibInt (2-el integral package), F12 methods
   Garnet Chan, S. Sharma, J. Yang, R. Olivares  : DMRG
   Ulf Ekstrom                                   : XCFun DFT Library
   Mihaly Kallay                                 : mrcc  (arbitrary order and MRCC methods)
   Andreas Klamt, Michael Diedenhofen            : otool_cosmo (COSMO solvation model)
   Jiri Pittner, Ondrej Demel                    : Mk-CCSD
   Frank Weinhold                                : gennbo (NPA and NBO analysis)
   Christopher J. Cramer and Donald G. Truhlar   : smd solvation model
   Lars Goerigk                                  : TD-DFT with DH, B97 family of functionals
   V. Asgeirsson, H. Jonsson                     : NEB implementation
   FAccTs GmbH                                   : IRC, NEB, NEB-TS, Multilevel, MM, QM/MM, CI optimization
   S Lehtola, MJT Oliveira, MAL Marques          : LibXC Library


 Your calculation uses the libint2 library for the computation of 2-el integrals
 For citations please refer to: http://libint.valeyev.net

 Your ORCA version has been built with support for libXC version: 4.2.3
 For citations please refer to: https://tddft.org/programs/libxc/

 This ORCA versions uses:
   CBLAS   interface :  Fast vector & matrix operations
   LAPACKE interface :  Fast linear algebra routines
   SCALAPACK package :  Parallel linear algebra routines


----- Orbital basis set information -----
Your calculation utilizes the basis: cc-pVTZ 
       H, B-Ne : Obtained from the ccRepo (grant-hill.group.shef.ac.uk/ccrepo) Feb. 2017
                 T. H. Dunning, Jr., J. Chem. Phys. 90, 1007 (1989)
            He : Obtained from the ccRepo (grant-hill.group.shef.ac.uk/ccrepo) Feb. 2017
                 D. E. Woon, T. H. Dunning, Jr., J. Chem. Phys. 100, 2975 (1994)
  Li-Be, Na-Mg : Obtained from the ccRepo (grant-hill.group.shef.ac.uk/ccrepo) Feb. 2017
                 B. P. Prascher, D. E. Woon, K. A. Peterson, T. H. Dunning, Jr., A. K. Wilson, Theor. Chem. Acc. 128, 69 (2011)
         Al-Ar : Obtained from the ccRepo (grant-hill.group.shef.ac.uk/ccrepo) Feb. 2017
                 D. E. Woon, T. H. Dunning, Jr., J. Chem. Phys. 98, 1358 (1993)
            Ca : Obtained from the Peterson Research Group Website (tyr0.chem.wsu.edu/~kipeters) Feb. 2017
                 J. Koput, K. A. Peterson, J. Phys. Chem. 106, 9595 (2002)
         Sc-Zn : Obtained from the ccRepo (grant-hill.group.shef.ac.uk/ccrepo) Feb. 2017
                 N. B. Balabanov, K. A. Peterson, J. Chem. Phys. 123, 064107 (2005)
                 N. B. Balabanov, K. A. Peterson, J. Chem. Phys. 125, 074110 (2006)
         Ga-Kr : Obtained from the ccRepo (grant-hill.group.shef.ac.uk/ccrepo) Feb. 2017
                 A. K. Wilson, D. E. Woon, K. A. Peterson, T. H. Dunning, Jr., J. Chem. Phys. 110, 7667 (1999)
             Y : Obtained from the ccRepo (grant-hill.group.shef.ac.uk/ccrepo) Feb. 2017
                 K. A. Peterson, D. Figgen, M. Dolg, H. Stoll, J. Chem. Phys. 126, 124101 (2007)
        Ag, Au : Obtained from the Peterson Research Group Website (tyr0.chem.wsu.edu/~kipeters) Feb. 2017
                 K. A. Peterson, C. Puzzarini, Theor. Chem. Acc. 114, 283 (2005)

----- AuxC basis set information -----
Your calculation utilizes the auxiliary basis: cc-pVTZ/C 
  Obtained from the EMSL Basis Set Exchange (bse.pnl.gov) Feb. 2017
  H-He, B-F, Al-Ar, Ga-Kr : F. Weigend, A. Kohn, C. Hattig, J. Chem. Phys. 116, 3175 (2002)
             Li-Be, Na-Mg : C. Haettig, Phys. Chem. Chem. Phys. 7, 59 (2005)
                       Ne : C. Haettig, Phys. Chem. Chem. Phys. 7, 59 (2005)
                            F. Weigend, A. Kohn, C. Hattig, J. Chem. Phys. 116, 3175 (2002)
                    Sc-Zn : J. G. Hill, J. A. Platts, J. Chem. Phys. 128, 044104 (2008)

================================================================================
                                        WARNINGS
                       Please study these warnings very carefully!
================================================================================


WARNING: No MP2 level density has been requested!
         To caclulate MP2 level properties use
         %mp2 Density relaxed end
         or
         %mp2 Density unrelaxed end

WARNING: Post HF methods need fully converged wavefunctions
  ===> : Setting SCFConvForced true
         You can overwrite this default with %scf ConvForced false 


INFO   : the flag for use of LIBINT has been found!

================================================================================
                                       INPUT FILE
================================================================================
NAME = CONFS/Conf2.orca
|  1> ! ri-mp2 cc-pvtz cc-pvtz/c TightSCF NoKeepInts
|  2> 
|  3> %scf
|  4>   MaxCore 4096
|  5> end
|  6> *xyz  0  1
|  7>     C       14.8395335   14.4641904   17.3089775
|  8>     C       15.5326056   15.6481639   16.6151629
|  9>     O       16.8133160   15.1670338   16.1561992
| 10>     C       18.0412952   15.6714255   16.5114230
| 11>     O       19.0221449   14.9539199   16.4450514
| 12>     C       18.0519253   16.8904066   17.3750579
| 13>     C       17.5620337   18.0829759   16.9638314
| 14>     C       16.9578048   18.4004576   15.6127404
| 15>     N       17.6495935   19.1967794   17.8015992
| 16>     C       18.2992737   19.2139640   19.0088281
| 17>     S       18.4067893   20.5921059   19.9159919
| 18>     N       18.8508913   18.0284917   19.4305707
| 19>     C       18.7151333   16.7297710   18.7406855
| 20>     C       17.9352403   15.7278290   19.5860735
| 21>     C       18.3852978   14.4001277   19.7024815
| 22>     C       17.6593557   13.4611544   20.4540127
| 23>     C       16.4694728   13.8508923   21.0918981
| 24>     C       16.0127026   15.1700749   20.9708382
| 25>     O       14.8548803   15.5455469   21.5698630
| 26>     C       16.7371479   16.1029231   20.2221008
| 27>     H       15.4432550   14.1038024   18.1514606
| 28>     H       14.6994705   13.6326186   16.6070852
| 29>     H       13.8564369   14.7613864   17.6935388
| 30>     H       14.9292431   15.9858247   15.7627442
| 31>     H       15.6070745   16.4665287   17.3390667
| 32>     H       17.1362047   17.6030875   14.8805619
| 33>     H       17.3961478   19.3146617   15.1922826
| 34>     H       15.8741845   18.5511908   15.6897151
| 35>     H       17.2640703   20.0798007   17.5050740
| 36>     H       19.3047529   18.0666823   20.3346194
| 37>     H       19.7264884   16.3288524   18.5769858
| 38>     H       19.2946309   14.0904268   19.1915359
| 39>     H       18.0166216   12.4356353   20.5318995
| 40>     H       15.9040104   13.1271306   21.6695669
| 41>     H       14.5354753   14.7884727   22.0840869
| 42>     H       16.3624958   17.1176645   20.1403899
| 43> *
| 44> 
| 45>                          ****END OF INPUT****
================================================================================

                       ****************************
                       * Single Point Calculation *
                       ****************************

---------------------------------
CARTESIAN COORDINATES (ANGSTROEM)
---------------------------------
  C     14.839533   14.464190   17.308978
  C     15.532606   15.648164   16.615163
  O     16.813316   15.167034   16.156199
  C     18.041295   15.671425   16.511423
  O     19.022145   14.953920   16.445051
  C     18.051925   16.890407   17.375058
  C     17.562034   18.082976   16.963831
  C     16.957805   18.400458   15.612740
  N     17.649593   19.196779   17.801599
  C     18.299274   19.213964   19.008828
  S     18.406789   20.592106   19.915992
  N     18.850891   18.028492   19.430571
  C     18.715133   16.729771   18.740686
  C     17.935240   15.727829   19.586074
  C     18.385298   14.400128   19.702482
  C     17.659356   13.461154   20.454013
  C     16.469473   13.850892   21.091898
  C     16.012703   15.170075   20.970838
  O     14.854880   15.545547   21.569863
  C     16.737148   16.102923   20.222101
  H     15.443255   14.103802   18.151461
  H     14.699470   13.632619   16.607085
  H     13.856437   14.761386   17.693539
  H     14.929243   15.985825   15.762744
  H     15.607074   16.466529   17.339067
  H     17.136205   17.603088   14.880562
  H     17.396148   19.314662   15.192283
  H     15.874185   18.551191   15.689715
  H     17.264070   20.079801   17.505074
  H     19.304753   18.066682   20.334619
  H     19.726488   16.328852   18.576986
  H     19.294631   14.090427   19.191536
  H     18.016622   12.435635   20.531900
  H     15.904010   13.127131   21.669567
  H     14.535475   14.788473   22.084087
  H     16.362496   17.117665   20.140390

----------------------------
CARTESIAN COORDINATES (A.U.)
----------------------------
  NO LB      ZA    FRAG     MASS         X           Y           Z
   0 C     6.0000    0    12.011   28.042654   27.333359   32.709227
   1 C     6.0000    0    12.011   29.352371   29.570744   31.398108
   2 O     8.0000    0    15.999   31.772563   28.661540   30.530792
   3 C     6.0000    0    12.011   34.093107   29.614702   31.202068
   4 O     8.0000    0    15.999   35.946644   28.258813   31.076643
   5 C     6.0000    0    12.011   34.113195   31.918243   32.834101
   6 C     6.0000    0    12.011   33.187434   34.171872   32.056996
   7 C     6.0000    0    12.011   32.045607   34.771826   29.503804
   8 N     7.0000    0    14.007   33.352898   36.276656   33.640147
   9 C     6.0000    0    12.011   34.580616   36.309130   35.921479
  10 S    16.0000    0    32.060   34.783791   38.913441   37.635770
  11 N     7.0000    0    14.007   35.623022   34.068912   36.718457
  12 C     6.0000    0    12.011   35.366476   31.614685   35.414763
  13 C     6.0000    0    12.011   33.892692   29.721289   37.012315
  14 C     6.0000    0    12.011   34.743178   27.212298   37.232294
  15 C     6.0000    0    12.011   33.371346   25.437895   38.652482
  16 C     6.0000    0    12.011   31.122793   26.174393   39.857911
  17 C     6.0000    0    12.011   30.259623   28.667287   39.629141
  18 O     8.0000    0    15.999   28.071656   29.376826   40.761134
  19 C     6.0000    0    12.011   31.628626   30.430115   38.214232
  20 H     1.0000    0     1.008   29.183523   26.652324   34.301289
  21 H     1.0000    0     1.008   27.777974   25.761916   31.382843
  22 H     1.0000    0     1.008   26.184871   27.894978   33.435943
  23 H     1.0000    0     1.008   28.212181   30.208831   29.787270
  24 H     1.0000    0     1.008   29.493097   31.117230   32.766087
  25 H     1.0000    0     1.008   32.382734   33.265014   28.120187
  26 H     1.0000    0     1.008   32.873955   36.499421   28.709253
  27 H     1.0000    0     1.008   29.997861   35.056670   29.649265
  28 H     1.0000    0     1.008   32.624365   37.945324   33.079796
  29 H     1.0000    0     1.008   36.480696   34.141082   38.426862
  30 H     1.0000    0     1.008   37.277661   30.857059   35.105416
  31 H     1.0000    0     1.008   36.461568   26.627048   36.266747
  32 H     1.0000    0     1.008   34.046481   23.499945   38.799667
  33 H     1.0000    0     1.008   30.054224   24.806682   40.949547
  34 H     1.0000    0     1.008   27.468068   27.946163   41.732876
  35 H     1.0000    0     1.008   30.920636   32.347698   38.059821

--------------------------------
INTERNAL COORDINATES (ANGSTROEM)
--------------------------------
 C      0   0   0     0.000000000000     0.00000000     0.00000000
 C      1   0   0     1.537374672510     0.00000000     0.00000000
 O      2   1   0     1.443036028556   106.67059784     0.00000000
 C      3   2   1     1.374237188679   126.04827568   238.90387611
 O      4   3   2     1.217080773535   119.31815056   155.40526704
 C      4   3   2     1.493952195246   117.08204197   355.35280786
 C      6   4   3     1.353263665867   122.73881752   295.70132303
 C      7   6   4     1.513715324528   126.91034089   359.11798382
 N      7   6   4     1.396452592072   119.85993732   182.49160453
 C      9   7   6     1.371051162337   124.60747094     5.22186253
 S     10   9   7     1.653414908851   121.62539522   177.61391177
 N     10   9   7     1.373860753989   116.72692696   357.31173791
 C     12  10   9     1.476836917317   125.34506757   355.29018713
 C     13  12  10     1.525385765424   111.45257138   245.06585805
 C     14  13  12     1.406731430584   120.14776067   224.07176003
 C     15  14  13     1.404799606790   120.65017935   181.41996407
 C     16  15  14     1.405209852635   119.67223752     0.22299970
 C     17  16  15     1.401262733087   119.86173611     0.22250826
 O     18  17  16     1.356599576948   120.04110271   179.09138235
 C     18  17  16     1.398440006255   120.35660393   359.77796620
 H      1   2   3     1.097331733749   110.57221002    59.55945001
 H      1   2   3     1.097170043030   110.64270569   299.68859448
 H      1   2   3     1.096673051007   110.71239665   179.51345877
 H      2   1   3     1.097578590522   109.85217296   119.29344957
 H      2   1   3     1.095127058656   107.92888383   237.67640886
 H      8   7   6     1.097137619698   112.22960348   347.91591187
 H      8   7   6     1.097587574495   110.92817831   228.86104643
 H      8   7   6     1.096758203340   111.13516568   108.84636290
 H      9   7   6     1.008108103443   119.88018740   181.53533753
 H     12  10   9     1.012300807989   114.93634463   181.37483186
 H     13  12  10     1.100169284202   107.78633358   126.42259335
 H     15  14  13     1.088056404961   119.81270087     0.30025467
 H     16  15  14     1.088758330109   119.88636315   179.71050004
 H     17  16  15     1.085025329978   119.86553315   179.73286965
 H     19  18  17     0.969333336712   107.41594229     4.41030737
 H     20  18  17     1.084776924574   119.03933718   179.83524063

---------------------------
INTERNAL COORDINATES (A.U.)
---------------------------
 C      0   0   0     0.000000000000     0.00000000     0.00000000
 C      1   0   0     2.905217096270     0.00000000     0.00000000
 O      2   1   0     2.726942895353   106.67059784     0.00000000
 C      3   2   1     2.596931929653   126.04827568   238.90387611
 O      4   3   2     2.299949344842   119.31815056   155.40526704
 C      4   3   2     2.823160506186   117.08204197   355.35280786
 C      6   4   3     2.557297715475   122.73881752   295.70132303
 C      7   6   4     2.860507408078   126.91034089   359.11798382
 N      7   6   4     2.638912958021   119.85993732   182.49160453
 C      9   7   6     2.590911212410   124.60747094     5.22186253
 S     10   9   7     3.124501363470   121.62539522   177.61391177
 N     10   9   7     2.596220571182   116.72692696   357.31173791
 C     12  10   9     2.790817318194   125.34506757   355.29018713
 C     13  12  10     2.882561345232   111.45257138   245.06585805
 C     14  13  12     2.658337147782   120.14776067   224.07176003
 C     15  14  13     2.654686529874   120.65017935   181.41996407
 C     16  15  14     2.655461782168   119.67223752     0.22299970
 C     17  16  15     2.648002807205   119.86173611     0.22250826
 O     18  17  16     2.563601673826   120.04110271   179.09138235
 C     18  17  16     2.642668626541   120.35660393   359.77796620
 H      1   2   3     2.073656454846   110.57221002    59.55945001
 H      1   2   3     2.073350903670   110.64270569   299.68859448
 H      1   2   3     2.072411724855   110.71239665   179.51345877
 H      2   1   3     2.074122946542   109.85217296   119.29344957
 H      2   1   3     2.069490222707   107.92888383   237.67640886
 H      8   7   6     2.073289632451   112.22960348   347.91591187
 H      8   7   6     2.074139923791   110.92817831   228.86104643
 H      8   7   6     2.072572639445   111.13516568   108.84636290
 H      9   7   6     1.905048228894   119.88018740   181.53533753
 H     12  10   9     1.912971292246   114.93634463   181.37483186
 H     13  12  10     2.079018648094   107.78633358   126.42259335
 H     15  14  13     2.056128623634   119.81270087     0.30025467
 H     16  15  14     2.057455069932   119.88636315   179.71050004
 H     17  16  15     2.050400722026   119.86553315   179.73286965
 H     19  18  17     1.831774538866   107.41594229     4.41030737
 H     20  18  17     2.049931303841   119.03933718   179.83524063

---------------------
BASIS SET INFORMATION
---------------------
There are 5 groups of distinct atoms

 Group   1 Type C   : 18s5p2d1f contracted to 4s3p2d1f pattern {8811/311/11/1}
 Group   2 Type O   : 18s5p2d1f contracted to 4s3p2d1f pattern {8811/311/11/1}
 Group   3 Type N   : 18s5p2d1f contracted to 4s3p2d1f pattern {8811/311/11/1}
 Group   4 Type S   : 41s16p2d1f contracted to 5s4p2d1f pattern {13131311/7711/11/1}
 Group   5 Type H   : 5s2p1d contracted to 3s2p1d pattern {311/11/1}

Atom   0C    basis set group =>   1
Atom   1C    basis set group =>   1
Atom   2O    basis set group =>   2
Atom   3C    basis set group =>   1
Atom   4O    basis set group =>   2
Atom   5C    basis set group =>   1
Atom   6C    basis set group =>   1
Atom   7C    basis set group =>   1
Atom   8N    basis set group =>   3
Atom   9C    basis set group =>   1
Atom  10S    basis set group =>   4
Atom  11N    basis set group =>   3
Atom  12C    basis set group =>   1
Atom  13C    basis set group =>   1
Atom  14C    basis set group =>   1
Atom  15C    basis set group =>   1
Atom  16C    basis set group =>   1
Atom  17C    basis set group =>   1
Atom  18O    basis set group =>   2
Atom  19C    basis set group =>   1
Atom  20H    basis set group =>   5
Atom  21H    basis set group =>   5
Atom  22H    basis set group =>   5
Atom  23H    basis set group =>   5
Atom  24H    basis set group =>   5
Atom  25H    basis set group =>   5
Atom  26H    basis set group =>   5
Atom  27H    basis set group =>   5
Atom  28H    basis set group =>   5
Atom  29H    basis set group =>   5
Atom  30H    basis set group =>   5
Atom  31H    basis set group =>   5
Atom  32H    basis set group =>   5
Atom  33H    basis set group =>   5
Atom  34H    basis set group =>   5
Atom  35H    basis set group =>   5
---------------------------------
AUXILIARY/C BASIS SET INFORMATION
---------------------------------
There are 5 groups of distinct atoms

 Group   1 Type C   : 8s6p5d3f1g contracted to 8s6p5d3f1g pattern {11111111/111111/11111/111/1}
 Group   2 Type O   : 8s6p5d3f1g contracted to 8s6p5d3f1g pattern {11111111/111111/11111/111/1}
 Group   3 Type N   : 8s6p5d3f1g contracted to 8s6p5d3f1g pattern {11111111/111111/11111/111/1}
 Group   4 Type S   : 10s8p7d5f2g contracted to 10s8p7d5f2g pattern {1111111111/11111111/1111111/11111/11}
 Group   5 Type H   : 4s3p2d1f contracted to 4s3p2d1f pattern {1111/111/11/1}

Atom   0C    basis set group =>   1
Atom   1C    basis set group =>   1
Atom   2O    basis set group =>   2
Atom   3C    basis set group =>   1
Atom   4O    basis set group =>   2
Atom   5C    basis set group =>   1
Atom   6C    basis set group =>   1
Atom   7C    basis set group =>   1
Atom   8N    basis set group =>   3
Atom   9C    basis set group =>   1
Atom  10S    basis set group =>   4
Atom  11N    basis set group =>   3
Atom  12C    basis set group =>   1
Atom  13C    basis set group =>   1
Atom  14C    basis set group =>   1
Atom  15C    basis set group =>   1
Atom  16C    basis set group =>   1
Atom  17C    basis set group =>   1
Atom  18O    basis set group =>   2
Atom  19C    basis set group =>   1
Atom  20H    basis set group =>   5
Atom  21H    basis set group =>   5
Atom  22H    basis set group =>   5
Atom  23H    basis set group =>   5
Atom  24H    basis set group =>   5
Atom  25H    basis set group =>   5
Atom  26H    basis set group =>   5
Atom  27H    basis set group =>   5
Atom  28H    basis set group =>   5
Atom  29H    basis set group =>   5
Atom  30H    basis set group =>   5
Atom  31H    basis set group =>   5
Atom  32H    basis set group =>   5
Atom  33H    basis set group =>   5
Atom  34H    basis set group =>   5
Atom  35H    basis set group =>   5
------------------------------------------------------------------------------
                           ORCA GTO INTEGRAL CALCULATION
------------------------------------------------------------------------------

                         BASIS SET STATISTICS AND STARTUP INFO

 # of primitive gaussian shells          ...  682
 # of primitive gaussian functions       ... 1312
 # of contracted shells                  ...  298
 # of contracted basis functions         ...  828
 Highest angular momentum                ...    3
 Maximum contraction depth               ...   13
 Integral package used                   ... LIBINT
 Integral threshhold            Thresh   ...  2.500e-11
 Primitive cut-off              TCut     ...  2.500e-12


------------------------------ INTEGRAL EVALUATION ----------------------------


 * One electron integrals 
 Pre-screening matrix                    ... done
 Shell pair data                         ... done (   0.014 sec)

-------------------------------------------------------------------------------
                                 ORCA SCF
-------------------------------------------------------------------------------

------------
SCF SETTINGS
------------
Hamiltonian:
 Ab initio Hamiltonian  Method          .... Hartree-Fock(GTOs)


General Settings:
 Integral files         IntName         .... CONFS/Conf2.orca
 Hartree-Fock type      HFTyp           .... RHF
 Total Charge           Charge          ....    0
 Multiplicity           Mult            ....    1
 Number of Electrons    NEL             ....  154
 Basis Dimension        Dim             ....  828
 Nuclear Repulsion      ENuc            ....   1735.7443619257 Eh

Convergence Acceleration:
 DIIS                   CNVDIIS         .... on
   Start iteration      DIISMaxIt       ....    12
   Startup error        DIISStart       ....  0.200000
   # of expansion vecs  DIISMaxEq       ....     5
   Bias factor          DIISBfac        ....   1.050
   Max. coefficient     DIISMaxC        ....  10.000
 Newton-Raphson         CNVNR           .... off
 SOSCF                  CNVSOSCF        .... on
   Start iteration      SOSCFMaxIt      ....   150
   Startup grad/error   SOSCFStart      ....  0.003300
 Level Shifting         CNVShift        .... on
   Level shift para.    LevelShift      ....    0.2500
   Turn off err/grad.   ShiftErr        ....    0.0010
 Zerner damping         CNVZerner       .... off
 Static damping         CNVDamp         .... on
   Fraction old density DampFac         ....    0.7000
   Max. Damping (<1)    DampMax         ....    0.9800
   Min. Damping (>=0)   DampMin         ....    0.0000
   Turn off err/grad.   DampErr         ....    0.1000
 Fernandez-Rico         CNVRico         .... off

SCF Procedure:
 Maximum # iterations   MaxIter         ....   125
 SCF integral mode      SCFMode         .... Direct
   Integral package                     .... LIBINT
 Reset frequency        DirectResetFreq ....    20
 Integral Threshold     Thresh          ....  2.500e-11 Eh
 Primitive CutOff       TCut            ....  2.500e-12 Eh

Convergence Tolerance:
 Convergence Check Mode ConvCheckMode   .... Total+1el-Energy
 Convergence forced     ConvForced      .... 1
 Energy Change          TolE            ....  1.000e-08 Eh
 1-El. energy change                    ....  1.000e-05 Eh
 Orbital Gradient       TolG            ....  1.000e-05
 Orbital Rotation angle TolX            ....  1.000e-05
 DIIS Error             TolErr          ....  5.000e-07


Diagonalization of the overlap matrix:
Smallest eigenvalue                        ... 3.367e-05
Time for diagonalization                   ...    0.108 sec
Threshold for overlap eigenvalues          ... 1.000e-08
Number of eigenvalues below threshold      ... 0
Time for construction of square roots      ...    0.097 sec
Total time needed                          ...    0.207 sec

-------------------
DFT GRID GENERATION
-------------------

General Integration Accuracy     IntAcc      ...  4.340
Radial Grid Type                 RadialGrid  ... Gauss-Chebyshev
Angular Grid (max. acc.)         AngularGrid ... Lebedev-110
Angular grid pruning method      GridPruning ... 3 (G Style)
Weight generation scheme         WeightScheme... Becke
Basis function cutoff            BFCut       ...    1.0000e-11
Integration weight cutoff        WCut        ...    1.0000e-14
Grids for H and He will be reduced by one unit

# of grid points (after initial pruning)     ...  46246 (   0.0 sec)
# of grid points (after weights+screening)   ...  41098 (   0.3 sec)
nearest neighbour list constructed           ...    0.0 sec
Grid point re-assignment to atoms done       ...    0.0 sec
Grid point division into batches done        ...    0.0 sec
Reduced shell lists constructed in    1.0 sec

Total number of grid points                  ...    41098
Total number of batches                      ...      662
Average number of points per batch           ...       62
Average number of grid points per atom       ...     1142
Average number of shells per batch           ...   156.31 (52.45%)
Average number of basis functions per batch  ...   398.32 (48.11%)
Average number of large shells per batch     ...   100.66 (64.40%)
Average number of large basis fcns per batch ...   256.89 (64.50%)
Maximum spatial batch extension              ...  21.68, 20.89, 18.10 au
Average spatial batch extension              ...   3.53,  3.36,  3.36 au

Time for grid setup =    1.351 sec

------------------------------
INITIAL GUESS: MODEL POTENTIAL
------------------------------
Loading Hartree-Fock densities                     ... done
Calculating cut-offs                               ... done
Setting up the integral package                    ... done
Initializing the effective Hamiltonian             ... done
Starting the Coulomb interaction                   ... done (   3.2 sec)
Reading the grid                                   ... done
Mapping shells                                     ... done
Starting the XC term evaluation                    ... done (   1.4 sec)
Transforming the Hamiltonian                       ... done (   0.1 sec)
Diagonalizing the Hamiltonian                      ... done (   0.1 sec)
Back transforming the eigenvectors                 ... done (   0.0 sec)
Now organizing SCF variables                       ... done
                      ------------------
                      INITIAL GUESS DONE (   6.5 sec)
                      ------------------
--------------
SCF ITERATIONS
--------------
ITER       Energy         Delta-E        Max-DP      RMS-DP      [F,P]     Damp
               ***  Starting incremental Fock matrix formation  ***
