
                                        *****************
                                        * O   R   C   A *
                                        *****************

                                            #,                                       
                                            ###                                      
                                            ####                                     
                                            #####                                    
                                            ######                                   
                                           ########,                                 
                                     ,,################,,,,,                         
                               ,,#################################,,                 
                          ,,##########################################,,             
                       ,#########################################, ''#####,          
                    ,#############################################,,   '####,        
                  ,##################################################,,,,####,       
                ,###########''''           ''''###############################       
              ,#####''   ,,,,##########,,,,          '''####'''          '####       
            ,##' ,,,,###########################,,,                        '##       
           ' ,,###''''                  '''############,,,                           
         ,,##''                                '''############,,,,        ,,,,,,###''
      ,#''                                            '''#######################'''  
     '                                                          ''''####''''         
             ,#######,   #######,   ,#######,      ##                                
            ,#'     '#,  ##    ##  ,#'     '#,    #''#        ######   ,####,        
            ##       ##  ##   ,#'  ##            #'  '#       #        #'  '#        
            ##       ##  #######   ##           ,######,      #####,   #    #        
            '#,     ,#'  ##    ##  '#,     ,#' ,#      #,         ##   #,  ,#        
             '#######'   ##     ##  '#######'  #'      '#     #####' # '####'        



                  #######################################################
                  #                        -***-                        #
                  #          Department of theory and spectroscopy      #
                  #    Directorship and core code : Frank Neese         #
                  #        Max Planck Institute fuer Kohlenforschung    #
                  #                Kaiser Wilhelm Platz 1               #
                  #                 D-45470 Muelheim/Ruhr               #
                  #                      Germany                        #
                  #                                                     #
                  #                  All rights reserved                #
                  #                        -***-                        #
                  #######################################################


                         Program Version 5.0.0 -  RELEASE  -
                                (SVN: $Rev: 19529$)
                ($Date: 2021-06-28 11:36:33 +0200 (Mo, 28 Jun 2021) $)


 With contributions from (in alphabetic order):
   Daniel Aravena         : Magnetic Suceptibility
   Michael Atanasov       : Ab Initio Ligand Field Theory (pilot matlab implementation)
   Alexander A. Auer      : GIAO ZORA, VPT2 properties, NMR spectrum
   Ute Becker             : Parallelization
   Giovanni Bistoni       : ED, misc. LED, open-shell LED, HFLD
   Martin Brehm           : Molecular dynamics
   Dmytro Bykov           : SCF Hessian
   Vijay G. Chilkuri      : MRCI spin determinant printing, contributions to CSF-ICE
   Dipayan Datta          : RHF DLPNO-CCSD density
   Achintya Kumar Dutta   : EOM-CC, STEOM-CC
   Dmitry Ganyushin       : Spin-Orbit,Spin-Spin,Magnetic field MRCI
   Miquel Garcia          : C-PCM Hessian, Gaussian charge scheme
   Yang Guo               : DLPNO-NEVPT2, F12-NEVPT2, CIM, IAO-localization
   Andreas Hansen         : Spin unrestricted coupled pair/coupled cluster methods
   Benjamin Helmich-Paris : MC-RPA, TRAH-SCF, COSX integrals
   Lee Huntington         : MR-EOM, pCC
   Robert Izsak           : Overlap fitted RIJCOSX, COSX-SCS-MP3, EOM
   Marcus Kettner         : VPT2
   Christian Kollmar      : KDIIS, OOCD, Brueckner-CCSD(T), CCSD density, CASPT2, CASPT2-K
   Simone Kossmann        : Meta GGA functionals, TD-DFT gradient, OOMP2, MP2 Hessian
   Martin Krupicka        : Initial AUTO-CI
   Lucas Lang             : DCDCAS
   Marvin Lechner         : AUTO-CI (C++ implementation), FIC-MRCC
   Dagmar Lenk            : GEPOL surface, SMD
   Dimitrios Liakos       : Extrapolation schemes; Compound Job, initial MDCI parallelization
   Dimitrios Manganas     : Further ROCIS development; embedding schemes
   Dimitrios Pantazis     : SARC Basis sets
   Anastasios Papadopoulos: AUTO-CI, single reference methods and gradients
   Taras Petrenko         : DFT Hessian,TD-DFT gradient, ASA, ECA, R-Raman, ABS, FL, XAS/XES, NRVS
   Peter Pinski           : DLPNO-MP2, DLPNO-MP2 Gradient
   Christoph Reimann      : Effective Core Potentials
   Marius Retegan         : Local ZFS, SOC
   Christoph Riplinger    : Optimizer, TS searches, QM/MM, DLPNO-CCSD(T), (RO)-DLPNO pert. Triples
   Tobias Risthaus        : Range-separated hybrids, TD-DFT gradient, RPA, STAB
   Michael Roemelt        : Original ROCIS implementation
   Masaaki Saitow         : Open-shell DLPNO-CCSD energy and density
   Barbara Sandhoefer     : DKH picture change effects
   Avijit Sen             : IP-ROCIS
   Kantharuban Sivalingam : CASSCF convergence, NEVPT2, FIC-MRCI
   Bernardo de Souza      : ESD, SOC TD-DFT
   Georgi Stoychev        : AutoAux, RI-MP2 NMR
   Willem Van den Heuvel  : Paramagnetic NMR
   Boris Wezisla          : Elementary symmetry handling
   Frank Wennmohs         : Technical directorship


 We gratefully acknowledge several colleagues who have allowed us to
 interface, adapt or use parts of their codes:
   Stefan Grimme, W. Hujo, H. Kruse, P. Pracht,  : VdW corrections, initial TS optimization,
                  C. Bannwarth, S. Ehlert          DFT functionals, gCP, sTDA/sTD-DF
   Ed Valeev, F. Pavosevic, A. Kumar             : LibInt (2-el integral package), F12 methods
   Garnet Chan, S. Sharma, J. Yang, R. Olivares  : DMRG
   Ulf Ekstrom                                   : XCFun DFT Library
   Mihaly Kallay                                 : mrcc  (arbitrary order and MRCC methods)
   Jiri Pittner, Ondrej Demel                    : Mk-CCSD
   Frank Weinhold                                : gennbo (NPA and NBO analysis)
   Christopher J. Cramer and Donald G. Truhlar   : smd solvation model
   Lars Goerigk                                  : TD-DFT with DH, B97 family of functionals
   V. Asgeirsson, H. Jonsson                     : NEB implementation
   FAccTs GmbH                                   : IRC, NEB, NEB-TS, DLPNO-Multilevel, CI-OPT
                                                   MM, QMMM, 2- and 3-layer-ONIOM, Crystal-QMMM,
                                                   LR-CPCM, SF, NACMEs, symmetry and pop. for TD-DFT,
                                                   nearIR, NL-DFT gradient (VV10), updates on ESD,
                                                   ML-optimized integration grids
   S Lehtola, MJT Oliveira, MAL Marques          : LibXC Library
   Liviu Ungur et al                             : ANISO software


 Your calculation uses the libint2 library for the computation of 2-el integrals
 For citations please refer to: http://libint.valeyev.net

 Your ORCA version has been built with support for libXC version: 5.1.0
 For citations please refer to: https://tddft.org/programs/libxc/

 This ORCA versions uses:
   CBLAS   interface :  Fast vector & matrix operations
   LAPACKE interface :  Fast linear algebra routines
   SCALAPACK package :  Parallel linear algebra routines
   Shared memory     :  Shared parallel matrices
   BLAS/LAPACK       :  OpenBLAS 0.3.15  USE64BITINT DYNAMIC_ARCH NO_AFFINITY SkylakeX SINGLE_THREADED
        Core in use  :  SkylakeX
   Copyright (c) 2011-2014, The OpenBLAS Project


================================================================================

----- Orbital basis set information -----
Your calculation utilizes the basis: cc-pVTZ 
       H, B-Ne : Obtained from the ccRepo (grant-hill.group.shef.ac.uk/ccrepo) Feb. 2017
                 T. H. Dunning, Jr., J. Chem. Phys. 90, 1007 (1989)
            He : Obtained from the ccRepo (grant-hill.group.shef.ac.uk/ccrepo) Feb. 2017
                 D. E. Woon, T. H. Dunning, Jr., J. Chem. Phys. 100, 2975 (1994)
  Li-Be, Na-Mg : Obtained from the ccRepo (grant-hill.group.shef.ac.uk/ccrepo) Feb. 2017
                 B. P. Prascher, D. E. Woon, K. A. Peterson, T. H. Dunning, Jr., A. K. Wilson, Theor. Chem. Acc. 128, 69 (2011)
         Al-Ar : Obtained from the ccRepo (grant-hill.group.shef.ac.uk/ccrepo) Feb. 2017
                 D. E. Woon, T. H. Dunning, Jr., J. Chem. Phys. 98, 1358 (1993)
            Ca : Obtained from the Peterson Research Group Website (tyr0.chem.wsu.edu/~kipeters) Feb. 2017
                 J. Koput, K. A. Peterson, J. Phys. Chem. 106, 9595 (2002)
         Sc-Zn : Obtained from the ccRepo (grant-hill.group.shef.ac.uk/ccrepo) Feb. 2017
                 N. B. Balabanov, K. A. Peterson, J. Chem. Phys. 123, 064107 (2005)
                 N. B. Balabanov, K. A. Peterson, J. Chem. Phys. 125, 074110 (2006)
         Ga-Kr : Obtained from the ccRepo (grant-hill.group.shef.ac.uk/ccrepo) Feb. 2017
                 A. K. Wilson, D. E. Woon, K. A. Peterson, T. H. Dunning, Jr., J. Chem. Phys. 110, 7667 (1999)
             Y : Obtained from the ccRepo (grant-hill.group.shef.ac.uk/ccrepo) Feb. 2017
                 K. A. Peterson, D. Figgen, M. Dolg, H. Stoll, J. Chem. Phys. 126, 124101 (2007)
        Ag, Au : Obtained from the Peterson Research Group Website (tyr0.chem.wsu.edu/~kipeters) Feb. 2017
                 K. A. Peterson, C. Puzzarini, Theor. Chem. Acc. 114, 283 (2005)

----- AuxC basis set information -----
Your calculation utilizes the auxiliary basis: cc-pVTZ/C 
  Obtained from the EMSL Basis Set Exchange (bse.pnl.gov) Feb. 2017
  H-He, B-F, Al-Ar, Ga-Kr : F. Weigend, A. Kohn, C. Hattig, J. Chem. Phys. 116, 3175 (2002)
             Li-Be, Na-Mg : C. Haettig, Phys. Chem. Chem. Phys. 7, 59 (2005)
                       Ne : C. Haettig, Phys. Chem. Chem. Phys. 7, 59 (2005)
                            F. Weigend, A. Kohn, C. Hattig, J. Chem. Phys. 116, 3175 (2002)
                    Sc-Zn : J. G. Hill, J. A. Platts, J. Chem. Phys. 128, 044104 (2008)

================================================================================
                                        WARNINGS
                       Please study these warnings very carefully!
================================================================================


WARNING: No MP2 level density has been requested!
         To caclulate MP2 level properties use
         %mp2 Density relaxed end
         or
         %mp2 Density unrelaxed end

WARNING: Post HF methods need fully converged wavefunctions
  ===> : Setting SCFConvForced true
         You can overwrite this default with %scf ConvForced false 


INFO   : the flag for use of the SHARK integral package has been found!

================================================================================
                                       INPUT FILE
================================================================================
NAME = CONFS/Conf8.orca
|  1> ! ri-mp2 cc-pvtz cc-pvtz/c TightSCF NoKeepInts
|  2> 
|  3> %scf
|  4>   MaxCore 4096
|  5> end
|  6> *xyz  0  1
|  7>     C       14.2975141   15.6758417   16.1847241
|  8>     C       15.4353343   15.4102762   17.1867721
|  9>     O       16.6246209   15.0888436   16.4343572
| 10>     C       17.8344651   15.7370490   16.5103674
| 11>     O       18.8452879   15.1468070   16.1776415
| 12>     C       17.9176996   16.8959242   17.4471149
| 13>     C       17.3317926   18.0870900   17.1913587
| 14>     C       16.5474479   18.4653945   15.9559535
| 15>     N       17.4830263   19.1438517   18.0914725
| 16>     C       18.2705743   19.1051231   19.2131457
| 17>     S       18.4291468   20.4166488   20.2073976
| 18>     N       18.9152551   17.9205011   19.4753389
| 19>     C       18.7618223   16.6732340   18.6995081
| 20>     C       18.1622496   15.5554543   19.5466687
| 21>     C       18.6832714   14.2513689   19.4641475
| 22>     C       18.1174722   13.2055527   20.2120789
| 23>     C       17.0173513   13.4637506   21.0472820
| 24>     C       16.4900993   14.7595405   21.1261120
| 25>     O       15.4174297   15.0095285   21.9180245
| 26>     C       17.0550393   15.7990899   20.3805750
| 27>     H       14.5446673   16.4929303   15.4993871
| 28>     H       13.3730488   15.9371395   16.7140466
| 29>     H       14.1029676   14.7778389   15.5847348
| 30>     H       15.5564047   16.2786545   17.8430022
| 31>     H       15.1695263   14.5555446   17.8228570
| 32>     H       16.6152239   17.7011456   15.1720414
| 33>     H       16.9312881   19.3965832   15.5199390
| 34>     H       15.4875731   18.6165993   16.1936397
| 35>     H       17.0300990   20.0260624   17.9102517
| 36>     H       19.4723871   17.9157482   20.3205573
| 37>     H       19.7636412   16.3566626   18.3730214
| 38>     H       19.5207286   14.0441562   18.8010149
| 39>     H       18.5274300   12.1998259   20.1349872
| 40>     H       16.5752091   12.6573061   21.6230813
| 41>     H       15.2121323   14.1913920   22.3958352
| 42>     H       16.6277730   16.7935406   20.4555625
| 43> *
| 44> 
| 45>                          ****END OF INPUT****
================================================================================

                       ****************************
                       * Single Point Calculation *
                       ****************************

---------------------------------
CARTESIAN COORDINATES (ANGSTROEM)
---------------------------------
  C     14.297514   15.675842   16.184724
  C     15.435334   15.410276   17.186772
  O     16.624621   15.088844   16.434357
  C     17.834465   15.737049   16.510367
  O     18.845288   15.146807   16.177642
  C     17.917700   16.895924   17.447115
  C     17.331793   18.087090   17.191359
  C     16.547448   18.465394   15.955953
  N     17.483026   19.143852   18.091472
  C     18.270574   19.105123   19.213146
  S     18.429147   20.416649   20.207398
  N     18.915255   17.920501   19.475339
  C     18.761822   16.673234   18.699508
  C     18.162250   15.555454   19.546669
  C     18.683271   14.251369   19.464147
  C     18.117472   13.205553   20.212079
  C     17.017351   13.463751   21.047282
  C     16.490099   14.759540   21.126112
  O     15.417430   15.009529   21.918025
  C     17.055039   15.799090   20.380575
  H     14.544667   16.492930   15.499387
  H     13.373049   15.937139   16.714047
  H     14.102968   14.777839   15.584735
  H     15.556405   16.278654   17.843002
  H     15.169526   14.555545   17.822857
  H     16.615224   17.701146   15.172041
  H     16.931288   19.396583   15.519939
  H     15.487573   18.616599   16.193640
  H     17.030099   20.026062   17.910252
  H     19.472387   17.915748   20.320557
  H     19.763641   16.356663   18.373021
  H     19.520729   14.044156   18.801015
  H     18.527430   12.199826   20.134987
  H     16.575209   12.657306   21.623081
  H     15.212132   14.191392   22.395835
  H     16.627773   16.793541   20.455562

----------------------------
CARTESIAN COORDINATES (A.U.)
----------------------------
  NO LB      ZA    FRAG     MASS         X           Y           Z
   0 C     6.0000    0    12.011   27.018386   29.623048   30.584696
   1 C     6.0000    0    12.011   29.168555   29.121202   32.478292
   2 O     8.0000    0    15.999   31.415981   28.513782   31.056434
   3 C     6.0000    0    12.011   33.702255   29.738713   31.200073
   4 O     8.0000    0    15.999   35.612433   28.623317   30.571312
   5 C     6.0000    0    12.011   33.859545   31.928670   32.970269
   6 C     6.0000    0    12.011   32.752341   34.179647   32.486960
   7 C     6.0000    0    12.011   31.270145   34.894539   30.152382
   8 N     7.0000    0    14.007   33.038132   36.176637   34.187928
   9 C     6.0000    0    12.011   34.526382   36.103450   36.307584
  10 S    16.0000    0    32.060   34.826040   38.581875   38.186447
  11 N     7.0000    0    14.007   35.744652   33.864839   36.803057
  12 C     6.0000    0    12.011   35.454706   31.507846   35.336949
  13 C     6.0000    0    12.011   34.321678   29.395549   36.937851
  14 C     6.0000    0    12.011   35.306266   26.931184   36.781908
  15 C     6.0000    0    12.011   34.237061   24.954878   38.195294
  16 C     6.0000    0    12.011   32.158133   25.442801   39.773599
  17 C     6.0000    0    12.011   31.161772   27.891489   39.922566
  18 O     8.0000    0    15.999   29.134720   28.363898   41.419064
  19 C     6.0000    0    12.011   32.229353   29.855953   38.513705
  20 H     1.0000    0     1.008   27.485438   31.167121   29.289597
  21 H     1.0000    0     1.008   25.271400   30.116829   31.584971
  22 H     1.0000    0     1.008   26.650746   27.926068   29.450881
  23 H     1.0000    0     1.008   29.397345   30.762199   33.718388
  24 H     1.0000    0     1.008   28.666250   27.505993   33.680319
  25 H     1.0000    0     1.008   31.398223   33.450317   28.671003
  26 H     1.0000    0     1.008   31.995498   36.654230   29.328434
  27 H     1.0000    0     1.008   29.267272   35.180274   30.601544
  28 H     1.0000    0     1.008   32.182223   37.843773   33.845471
  29 H     1.0000    0     1.008   36.797479   33.855858   38.400288
  30 H     1.0000    0     1.008   37.347869   30.909613   34.719979
  31 H     1.0000    0     1.008   36.888831   26.539609   35.528769
  32 H     1.0000    0     1.008   35.011769   23.054330   38.049612
  33 H     1.0000    0     1.008   31.322606   23.918842   40.861702
  34 H     1.0000    0     1.008   28.746764   26.817844   42.321995
  35 H     1.0000    0     1.008   31.421937   31.735193   38.655411

--------------------------------
INTERNAL COORDINATES (ANGSTROEM)
--------------------------------
 C      0   0   0     0.000000000000     0.00000000     0.00000000
 C      1   0   0     1.539240084140     0.00000000     0.00000000
 O      2   1   0     1.443554541756   107.94500241     0.00000000
 C      3   2   1     1.374652966885   126.24710134   123.46279894
 O      4   3   2     1.216903807248   119.15872622   156.68642797
 C      4   3   2     1.492452876952   116.73962345   359.06782304
 C      6   4   3     1.351878030585   122.76985752   287.03211037
 C      7   6   4     1.511468461902   126.87502809   358.51286438
 N      7   6   4     1.396360188330   119.86360100   181.97118946
 C      9   7   6     1.371088080453   124.62381515     4.40181399
 S     10   9   7     1.653415174773   121.64307202   178.25738041
 N     10   9   7     1.373931545201   116.74332251   357.86805993
 C     12  10   9     1.476865015188   125.39242286   355.97238710
 C     13  12  10     1.525319626344   111.59014527   243.32642329
 C     14  13  12     1.406738140173   120.07768011   222.75295270
 C     15  14  13     1.404728314661   120.64753089   181.70449464
 C     16  15  14     1.405167736760   119.67057026     0.22223379
 C     17  16  15     1.401171047855   119.86601806     0.17281945
 O     18  17  16     1.356554266723   120.05373177   179.15483028
 C     18  17  16     1.398443984223   120.36097552   359.82633852
 H      1   2   3     1.094716989952   111.68097087   301.34981015
 H      1   2   3     1.096856845808   110.48537015   180.69109643
 H      1   2   3     1.097380758709   110.23051010    61.37333732
 H      2   1   3     1.095160653883   109.57270043   123.98211194
 H      2   1   3     1.098100177994   109.41801145   241.33005813
 H      8   7   6     1.096899333510   112.19020005   351.27107944
 H      8   7   6     1.097521907915   110.82912564   232.24448885
 H      8   7   6     1.096673248004   111.03124518   112.35524521
 H      9   7   6     1.008107056137   119.85107731   181.28282427
 H     12  10   9     1.012330380449   114.93661126   181.30832914
 H     13  12  10     1.100205492157   107.71576920   124.73709695
 H     15  14  13     1.088125227194   119.82404465     0.54053513
 H     16  15  14     1.088804355349   119.88997907   179.69252864
 H     17  16  15     1.085074785663   119.85868421   179.73529620
 H     19  18  17     0.969431493254   107.43706615     4.60302772
 H     20  18  17     1.084947837918   119.03985520   179.81545498

---------------------------
INTERNAL COORDINATES (A.U.)
---------------------------
 C      0   0   0     0.000000000000     0.00000000     0.00000000
 C      1   0   0     2.908742213378     0.00000000     0.00000000
 O      2   1   0     2.727922743297   107.94500241     0.00000000
 C      3   2   1     2.597717636596   126.24710134   123.46279894
 O      4   3   2     2.299614927025   119.15872622   156.68642797
 C      4   3   2     2.820327205222   116.73962345   359.06782304
 C      6   4   3     2.554679244270   122.76985752   287.03211037
 C      7   6   4     2.856261453055   126.87502809   358.51286438
 N      7   6   4     2.638738340254   119.86360100   181.97118946
 C      9   7   6     2.590980977540   124.62381515     4.40181399
 S     10   9   7     3.124501865991   121.64307202   178.25738041
 N     10   9   7     2.596354347185   116.74332251   357.86805993
 C     12  10   9     2.790870415475   125.39242286   355.97238710
 C     13  12  10     2.882436360485   111.59014527   243.32642329
 C     14  13  12     2.658349827069   120.07768011   222.75295270
 C     15  14  13     2.654551807273   120.64753089   181.70449464
 C     16  15  14     2.655382194698   119.67057026     0.22223379
 C     17  16  15     2.647829547225   119.86601806     0.17281945
 O     18  17  16     2.563516049909   120.05373177   179.15483028
 C     18  17  16     2.642676143811   120.36097552   359.82633852
 H      1   2   3     2.068715305160   111.68097087   301.34981015
 H      1   2   3     2.072759046693   110.48537015   180.69109643
 H      1   2   3     2.073749098595   110.23051010    61.37333732
 H      2   1   3     2.069553708485   109.57270043   123.98211194
 H      2   1   3     2.075108604019   109.41801145   241.33005813
 H      8   7   6     2.072839336814   112.19020005   351.27107944
 H      8   7   6     2.074015831939   110.82912564   232.24448885
 H      8   7   6     2.072412097126   111.03124518   112.35524521
 H      9   7   6     1.905046249772   119.85107731   181.28282427
 H     12  10   9     1.913027176098   114.93661126   181.30832914
 H     13  12  10     2.079087071212   107.71576920   124.73709695
 H     15  14  13     2.056258678807   119.82404465     0.54053513
 H     16  15  14     2.057542045031   119.88997907   179.69252864
 H     17  16  15     2.050494179726   119.85868421   179.73529620
 H     19  18  17     1.831960027849   107.43706615     4.60302772
 H     20  18  17     2.050254283255   119.03985520   179.81545498

---------------------
BASIS SET INFORMATION
---------------------
There are 5 groups of distinct atoms

 Group   1 Type C   : 18s5p2d1f contracted to 4s3p2d1f pattern {8811/311/11/1}
 Group   2 Type O   : 18s5p2d1f contracted to 4s3p2d1f pattern {8811/311/11/1}
 Group   3 Type N   : 18s5p2d1f contracted to 4s3p2d1f pattern {8811/311/11/1}
 Group   4 Type S   : 41s16p2d1f contracted to 5s4p2d1f pattern {13131311/7711/11/1}
 Group   5 Type H   : 5s2p1d contracted to 3s2p1d pattern {311/11/1}

Atom   0C    basis set group =>   1
Atom   1C    basis set group =>   1
Atom   2O    basis set group =>   2
Atom   3C    basis set group =>   1
Atom   4O    basis set group =>   2
Atom   5C    basis set group =>   1
Atom   6C    basis set group =>   1
Atom   7C    basis set group =>   1
Atom   8N    basis set group =>   3
Atom   9C    basis set group =>   1
Atom  10S    basis set group =>   4
Atom  11N    basis set group =>   3
Atom  12C    basis set group =>   1
Atom  13C    basis set group =>   1
Atom  14C    basis set group =>   1
Atom  15C    basis set group =>   1
Atom  16C    basis set group =>   1
Atom  17C    basis set group =>   1
Atom  18O    basis set group =>   2
Atom  19C    basis set group =>   1
Atom  20H    basis set group =>   5
Atom  21H    basis set group =>   5
Atom  22H    basis set group =>   5
Atom  23H    basis set group =>   5
Atom  24H    basis set group =>   5
Atom  25H    basis set group =>   5
Atom  26H    basis set group =>   5
Atom  27H    basis set group =>   5
Atom  28H    basis set group =>   5
Atom  29H    basis set group =>   5
Atom  30H    basis set group =>   5
Atom  31H    basis set group =>   5
Atom  32H    basis set group =>   5
Atom  33H    basis set group =>   5
Atom  34H    basis set group =>   5
Atom  35H    basis set group =>   5
---------------------------------
AUXILIARY/C BASIS SET INFORMATION
---------------------------------
There are 5 groups of distinct atoms

 Group   1 Type C   : 8s6p5d3f1g contracted to 8s6p5d3f1g pattern {11111111/111111/11111/111/1}
 Group   2 Type O   : 8s6p5d3f1g contracted to 8s6p5d3f1g pattern {11111111/111111/11111/111/1}
 Group   3 Type N   : 8s6p5d3f1g contracted to 8s6p5d3f1g pattern {11111111/111111/11111/111/1}
 Group   4 Type S   : 10s8p7d5f2g contracted to 10s8p7d5f2g pattern {1111111111/11111111/1111111/11111/11}
 Group   5 Type H   : 4s3p2d1f contracted to 4s3p2d1f pattern {1111/111/11/1}

Atom   0C    basis set group =>   1
Atom   1C    basis set group =>   1
Atom   2O    basis set group =>   2
Atom   3C    basis set group =>   1
Atom   4O    basis set group =>   2
Atom   5C    basis set group =>   1
Atom   6C    basis set group =>   1
Atom   7C    basis set group =>   1
Atom   8N    basis set group =>   3
Atom   9C    basis set group =>   1
Atom  10S    basis set group =>   4
Atom  11N    basis set group =>   3
Atom  12C    basis set group =>   1
Atom  13C    basis set group =>   1
Atom  14C    basis set group =>   1
Atom  15C    basis set group =>   1
Atom  16C    basis set group =>   1
Atom  17C    basis set group =>   1
Atom  18O    basis set group =>   2
Atom  19C    basis set group =>   1
Atom  20H    basis set group =>   5
Atom  21H    basis set group =>   5
Atom  22H    basis set group =>   5
Atom  23H    basis set group =>   5
Atom  24H    basis set group =>   5
Atom  25H    basis set group =>   5
Atom  26H    basis set group =>   5
Atom  27H    basis set group =>   5
Atom  28H    basis set group =>   5
Atom  29H    basis set group =>   5
Atom  30H    basis set group =>   5
Atom  31H    basis set group =>   5
Atom  32H    basis set group =>   5
Atom  33H    basis set group =>   5
Atom  34H    basis set group =>   5
Atom  35H    basis set group =>   5
------------------------------------------------------------------------------
                           ORCA GTO INTEGRAL CALCULATION
------------------------------------------------------------------------------
------------------------------------------------------------------------------
                   ___                                                        
                  /   \      - P O W E R E D   B Y -                         
                 /     \                                                     
                 |  |  |   _    _      __       _____    __    __             
                 |  |  |  | |  | |    /  \     |  _  \  |  |  /  |          
                  \  \/   | |  | |   /    \    | | | |  |  | /  /          
                 / \  \   | |__| |  /  /\  \   | |_| |  |  |/  /          
                |  |  |   |  __  | /  /__\  \  |    /   |      \           
                |  |  |   | |  | | |   __   |  |    \   |  |\   \          
                \     /   | |  | | |  |  |  |  | |\  \  |  | \   \       
                 \___/    |_|  |_| |__|  |__|  |_| \__\ |__|  \__/        
                                                                              
                      - O R C A' S   B I G   F R I E N D -                    
                                      &                                       
                       - I N T E G R A L  F E E D E R -                       
                                                                              
 v1 FN, 2020, v2 2021                                                         
------------------------------------------------------------------------------


Reading SHARK input file CONFS/Conf8.orca.SHARKINP.tmp ... ok
----------------------
SHARK INTEGRAL PACKAGE
----------------------

Number of atoms                             ...     36
Number of basis functions                   ...    828
Number of shells                            ...    298
Maximum angular momentum                    ...      3
Integral batch strategy                     ... SHARK/LIBINT Hybrid
RI-J (if used) integral strategy            ... SPLIT-RIJ (Revised 2003 algorithm where possible)
Printlevel                                  ...      1
Contraction scheme used                     ... SEGMENTED contraction
Coulomb Range Separation                    ... NOT USED
Exchange Range Separation                   ... NOT USED
Finite Nucleus Model                        ... NOT USED
Auxiliary Coulomb fitting basis             ... NOT available
Auxiliary J/K fitting basis                 ... NOT available
Auxiliary Correlation fitting basis         ... AVAILABLE
   # of basis functions in Aux-C            ...   2141
   # of shells in Aux-C                     ...    629
   Maximum angular momentum in Aux-C        ...      4
Auxiliary 'external' fitting basis          ... NOT available
Integral threshold                          ...     2.500000e-11
Primitive cut-off                           ...     2.500000e-12
Primitive pair pre-selection threshold      ...     2.500000e-12

Calculating pre-screening integrals         ... done (  0.5 sec) Dimension = 298
Organizing shell pair data                  ... done (  1.0 sec)
Shell pair information
Total number of shell pairs                 ...     44551
Shell pairs after pre-screening             ...     34266
Total number of primitive shell pairs       ...    234348
Primitive shell pairs kept                  ...     98085
          la=0 lb=0:   6827 shell pairs
          la=1 lb=0:   9494 shell pairs
          la=1 lb=1:   3352 shell pairs
          la=2 lb=0:   5478 shell pairs
          la=2 lb=1:   3760 shell pairs
          la=2 lb=2:   1094 shell pairs
          la=3 lb=0:   1976 shell pairs
          la=3 lb=1:   1357 shell pairs
          la=3 lb=2:    778 shell pairs
          la=3 lb=3:    150 shell pairs

Calculating one electron integrals          ... done (  0.4 sec)
Calculating RI/C V-Matrix + Cholesky decomp.... done (  0.6 sec)
Calculating Nuclear repulsion               ... done (  0.1 sec) ENN=   1727.126323500882 Eh

SHARK setup successfully completed in   3.2 seconds

Maximum memory used throughout the entire GTOINT-calculation: 510.5 MB
-------------------------------------------------------------------------------
                                 ORCA SCF
-------------------------------------------------------------------------------

------------
SCF SETTINGS
------------
Hamiltonian:
 Ab initio Hamiltonian  Method          .... Hartree-Fock(GTOs)


General Settings:
 Integral files         IntName         .... CONFS/Conf8.orca
 Hartree-Fock type      HFTyp           .... RHF
 Total Charge           Charge          ....    0
 Multiplicity           Mult            ....    1
 Number of Electrons    NEL             ....  154
 Basis Dimension        Dim             ....  828
 Nuclear Repulsion      ENuc            ....   1727.1263235009 Eh

Convergence Acceleration:
 DIIS                   CNVDIIS         .... on
   Start iteration      DIISMaxIt       ....    12
   Startup error        DIISStart       ....  0.200000
   # of expansion vecs  DIISMaxEq       ....     5
   Bias factor          DIISBfac        ....   1.050
   Max. coefficient     DIISMaxC        ....  10.000
 Trust-Rad. Augm. Hess. CNVTRAH         .... auto
   Auto Start mean grad. ratio tolernc. ....  1.125000
   Auto Start start iteration           ....    20
   Auto Start num. interpolation iter.  ....    10
   Max. Number of Micro iterations      ....    16
   Max. Number of Macro iterations      .... Maxiter - #DIIS iter
   Number of Davidson start vectors     ....     2
   Converg. threshold I  (grad. norm)   ....   1.000e-05
   Converg. threshold II (energy diff.) ....   1.000e-08
   Grad. Scal. Fac. for Micro threshold ....   0.100
   Minimum threshold for Micro iter.    ....   0.010
   NR start threshold (gradient norm)   ....   0.001
   Initial trust radius                 ....   0.400
   Minimum AH scaling param. (alpha)    ....   1.000
   Maximum AH scaling param. (alpha)    .... 1000.000
   Orbital update algorithm             .... Taylor
   White noise on init. David. guess    .... on
   Maximum white noise                  ....   0.010
   Quad. conv. algorithm                .... NR
 SOSCF                  CNVSOSCF        .... on
   Start iteration      SOSCFMaxIt      ....   150
   Startup grad/error   SOSCFStart      ....  0.003300
 Level Shifting         CNVShift        .... on
   Level shift para.    LevelShift      ....    0.2500
   Turn off err/grad.   ShiftErr        ....    0.0010
 Zerner damping         CNVZerner       .... off
 Static damping         CNVDamp         .... on
   Fraction old density DampFac         ....    0.7000
   Max. Damping (<1)    DampMax         ....    0.9800
   Min. Damping (>=0)   DampMin         ....    0.0000
   Turn off err/grad.   DampErr         ....    0.1000
 Fernandez-Rico         CNVRico         .... off

SCF Procedure:
 Maximum # iterations   MaxIter         ....   125
 SCF integral mode      SCFMode         .... Direct
   Integral package                     .... SHARK and LIBINT hybrid scheme
 Reset frequency        DirectResetFreq ....    20
 Integral Threshold     Thresh          ....  2.500e-11 Eh
 Primitive CutOff       TCut            ....  2.500e-12 Eh

Convergence Tolerance:
 Convergence Check Mode ConvCheckMode   .... Total+1el-Energy
 Convergence forced     ConvForced      .... 1
 Energy Change          TolE            ....  1.000e-08 Eh
 1-El. energy change                    ....  1.000e-05 Eh
 Orbital Gradient       TolG            ....  1.000e-05
 Orbital Rotation angle TolX            ....  1.000e-05
 DIIS Error             TolErr          ....  5.000e-07


Diagonalization of the overlap matrix:
Smallest eigenvalue                        ... 3.342e-05
Time for diagonalization                   ...    0.131 sec
Threshold for overlap eigenvalues          ... 1.000e-08
Number of eigenvalues below threshold      ... 0
Time for construction of square roots      ...    0.071 sec
Total time needed                          ...    0.205 sec

Time for model grid setup =    1.523 sec

------------------------------
INITIAL GUESS: MODEL POTENTIAL
------------------------------
Loading Hartree-Fock densities                     ... done
Calculating cut-offs                               ... done
Initializing the effective Hamiltonian             ... done
Setting up the integral package (SHARK)            ... done
Starting the Coulomb interaction                   ... done (   4.3 sec)
Reading the grid                                   ... done
Mapping shells                                     ... done
Starting the XC term evaluation                    ... done (   1.4 sec)
Transforming the Hamiltonian                       ... done (   0.1 sec)
Diagonalizing the Hamiltonian                      ... done (   0.1 sec)
Back transforming the eigenvectors                 ... done (   0.0 sec)
Now organizing SCF variables                       ... done
                      ------------------
                      INITIAL GUESS DONE (   7.7 sec)
                      ------------------
--------------
SCF ITERATIONS
--------------
ITER       Energy         Delta-E        Max-DP      RMS-DP      [F,P]     Damp
               ***  Starting incremental Fock matrix formation  ***
  0  -1269.9957741477   0.000000000000 0.04927401  0.00044477  0.3104966 0.7000
  1  -1270.2626007786  -0.266826630896 0.03607205  0.00036107  0.1836074 0.7000
                               ***Turning on DIIS***
  2  -1270.4289804837  -0.166379705123 0.02584655  0.00024056  0.1098443 0.7000
  3  -1272.5439841274  -2.115003643755 0.06322635  0.00051288  0.0830154 0.0000
  4  -1270.7398585124   1.804125615030 0.01248511  0.00010345  0.0066683 0.0000
  5  -1270.7963344928  -0.056475980438 0.00581648  0.00005398  0.0035771 0.0000
                      *** Initiating the SOSCF procedure ***
                           *** Shutting down DIIS ***
                      *** Re-Reading the Fockian *** 
                      *** Removing any level shift *** 
ITER      Energy       Delta-E        Grad      Rot      Max-DP    RMS-DP
  6  -1270.77518021   0.0211542828  0.001337  0.001337  0.002808  0.000028
               *** Restarting incremental Fock matrix formation ***
  7  -1270.79053599  -0.0153557757  0.000783  0.001938  0.001513  0.000017
  8  -1270.79058152  -0.0000455323  0.000340  0.002254  0.001652  0.000019
  9  -1270.79059934  -0.0000178224  0.000112  0.000228  0.000408  0.000005
 10  -1270.79060163  -0.0000022907  0.000036  0.000096  0.000127  0.000001
 11  -1270.79060184  -0.0000002075  0.000016  0.000080  0.000072  0.000001
 12  -1270.79060190  -0.0000000575  0.000009  0.000031  0.000029  0.000000
 13  -1270.79060190  -0.0000000064  0.000003  0.000010  0.000007  0.000000
                  ***Gradient check signals convergence***
              ***Rediagonalizing the Fockian in SOSCF/NRSCF***

               *****************************************************
               *                     SUCCESS                       *
               *           SCF CONVERGED AFTER  14 CYCLES          *
               *****************************************************


----------------
TOTAL SCF ENERGY
----------------

Total Energy       :        -1270.79060190 Eh          -34579.97029 eV

Components:
Nuclear Repulsion  :         1727.12632350 Eh           46997.49657 eV
Electronic Energy  :        -2997.91692540 Eh          -81577.46686 eV
One Electron Energy:        -5174.83696986 Eh         -140814.47282 eV
Two Electron Energy:         2176.92004446 Eh           59237.00596 eV

Virial components:
Potential Energy   :        -2539.78591679 Eh          -69111.08834 eV
Kinetic Energy     :         1268.99531489 Eh           34531.11805 eV
Virial Ratio       :            2.00141473


---------------
SCF CONVERGENCE
---------------

  Last Energy change         ...    5.8762e-09  Tolerance :   1.0000e-08
  Last MAX-Density change    ...    3.5319e-06  Tolerance :   1.0000e-07
  Last RMS-Density change    ...    3.7831e-08  Tolerance :   5.0000e-09
  Last Orbital Gradient      ...    1.5321e-06  Tolerance :   1.0000e-05
  Last Orbital Rotation      ...    4.0174e-06  Tolerance :   1.0000e-05

             **** THE GBW FILE WAS UPDATED (CONFS/Conf8.orca.gbw) ****
             **** DENSITY CONFS/Conf8.orca.scfp WAS UPDATED ****
             **** ENERGY FILE WAS UPDATED (CONFS/Conf8.orca.en.tmp) ****
             **** THE GBW FILE WAS UPDATED (CONFS/Conf8.orca.gbw) ****
             **** DENSITY CONFS/Conf8.orca.scfp WAS UPDATED ****
----------------
ORBITAL ENERGIES
----------------

  NO   OCC          E(Eh)            E(eV) 
   0   2.0000     -91.890100     -2500.4567 
   1   2.0000     -20.600763      -560.5753 
   2   2.0000     -20.600464      -560.5671 
   3   2.0000     -20.550208      -559.1996 
   4   2.0000     -15.626832      -425.2277 
   5   2.0000     -15.612031      -424.8250 
   6   2.0000     -11.398535      -310.1699 
   7   2.0000     -11.387039      -309.8571 
   8   2.0000     -11.328110      -308.2536 
   9   2.0000     -11.317132      -307.9548 
  10   2.0000     -11.315594      -307.9130 
  11   2.0000     -11.303705      -307.5894 
  12   2.0000     -11.269523      -306.6593 
  13   2.0000     -11.264922      -306.5341 
  14   2.0000     -11.263867      -306.5054 
  15   2.0000     -11.257101      -306.3213 
  16   2.0000     -11.246524      -306.0335 
  17   2.0000     -11.242733      -305.9303 
  18   2.0000     -11.239813      -305.8509 
  19   2.0000     -11.235291      -305.7278 
  20   2.0000      -8.895219      -242.0512 
  21   2.0000      -6.576808      -178.9640 
  22   2.0000      -6.574781      -178.9089 
  23   2.0000      -6.574207      -178.8933 
  24   2.0000      -1.447133       -39.3785 
  25   2.0000      -1.420267       -38.6474 
  26   2.0000      -1.358737       -36.9731 
  27   2.0000      -1.340365       -36.4732 
  28   2.0000      -1.240242       -33.7487 
  29   2.0000      -1.161973       -31.6189 
  30   2.0000      -1.126361       -30.6499 
  31   2.0000      -1.049749       -28.5651 
  32   2.0000      -1.041197       -28.3324 
  33   2.0000      -1.019297       -27.7365 
  34   2.0000      -1.005652       -27.3652 
  35   2.0000      -0.990011       -26.9396 
  36   2.0000      -0.928302       -25.2604 
  37   2.0000      -0.888337       -24.1729 
  38   2.0000      -0.854129       -23.2420 
  39   2.0000      -0.842258       -22.9190 
  40   2.0000      -0.837424       -22.7875 
  41   2.0000      -0.836649       -22.7664 
  42   2.0000      -0.756880       -20.5958 
  43   2.0000      -0.738194       -20.0873 
  44   2.0000      -0.732569       -19.9342 
  45   2.0000      -0.698117       -18.9967 
  46   2.0000      -0.688799       -18.7432 
  47   2.0000      -0.680398       -18.5146 
  48   2.0000      -0.677129       -18.4256 
  49   2.0000      -0.667233       -18.1563 
  50   2.0000      -0.653428       -17.7807 
  51   2.0000      -0.641088       -17.4449 
  52   2.0000      -0.639832       -17.4107 
  53   2.0000      -0.615937       -16.7605 
  54   2.0000      -0.608884       -16.5686 
  55   2.0000      -0.606404       -16.5011 
  56   2.0000      -0.603807       -16.4304 
  57   2.0000      -0.589329       -16.0365 
  58   2.0000      -0.578979       -15.7548 
  59   2.0000      -0.570152       -15.5146 
  60   2.0000      -0.566165       -15.4061 
  61   2.0000      -0.560055       -15.2399 
  62   2.0000      -0.541212       -14.7271 
  63   2.0000      -0.535638       -14.5754 
  64   2.0000      -0.523584       -14.2474 
  65   2.0000      -0.516493       -14.0545 
  66   2.0000      -0.502881       -13.6841 
  67   2.0000      -0.501191       -13.6381 
  68   2.0000      -0.489022       -13.3070 
  69   2.0000      -0.471100       -12.8193 
  70   2.0000      -0.453445       -12.3389 
  71   2.0000      -0.448621       -12.2076 
  72   2.0000      -0.356816        -9.7095 
  73   2.0000      -0.352333        -9.5875 
  74   2.0000      -0.329812        -8.9746 
  75   2.0000      -0.324961        -8.8426 
  76   2.0000      -0.318554        -8.6683 
  77   0.0000       0.086189         2.3453 
  78   0.0000       0.104483         2.8431 
  79   0.0000       0.113845         3.0979 
  80   0.0000       0.127820         3.4782 
  81   0.0000       0.130235         3.5439 
  82   0.0000       0.142411         3.8752 
  83   0.0000       0.149925         4.0797 
  84   0.0000       0.151446         4.1210 
  85   0.0000       0.159275         4.3341 
  86   0.0000       0.165982         4.5166 
  87   0.0000       0.173280         4.7152 
  88   0.0000       0.184855         5.0302 
  89   0.0000       0.188365         5.1257 
  90   0.0000       0.196195         5.3387 
  91   0.0000       0.199278         5.4226 
  92   0.0000       0.207835         5.6555 
  93   0.0000       0.209200         5.6926 
  94   0.0000       0.224599         6.1116 
  95   0.0000       0.229800         6.2532 
  96   0.0000       0.241734         6.5779 
  97   0.0000       0.244322         6.6483 
  98   0.0000       0.260962         7.1011 
  99   0.0000       0.270791         7.3686 
 100   0.0000       0.294244         8.0068 
 101   0.0000       0.302418         8.2292 
 102   0.0000       0.308136         8.3848 
 103   0.0000       0.315178         8.5764 
 104   0.0000       0.321451         8.7471 
 105   0.0000       0.333743         9.0816 
 106   0.0000       0.338659         9.2154 
 107   0.0000       0.346660         9.4331 
 108   0.0000       0.349570         9.5123 
 109   0.0000       0.354393         9.6435 
 110   0.0000       0.371684        10.1140 
 111   0.0000       0.376477        10.2445 
 112   0.0000       0.383587        10.4379 
 113   0.0000       0.389603        10.6016 
 114   0.0000       0.400952        10.9105 
 115   0.0000       0.405815        11.0428 
 116   0.0000       0.416749        11.3403 
 117   0.0000       0.423680        11.5289 
 118   0.0000       0.428321        11.6552 
 119   0.0000       0.434239        11.8162 
 120   0.0000       0.437963        11.9176 
 121   0.0000       0.441773        12.0213 
 122   0.0000       0.449880        12.2419 
 123   0.0000       0.456197        12.4138 
 124   0.0000       0.465259        12.6604 
 125   0.0000       0.472223        12.8499 
 126   0.0000       0.475456        12.9378 
 127   0.0000       0.483355        13.1527 
 128   0.0000       0.487817        13.2742 
 129   0.0000       0.492726        13.4078 
 130   0.0000       0.504210        13.7202 
 131   0.0000       0.507597        13.8124 
 132   0.0000       0.512814        13.9544 
 133   0.0000       0.520496        14.1634 
 134   0.0000       0.521632        14.1943 
 135   0.0000       0.524937        14.2843 
 136   0.0000       0.532975        14.5030 
 137   0.0000       0.539686        14.6856 
 138   0.0000       0.549719        14.9586 
 139   0.0000       0.551366        15.0034 
 140   0.0000       0.556168        15.1341 
 141   0.0000       0.558788        15.2054 
 142   0.0000       0.567522        15.4431 
 143   0.0000       0.571739        15.5578 
 144   0.0000       0.573814        15.6143 
 145   0.0000       0.579633        15.7726 
 146   0.0000       0.585400        15.9295 
 147   0.0000       0.588253        16.0072 
 148   0.0000       0.592869        16.1328 
 149   0.0000       0.594641        16.1810 
 150   0.0000       0.599323        16.3084 
 151   0.0000       0.602314        16.3898 
 152   0.0000       0.610786        16.6203 
 153   0.0000       0.614617        16.7246 
 154   0.0000       0.619913        16.8687 
 155   0.0000       0.624061        16.9816 
 156   0.0000       0.626475        17.0472 
 157   0.0000       0.631308        17.1788 
 158   0.0000       0.640101        17.4180 
 159   0.0000       0.642846        17.4927 
 160   0.0000       0.650235        17.6938 
 161   0.0000       0.654347        17.8057 
 162   0.0000       0.656776        17.8718 
 163   0.0000       0.663264        18.0483 
 164   0.0000       0.665067        18.0974 
 165   0.0000       0.671954        18.2848 
 166   0.0000       0.673741        18.3334 
 167   0.0000       0.685080        18.6420 
 168   0.0000       0.692572        18.8459 
 169   0.0000       0.701618        19.0920 
 170   0.0000       0.703536        19.1442 
 171   0.0000       0.714564        19.4443 
 172   0.0000       0.718321        19.5465 
 173   0.0000       0.721082        19.6216 
 174   0.0000       0.732172        19.9234 
 175   0.0000       0.734088        19.9756 
 176   0.0000       0.743639        20.2354 
 177   0.0000       0.748506        20.3679 
 178   0.0000       0.753554        20.5052 
 179   0.0000       0.759018        20.6539 
 180   0.0000       0.764878        20.8134 
 181   0.0000       0.772527        21.0215 
 182   0.0000       0.783764        21.3273 
 183   0.0000       0.794034        21.6068 
 184   0.0000       0.795824        21.6555 
 185   0.0000       0.800846        21.7921 
 186   0.0000       0.819429        22.2978 
 187   0.0000       0.833618        22.6839 
 188   0.0000       0.834138        22.6980 
 189   0.0000       0.840629        22.8747 
 190   0.0000       0.846434        23.0327 
 191   0.0000       0.853126        23.2147 
 192   0.0000       0.861012        23.4293 
 193   0.0000       0.863162        23.4878 
 194   0.0000       0.868828        23.6420 
 195   0.0000       0.881068        23.9751 
 196   0.0000       0.882676        24.0188 
 197   0.0000       0.886690        24.1281 
 198   0.0000       0.901029        24.5183 
 199   0.0000       0.908494        24.7214 
 200   0.0000       0.916256        24.9326 
 201   0.0000       0.921209        25.0674 
 202   0.0000       0.923820        25.1384 
 203   0.0000       0.936867        25.4935 
 204   0.0000       0.946389        25.7526 
 205   0.0000       0.954738        25.9797 
 206   0.0000       0.959243        26.1023 
 207   0.0000       0.964704        26.2509 
 208   0.0000       0.969765        26.3886 
 209   0.0000       0.971756        26.4428 
 210   0.0000       0.975965        26.5574 
 211   0.0000       0.989058        26.9136 
 212   0.0000       0.994190        27.0533 
 213   0.0000       1.000874        27.2352 
 214   0.0000       1.013161        27.5695 
 215   0.0000       1.019655        27.7462 
 216   0.0000       1.022464        27.8227 
 217   0.0000       1.028395        27.9840 
 218   0.0000       1.034044        28.1378 
 219   0.0000       1.045820        28.4582 
 220   0.0000       1.049254        28.5516 
 221   0.0000       1.059365        28.8268 
 222   0.0000       1.067093        29.0371 
 223   0.0000       1.072014        29.1710 
 224   0.0000       1.081709        29.4348 
 225   0.0000       1.091896        29.7120 
 226   0.0000       1.096471        29.8365 
 227   0.0000       1.107295        30.1310 
 228   0.0000       1.111413        30.2431 
 229   0.0000       1.116050        30.3693 
 230   0.0000       1.124677        30.6040 
 231   0.0000       1.130076        30.7509 
 232   0.0000       1.134420        30.8691 
 233   0.0000       1.149478        31.2789 
 234   0.0000       1.157334        31.4927 
 235   0.0000       1.166380        31.7388 
 236   0.0000       1.169098        31.8128 
 237   0.0000       1.177214        32.0336 
 238   0.0000       1.181921        32.1617 
 239   0.0000       1.189763        32.3751 
 240   0.0000       1.197558        32.5872 
 241   0.0000       1.202219        32.7140 
 242   0.0000       1.204023        32.7631 
 243   0.0000       1.211892        32.9773 
 244   0.0000       1.222438        33.2642 
 245   0.0000       1.228198        33.4210 
 246   0.0000       1.232960        33.5506 
 247   0.0000       1.238851        33.7109 
 248   0.0000       1.245326        33.8870 
 249   0.0000       1.258495        34.2454 
 250   0.0000       1.264521        34.4094 
 251   0.0000       1.266818        34.4719 
 252   0.0000       1.286163        34.9983 
 253   0.0000       1.295393        35.2494 
 254   0.0000       1.296677        35.2844 
 255   0.0000       1.318084        35.8669 
 256   0.0000       1.320438        35.9309 
 257   0.0000       1.328470        36.1495 
 258   0.0000       1.329919        36.1889 
 259   0.0000       1.342381        36.5281 
 260   0.0000       1.345499        36.6129 
 261   0.0000       1.355081        36.8736 
 262   0.0000       1.361811        37.0567 
 263   0.0000       1.378326        37.5061 
 264   0.0000       1.379537        37.5391 
 265   0.0000       1.386813        37.7371 
 266   0.0000       1.399361        38.0785 
 267   0.0000       1.405716        38.2515 
 268   0.0000       1.411919        38.4203 
 269   0.0000       1.420650        38.6579 
 270   0.0000       1.426381        38.8138 
 271   0.0000       1.438664        39.1480 
 272   0.0000       1.445556        39.3356 
 273   0.0000       1.456625        39.6368 
 274   0.0000       1.464354        39.8471 
 275   0.0000       1.466988        39.9188 
 276   0.0000       1.474401        40.1205 
 277   0.0000       1.484073        40.3837 
 278   0.0000       1.488718        40.5101 
 279   0.0000       1.491028        40.5729 
 280   0.0000       1.495986        40.7078 
 281   0.0000       1.510824        41.1116 
 282   0.0000       1.513376        41.1811 
 283   0.0000       1.527108        41.5547 
 284   0.0000       1.532290        41.6957 
 285   0.0000       1.533895        41.7394 
 286   0.0000       1.539320        41.8870 
 287   0.0000       1.541736        41.9528 
 288   0.0000       1.548993        42.1502 
 289   0.0000       1.557205        42.3737 
 290   0.0000       1.569755        42.7152 
 291   0.0000       1.576055        42.8866 
 292   0.0000       1.583849        43.0987 
 293   0.0000       1.584551        43.1178 
 294   0.0000       1.598723        43.5035 
 295   0.0000       1.610501        43.8239 
 296   0.0000       1.617417        44.0122 
 297   0.0000       1.623348        44.1735 
 298   0.0000       1.624497        44.2048 
 299   0.0000       1.630803        44.3764 
 300   0.0000       1.636506        44.5316 
 301   0.0000       1.644288        44.7434 
 302   0.0000       1.650447        44.9109 
 303   0.0000       1.651697        44.9450 
 304   0.0000       1.672564        45.5128 
 305   0.0000       1.679289        45.6958 
 306   0.0000       1.689496        45.9735 
 307   0.0000       1.697734        46.1977 
 308   0.0000       1.700559        46.2746 
 309   0.0000       1.711621        46.5756 
 310   0.0000       1.715482        46.6806 
 311   0.0000       1.729041        47.0496 
 312   0.0000       1.737846        47.2892 
 313   0.0000       1.744118        47.4599 
 314   0.0000       1.758995        47.8647 
 315   0.0000       1.771597        48.2076 
 316   0.0000       1.780577        48.4520 
 317   0.0000       1.795482        48.8575 
 318   0.0000       1.798968        48.9524 
 319   0.0000       1.810086        49.2549 
 320   0.0000       1.814062        49.3631 
 321   0.0000       1.831945        49.8498 
 322   0.0000       1.836059        49.9617 
 323   0.0000       1.851867        50.3919 
 324   0.0000       1.854032        50.4508 
 325   0.0000       1.865632        50.7664 
 326   0.0000       1.885264        51.3007 
 327   0.0000       1.896229        51.5990 
 328   0.0000       1.903092        51.7858 
 329   0.0000       1.910061        51.9754 
 330   0.0000       1.920600        52.2622 
 331   0.0000       1.932372        52.5825 
 332   0.0000       1.940822        52.8125 
 333   0.0000       1.951503        53.1031 
 334   0.0000       1.970147        53.6104 
 335   0.0000       1.981401        53.9167 
 336   0.0000       1.988611        54.1128 
 337   0.0000       2.005963        54.5850 
 338   0.0000       2.014983        54.8305 
 339   0.0000       2.020802        54.9888 
 340   0.0000       2.029439        55.2238 
 341   0.0000       2.041162        55.5428 
 342   0.0000       2.052391        55.8484 
 343   0.0000       2.081638        56.6443 
 344   0.0000       2.087853        56.8134 
 345   0.0000       2.089721        56.8642 
 346   0.0000       2.120261        57.6952 
 347   0.0000       2.143852        58.3372 
 348   0.0000       2.152479        58.5719 
 349   0.0000       2.161847        58.8269 
 350   0.0000       2.182979        59.4019 
 351   0.0000       2.199531        59.8523 
 352   0.0000       2.209353        60.1196 
 353   0.0000       2.223581        60.5067 
 354   0.0000       2.229827        60.6767 
 355   0.0000       2.271014        61.7974 
 356   0.0000       2.288124        62.2630 
 357   0.0000       2.291429        62.3530 
 358   0.0000       2.299664        62.5770 
 359   0.0000       2.305034        62.7232 
 360   0.0000       2.324562        63.2545 
 361   0.0000       2.338578        63.6359 
 362   0.0000       2.345167        63.8152 
 363   0.0000       2.356676        64.1284 
 364   0.0000       2.363236        64.3069 
 365   0.0000       2.372858        64.5688 
 366   0.0000       2.386203        64.9319 
 367   0.0000       2.396904        65.2231 
 368   0.0000       2.403897        65.4134 
 369   0.0000       2.423096        65.9358 
 370   0.0000       2.430361        66.1335 
 371   0.0000       2.447795        66.6079 
 372   0.0000       2.465906        67.1007 
 373   0.0000       2.476283        67.3831 
 374   0.0000       2.495690        67.9112 
 375   0.0000       2.507841        68.2418 
 376   0.0000       2.512012        68.3553 
 377   0.0000       2.532144        68.9031 
 378   0.0000       2.548685        69.3533 
 379   0.0000       2.564997        69.7971 
 380   0.0000       2.568005        69.8790 
 381   0.0000       2.581693        70.2514 
 382   0.0000       2.590613        70.4942 
 383   0.0000       2.603570        70.8467 
 384   0.0000       2.611471        71.0617 
 385   0.0000       2.621648        71.3387 
 386   0.0000       2.638913        71.8085 
 387   0.0000       2.649274        72.0904 
 388   0.0000       2.661125        72.4129 
 389   0.0000       2.674587        72.7792 
 390   0.0000       2.683390        73.0188 
 391   0.0000       2.695142        73.3385 
 392   0.0000       2.706888        73.6582 
 393   0.0000       2.714636        73.8690 
 394   0.0000       2.725040        74.1521 
 395   0.0000       2.728551        74.2476 
 396   0.0000       2.742411        74.6248 
 397   0.0000       2.746947        74.7482 
 398   0.0000       2.757692        75.0406 
 399   0.0000       2.762519        75.1720 
 400   0.0000       2.767292        75.3018 
 401   0.0000       2.778566        75.6086 
 402   0.0000       2.792781        75.9954 
 403   0.0000       2.797874        76.1340 
 404   0.0000       2.823100        76.8205 
 405   0.0000       2.826760        76.9200 
 406   0.0000       2.834565        77.1324 
 407   0.0000       2.851762        77.6004 
 408   0.0000       2.854048        77.6626 
 409   0.0000       2.877745        78.3074 
 410   0.0000       2.883931        78.4758 
 411   0.0000       2.891297        78.6762 
 412   0.0000       2.898440        78.8706 
 413   0.0000       2.918482        79.4159 
 414   0.0000       2.920948        79.4830 
 415   0.0000       2.933981        79.8377 
 416   0.0000       2.943273        80.0905 
 417   0.0000       2.950621        80.2905 
 418   0.0000       2.955145        80.4136 
 419   0.0000       2.959908        80.5432 
 420   0.0000       2.979704        81.0819 
 421   0.0000       2.983643        81.1890 
 422   0.0000       2.994282        81.4786 
 423   0.0000       3.000489        81.6475 
 424   0.0000       3.008986        81.8787 
 425   0.0000       3.016215        82.0754 
 426   0.0000       3.024423        82.2987 
 427   0.0000       3.029221        82.4293 
 428   0.0000       3.030360        82.4603 
 429   0.0000       3.038220        82.6742 
 430   0.0000       3.047600        82.9294 
 431   0.0000       3.055345        83.1402 
 432   0.0000       3.064005        83.3758 
 433   0.0000       3.068629        83.5016 
 434   0.0000       3.074803        83.6697 
 435   0.0000       3.083237        83.8991 
 436   0.0000       3.090005        84.0833 
 437   0.0000       3.094311        84.2005 
 438   0.0000       3.107441        84.5578 
 439   0.0000       3.116847        84.8137 
 440   0.0000       3.123475        84.9941 
 441   0.0000       3.125796        85.0572 
 442   0.0000       3.134318        85.2891 
 443   0.0000       3.137917        85.3871 
 444   0.0000       3.150120        85.7191 
 445   0.0000       3.157597        85.9226 
 446   0.0000       3.165293        86.1320 
 447   0.0000       3.173710        86.3610 
 448   0.0000       3.182500        86.6002 
 449   0.0000       3.190934        86.8297 
 450   0.0000       3.192725        86.8785 
 451   0.0000       3.205978        87.2391 
 452   0.0000       3.213361        87.4400 
 453   0.0000       3.224339        87.7387 
 454   0.0000       3.233599        87.9907 
 455   0.0000       3.240161        88.1693 
 456   0.0000       3.242889        88.2435 
 457   0.0000       3.246311        88.3366 
 458   0.0000       3.257099        88.6302 
 459   0.0000       3.268431        88.9385 
 460   0.0000       3.272132        89.0392 
 461   0.0000       3.282599        89.3241 
 462   0.0000       3.288220        89.4770 
 463   0.0000       3.293387        89.6176 
 464   0.0000       3.295748        89.6819 
 465   0.0000       3.304981        89.9331 
 466   0.0000       3.309445        90.0546 
 467   0.0000       3.318645        90.3049 
 468   0.0000       3.328929        90.5848 
 469   0.0000       3.338157        90.8359 
 470   0.0000       3.340255        90.8930 
 471   0.0000       3.346507        91.0631 
 472   0.0000       3.350935        91.1836 
 473   0.0000       3.353574        91.2554 
 474   0.0000       3.360701        91.4493 
 475   0.0000       3.370899        91.7268 
 476   0.0000       3.374699        91.8302 
 477   0.0000       3.376055        91.8671 
 478   0.0000       3.381718        92.0212 
 479   0.0000       3.384000        92.0833 
 480   0.0000       3.386644        92.1553 
 481   0.0000       3.394012        92.3558 
 482   0.0000       3.398750        92.4847 
 483   0.0000       3.402252        92.5800 
 484   0.0000       3.404900        92.6520 
 485   0.0000       3.419875        93.0595 
 486   0.0000       3.428098        93.2833 
 487   0.0000       3.431281        93.3699 
 488   0.0000       3.438216        93.5586 
 489   0.0000       3.440457        93.6196 
 490   0.0000       3.447148        93.8017 
 491   0.0000       3.452280        93.9413 
 492   0.0000       3.454651        94.0058 
 493   0.0000       3.462808        94.2278 
 494   0.0000       3.467916        94.3668 
 495   0.0000       3.470576        94.4392 
 496   0.0000       3.477349        94.6235 
 497   0.0000       3.489990        94.9675 
 498   0.0000       3.495503        95.1175 
 499   0.0000       3.507770        95.4513 
 500   0.0000       3.513293        95.6016 
 501   0.0000       3.517802        95.7243 
 502   0.0000       3.521145        95.8152 
 503   0.0000       3.536843        96.2424 
 504   0.0000       3.551476        96.6406 
 505   0.0000       3.558746        96.8384 
 506   0.0000       3.563779        96.9754 
 507   0.0000       3.567747        97.0833 
 508   0.0000       3.576955        97.3339 
 509   0.0000       3.580515        97.4308 
 510   0.0000       3.599493        97.9472 
 511   0.0000       3.601347        97.9976 
 512   0.0000       3.608533        98.1932 
 513   0.0000       3.616935        98.4218 
 514   0.0000       3.624977        98.6406 
 515   0.0000       3.625493        98.6547 
 516   0.0000       3.627555        98.7108 
 517   0.0000       3.629053        98.7516 
 518   0.0000       3.638986        99.0218 
 519   0.0000       3.645275        99.1930 
 520   0.0000       3.653100        99.4059 
 521   0.0000       3.658619        99.5561 
 522   0.0000       3.665036        99.7307 
 523   0.0000       3.674595        99.9908 
 524   0.0000       3.678589       100.0995 
 525   0.0000       3.681662       100.1831 
 526   0.0000       3.689445       100.3949 
 527   0.0000       3.694405       100.5299 
 528   0.0000       3.702012       100.7369 
 529   0.0000       3.714199       101.0685 
 530   0.0000       3.714856       101.0864 
 531   0.0000       3.722388       101.2913 
 532   0.0000       3.727762       101.4376 
 533   0.0000       3.734227       101.6135 
 534   0.0000       3.743386       101.8627 
 535   0.0000       3.753955       102.1503 
 536   0.0000       3.756200       102.2114 
 537   0.0000       3.766856       102.5014 
 538   0.0000       3.770791       102.6084 
 539   0.0000       3.773347       102.6780 
 540   0.0000       3.777806       102.7993 
 541   0.0000       3.794526       103.2543 
 542   0.0000       3.795722       103.2868 
 543   0.0000       3.803323       103.4937 
 544   0.0000       3.807811       103.6158 
 545   0.0000       3.819680       103.9388 
 546   0.0000       3.829283       104.2001 
 547   0.0000       3.829744       104.2126 
 548   0.0000       3.842997       104.5733 
 549   0.0000       3.845474       104.6407 
 550   0.0000       3.857897       104.9787 
 551   0.0000       3.870698       105.3270 
 552   0.0000       3.874966       105.4432 
 553   0.0000       3.880300       105.5883 
 554   0.0000       3.892271       105.9141 
 555   0.0000       3.900568       106.1398 
 556   0.0000       3.909851       106.3925 
 557   0.0000       3.925519       106.8188 
 558   0.0000       3.932127       106.9986 
 559   0.0000       3.939247       107.1923 
 560   0.0000       3.945826       107.3714 
 561   0.0000       3.950424       107.4965 
 562   0.0000       3.964551       107.8809 
 563   0.0000       3.971447       108.0686 
 564   0.0000       3.985370       108.4474 
 565   0.0000       3.986884       108.4886 
 566   0.0000       3.998495       108.8046 
 567   0.0000       4.010565       109.1330 
 568   0.0000       4.015083       109.2560 
 569   0.0000       4.027416       109.5915 
 570   0.0000       4.038945       109.9053 
 571   0.0000       4.042550       110.0034 
 572   0.0000       4.048463       110.1643 
 573   0.0000       4.053923       110.3129 
 574   0.0000       4.066487       110.6547 
 575   0.0000       4.075137       110.8901 
 576   0.0000       4.083642       111.1215 
 577   0.0000       4.093177       111.3810 
 578   0.0000       4.100116       111.5698 
 579   0.0000       4.103312       111.6568 
 580   0.0000       4.109404       111.8226 
 581   0.0000       4.119306       112.0920 
 582   0.0000       4.127803       112.3232 
 583   0.0000       4.136514       112.5603 
 584   0.0000       4.138365       112.6106 
 585   0.0000       4.145130       112.7947 
 586   0.0000       4.147333       112.8547 
 587   0.0000       4.160705       113.2185 
 588   0.0000       4.169928       113.4695 
 589   0.0000       4.171584       113.5146 
 590   0.0000       4.177459       113.6744 
 591   0.0000       4.184446       113.8646 
 592   0.0000       4.186742       113.9270 
 593   0.0000       4.197581       114.2220 
 594   0.0000       4.203964       114.3957 
 595   0.0000       4.212821       114.6367 
 596   0.0000       4.224101       114.9436 
 597   0.0000       4.232187       115.1637 
 598   0.0000       4.239743       115.3693 
 599   0.0000       4.246144       115.5435 
 600   0.0000       4.254310       115.7657 
 601   0.0000       4.262027       115.9756 
 602   0.0000       4.268413       116.1494 
 603   0.0000       4.284944       116.5992 
 604   0.0000       4.290613       116.7535 
 605   0.0000       4.298503       116.9682 
 606   0.0000       4.309503       117.2675 
 607   0.0000       4.312201       117.3409 
 608   0.0000       4.327686       117.7623 
 609   0.0000       4.333079       117.9091 
 610   0.0000       4.342057       118.1534 
 611   0.0000       4.344671       118.2245 
 612   0.0000       4.356226       118.5389 
 613   0.0000       4.364936       118.7759 
 614   0.0000       4.371442       118.9530 
 615   0.0000       4.384356       119.3044 
 616   0.0000       4.389109       119.4337 
 617   0.0000       4.395905       119.6187 
 618   0.0000       4.399720       119.7225 
 619   0.0000       4.401222       119.7633 
 620   0.0000       4.416785       120.1868 
 621   0.0000       4.422746       120.3490 
 622   0.0000       4.431252       120.5805 
 623   0.0000       4.436121       120.7130 
 624   0.0000       4.447893       121.0333 
 625   0.0000       4.454244       121.2061 
 626   0.0000       4.467168       121.5578 
 627   0.0000       4.483497       122.0022 
 628   0.0000       4.493314       122.2693 
 629   0.0000       4.500541       122.4659 
 630   0.0000       4.510265       122.7305 
 631   0.0000       4.516056       122.8881 
 632   0.0000       4.525118       123.1347 
 633   0.0000       4.533894       123.3735 
 634   0.0000       4.538127       123.4887 
 635   0.0000       4.548462       123.7699 
 636   0.0000       4.557321       124.0110 
 637   0.0000       4.562450       124.1506 
 638   0.0000       4.579711       124.6203 
 639   0.0000       4.586698       124.8104 
 640   0.0000       4.600098       125.1750 
 641   0.0000       4.603234       125.2604 
 642   0.0000       4.616906       125.6324 
 643   0.0000       4.623504       125.8119 
 644   0.0000       4.627848       125.9301 
 645   0.0000       4.633266       126.0776 
 646   0.0000       4.634820       126.1199 
 647   0.0000       4.642483       126.3284 
 648   0.0000       4.650497       126.5465 
 649   0.0000       4.660319       126.8137 
 650   0.0000       4.666730       126.9882 
 651   0.0000       4.674005       127.1861 
 652   0.0000       4.681899       127.4009 
 653   0.0000       4.687081       127.5420 
 654   0.0000       4.695493       127.7709 
 655   0.0000       4.713804       128.2691 
 656   0.0000       4.727765       128.6490 
 657   0.0000       4.731505       128.7508 
 658   0.0000       4.735171       128.8506 
 659   0.0000       4.747822       129.1948 
 660   0.0000       4.762184       129.5856 
 661   0.0000       4.782045       130.1261 
 662   0.0000       4.789149       130.3194 
 663   0.0000       4.800223       130.6207 
 664   0.0000       4.808404       130.8433 
 665   0.0000       4.825590       131.3110 
 666   0.0000       4.848114       131.9239 
 667   0.0000       4.864536       132.3708 
 668   0.0000       4.895866       133.2233 
 669   0.0000       4.904204       133.4502 
 670   0.0000       4.910637       133.6252 
 671   0.0000       4.929295       134.1329 
 672   0.0000       4.940994       134.4513 
 673   0.0000       4.954090       134.8076 
 674   0.0000       4.986923       135.7011 
 675   0.0000       4.998835       136.0252 
 676   0.0000       5.012826       136.4059 
 677   0.0000       5.013692       136.4295 
 678   0.0000       5.028000       136.8188 
 679   0.0000       5.031986       136.9273 
 680   0.0000       5.047618       137.3527 
 681   0.0000       5.060225       137.6957 
 682   0.0000       5.067780       137.9013 
 683   0.0000       5.087371       138.4344 
 684   0.0000       5.095625       138.6590 
 685   0.0000       5.116261       139.2205 
 686   0.0000       5.121806       139.3714 
 687   0.0000       5.132493       139.6622 
 688   0.0000       5.146462       140.0423 
 689   0.0000       5.147918       140.0820 
 690   0.0000       5.158677       140.3747 
 691   0.0000       5.176979       140.8727 
 692   0.0000       5.184898       141.0883 
 693   0.0000       5.198459       141.4573 
 694   0.0000       5.212061       141.8274 
 695   0.0000       5.214015       141.8806 
 696   0.0000       5.222343       142.1072 
 697   0.0000       5.227779       142.2551 
 698   0.0000       5.237823       142.5284 
 699   0.0000       5.247171       142.7828 
 700   0.0000       5.265618       143.2847 
 701   0.0000       5.267991       143.3493 
 702   0.0000       5.296617       144.1283 
 703   0.0000       5.316969       144.6821 
 704   0.0000       5.327613       144.9717 
 705   0.0000       5.339310       145.2900 
 706   0.0000       5.348152       145.5306 
 707   0.0000       5.353271       145.6699 
 708   0.0000       5.360788       145.8745 
 709   0.0000       5.375032       146.2620 
 710   0.0000       5.384758       146.5267 
 711   0.0000       5.403061       147.0248 
 712   0.0000       5.442525       148.0986 
 713   0.0000       5.465669       148.7284 
 714   0.0000       5.473237       148.9344 
 715   0.0000       5.483300       149.2082 
 716   0.0000       5.491849       149.4408 
 717   0.0000       5.506162       149.8303 
 718   0.0000       5.514812       150.0657 
 719   0.0000       5.524067       150.3175 
 720   0.0000       5.529273       150.4592 
 721   0.0000       5.550963       151.0494 
 722   0.0000       5.558277       151.2484 
 723   0.0000       5.569569       151.5557 
 724   0.0000       5.575016       151.7039 
 725   0.0000       5.592215       152.1719 
 726   0.0000       5.612022       152.7109 
 727   0.0000       5.630276       153.2076 
 728   0.0000       5.637828       153.4131 
 729   0.0000       5.644056       153.5826 
 730   0.0000       5.656563       153.9229 
 731   0.0000       5.668508       154.2479 
 732   0.0000       5.675707       154.4438 
 733   0.0000       5.684553       154.6846 
 734   0.0000       5.696501       155.0097 
 735   0.0000       5.701477       155.1451 
 736   0.0000       5.713649       155.4763 
 737   0.0000       5.735684       156.0759 
 738   0.0000       5.740660       156.2113 
 739   0.0000       5.746981       156.3833 
 740   0.0000       5.762094       156.7945 
 741   0.0000       5.770901       157.0342 
 742   0.0000       5.782623       157.3532 
 743   0.0000       5.792179       157.6132 
 744   0.0000       5.815951       158.2601 
 745   0.0000       5.836194       158.8109 
 746   0.0000       5.859357       159.4412 
 747   0.0000       5.875543       159.8816 
 748   0.0000       5.881937       160.0556 
 749   0.0000       5.925137       161.2312 
 750   0.0000       5.927334       161.2910 
 751   0.0000       5.959620       162.1695 
 752   0.0000       5.971212       162.4849 
 753   0.0000       5.996113       163.1625 
 754   0.0000       6.000799       163.2900 
 755   0.0000       6.005399       163.4152 
 756   0.0000       6.040707       164.3760 
 757   0.0000       6.055478       164.7779 
 758   0.0000       6.069269       165.1532 
 759   0.0000       6.072290       165.2354 
 760   0.0000       6.096569       165.8961 
 761   0.0000       6.178915       168.1368 
 762   0.0000       6.230059       169.5285 
 763   0.0000       6.238504       169.7583 
 764   0.0000       6.245200       169.9405 
 765   0.0000       6.286728       171.0706 
 766   0.0000       6.310817       171.7261 
 767   0.0000       6.341556       172.5625 
 768   0.0000       6.346712       172.7028 
 769   0.0000       6.366400       173.2385 
 770   0.0000       6.371749       173.3841 
 771   0.0000       6.387284       173.8068 
 772   0.0000       6.401176       174.1849 
 773   0.0000       6.440491       175.2547 
 774   0.0000       6.454191       175.6275 
 775   0.0000       6.463518       175.8813 
 776   0.0000       6.501627       176.9183 
 777   0.0000       6.550352       178.2441 
 778   0.0000       6.557792       178.4466 
 779   0.0000       6.625906       180.3001 
 780   0.0000       6.668086       181.4478 
 781   0.0000       6.699931       182.3144 
 782   0.0000       6.735392       183.2793 
 783   0.0000       6.766683       184.1308 
 784   0.0000       6.821624       185.6258 
 785   0.0000       6.842496       186.1938 
 786   0.0000       6.906171       187.9265 
 787   0.0000       6.919741       188.2957 
 788   0.0000       6.963664       189.4909 
 789   0.0000       6.985738       190.0916 
 790   0.0000       7.050606       191.8567 
 791   0.0000       7.070862       192.4079 
 792   0.0000       7.080181       192.6615 
 793   0.0000       7.135569       194.1687 
 794   0.0000       7.173279       195.1948 
 795   0.0000       7.255858       197.4419 
 796   0.0000       7.264915       197.6884 
 797   0.0000       7.279460       198.0842 
 798   0.0000       7.338852       199.7003 
 799   0.0000       7.371356       200.5848 
 800   0.0000       7.403723       201.4656 
 801   0.0000       7.505623       204.2384 
 802   0.0000       7.572325       206.0535 
 803   0.0000       7.581569       206.3050 
 804   0.0000       7.592350       206.5983 
 805   0.0000       7.756822       211.0739 
 806   0.0000       7.815822       212.6793 
 807   0.0000       7.930438       215.7982 
 808   0.0000       8.034570       218.6318 
 809   0.0000       9.411668       256.1045 
 810   0.0000       9.723985       264.6031 
 811   0.0000      10.822888       294.5057 
 812   0.0000      11.262851       306.4778 
 813   0.0000      12.130570       330.0896 
 814   0.0000      12.562251       341.8362 
 815   0.0000      12.932371       351.9077 
 816   0.0000      13.062633       355.4523 
 817   0.0000      13.261093       360.8527 
 818   0.0000      13.379200       364.0665 
 819   0.0000      13.465359       366.4110 
 820   0.0000      13.525048       368.0353 
 821   0.0000      13.747875       374.0987 
 822   0.0000      13.936659       379.2358 
 823   0.0000      13.987227       380.6118 
 824   0.0000      14.245787       387.6476 
 825   0.0000      14.541508       395.6946 
 826   0.0000      14.723383       400.6436 
 827   0.0000      15.984468       434.9595 

                    ********************************
                    * MULLIKEN POPULATION ANALYSIS *
                    ********************************

-----------------------
MULLIKEN ATOMIC CHARGES
-----------------------
   0 C :   -0.269849
   1 C :    0.015012
   2 O :   -0.316824
   3 C :    0.393131
   4 O :   -0.380946
   5 C :   -0.175830
   6 C :    0.130511
   7 C :   -0.337126
   8 N :   -0.137033
   9 C :    0.204775
  10 S :   -0.441211
  11 N :   -0.213824
  12 C :    0.069763
  13 C :    0.029095
  14 C :   -0.191090
  15 C :   -0.129183
  16 C :   -0.277245
  17 C :    0.313539
  18 O :   -0.357920
  19 C :   -0.283858
  20 H :    0.087580
  21 H :    0.094593
  22 H :    0.111928
  23 H :    0.097960
  24 H :    0.129020
  25 H :    0.125448
  26 H :    0.144053
  27 H :    0.124702
  28 H :    0.196372
  29 H :    0.198687
  30 H :    0.164163
  31 H :    0.166255
  32 H :    0.163609
  33 H :    0.132813
  34 H :    0.241991
  35 H :    0.176937
Sum of atomic charges:   -0.0000000

--------------------------------
MULLIKEN REDUCED ORBITAL CHARGES
--------------------------------
  0 C s       :     3.258025  s :     3.258025
      pz      :     0.971117  p :     2.935544
      px      :     0.943173
      py      :     1.021254
      dz2     :     0.002563  d :     0.071830
      dxz     :     0.020827
      dyz     :     0.026629
      dx2y2   :     0.013808
      dxy     :     0.008003
      f0      :     0.000228  f :     0.004449
      f+1     :     0.000498
      f-1     :     0.000172
      f+2     :     0.002044
      f-2     :     0.000927
      f+3     :     0.000272
      f-3     :     0.000307
  1 C s       :     3.175782  s :     3.175782
      pz      :     0.908000  p :     2.637888
      px      :     0.713470
      py      :     1.016418
      dz2     :     0.022502  d :     0.159621
      dxz     :     0.038439
      dyz     :     0.036627
      dx2y2   :     0.036130
      dxy     :     0.025923
      f0      :     0.000946  f :     0.011698
      f+1     :     0.002848
      f-1     :     0.000366
      f+2     :     0.003013
      f-2     :     0.001845
      f+3     :     0.001322
      f-3     :     0.001359
  2 O s       :     3.723572  s :     3.723572
      pz      :     1.667088  p :     4.557801
      px      :     1.224528
      py      :     1.666185
      dz2     :     0.004480  d :     0.033158
      dxz     :     0.008494
      dyz     :     0.003530
      dx2y2   :     0.004865
      dxy     :     0.011788
      f0      :     0.000221  f :     0.002293
      f+1     :     0.000375
      f-1     :     0.000107
      f+2     :     0.000332
      f-2     :     0.000268
[...]
 15 C s       :     2.705830  s :     2.705830
      pz      :     0.894189  p :     2.791572
      px      :     0.924741
      py      :     0.972642
      dz2     :     0.092056  d :     0.415343
      dxz     :     0.064046
      dyz     :     0.062838
      dx2y2   :     0.100106
      dxy     :     0.096296
      f0      :     0.003116  f :     0.041033
      f+1     :     0.005030
      f-1     :     0.006263
      f+2     :     0.006358
      f-2     :     0.007074
      f+3     :     0.006330
      f-3     :     0.006862
 16 C s       :     2.701905  s :     2.701905
      pz      :     0.938747  p :     2.867364
      px      :     0.960471
      py      :     0.968145
      dz2     :     0.047448  d :     0.390525
      dxz     :     0.054388
      dyz     :     0.089499
      dx2y2   :     0.092136
      dxy     :     0.107055
      f0      :     0.004933  f :     0.040314
      f+1     :     0.004663
      f-1     :     0.003103
      f+2     :     0.005416
      f-2     :     0.006627
      f+3     :     0.007348
      f-3     :     0.008224
 17 C s       :     2.701592  s :     2.701592
      pz      :     0.829349  p :     2.683997
      px      :     0.818787
      py      :     1.035861
      dz2     :     0.128682  d :     0.709216
      dxz     :     0.112539
      dyz     :     0.138108
      dx2y2   :     0.167552
      dxy     :     0.162335
      f0      :     0.010200  f :     0.099354
      f+1     :     0.016267
      f-1     :     0.009093
      f+2     :     0.014199
      f-2     :     0.017015
      f+3     :     0.013675
      f-3     :     0.018905
 18 O s       :     3.177292  s :     3.177292
      pz      :     1.442961  p :     4.347707
      px      :     1.437448
      py      :     1.467298
      dz2     :     0.009225  d :     0.075574
      dxz     :     0.018148
      dyz     :     0.016672
      dx2y2   :     0.018848
      dxy     :     0.012681
      f0      :     0.000602  f :     0.005072
      f+1     :     0.000823
      f-1     :     0.000293
      f+2     :     0.000922
      f-2     :     0.000870
      f+3     :     0.000666
      f-3     :     0.000897
 19 C s       :     2.695660  s :     2.695660
      pz      :     0.931977  p :     2.847304
      px      :     0.947976
      py      :     0.967351
      dz2     :     0.074008  d :     0.388261
      dxz     :     0.061350
      dyz     :     0.065635
      dx2y2   :     0.089216
      dxy     :     0.098052
      f0      :     0.003214  f :     0.040775
      f+1     :     0.004982
      f-1     :     0.005742
      f+2     :     0.006570
      f-2     :     0.007518
      f+3     :     0.006449
      f-3     :     0.006299
 20 H s       :     0.853024  s :     0.853024
      pz      :     0.054252  p :     0.153365
      px      :     0.040073
      py      :     0.059039
      dz2     :     0.006269  d :     0.027812
      dxz     :     0.004456
      dyz     :     0.007025
      dx2y2   :     0.005433
      dxy     :     0.004629
 21 H s       :     0.846548  s :     0.846548
      pz      :     0.045683  p :     0.151165
      px      :     0.063427
      py      :     0.042055
      dz2     :     0.004467  d :     0.027432
      dxz     :     0.007132
      dyz     :     0.003155
      dx2y2   :     0.006300
      dxy     :     0.006378
 22 H s       :     0.845029  s :     0.845029
      pz      :     0.049827  p :     0.150728
      px      :     0.039377
      py      :     0.061524
      dz2     :     0.005162  d :     0.027496
      dxz     :     0.003602
      dyz     :     0.007372
      dx2y2   :     0.005317
      dxy     :     0.006043
 23 H s       :     0.853176  s :     0.853176
      pz      :     0.055071  p :     0.159726
      px      :     0.033561
      py      :     0.071093
      dz2     :     0.006217  d :     0.028020
      dxz     :     0.003430
      dyz     :     0.008276
      dx2y2   :     0.005978
      dxy     :     0.004119
 24 H s       :     0.850350  s :     0.850350
      pz      :     0.051332  p :     0.144702
      px      :     0.030762
      py      :     0.062607
      dz2     :     0.005734  d :     0.026934
      dxz     :     0.003292
      dyz     :     0.007981
      dx2y2   :     0.004961
      dxy     :     0.004967
 25 H s       :     0.832262  s :     0.832262
      pz      :     0.054823  p :     0.149253
      px      :     0.038107
      py      :     0.056323
      dz2     :     0.007394  d :     0.027619
      dxz     :     0.004780
      dyz     :     0.006926
      dx2y2   :     0.004185
      dxy     :     0.004333
 26 H s       :     0.831386  s :     0.831386
      pz      :     0.042964  p :     0.150477
      px      :     0.042768
      py      :     0.064744
      dz2     :     0.003910  d :     0.027628
      dxz     :     0.002541
      dyz     :     0.007558
      dx2y2   :     0.007437
      dxy     :     0.006182
 27 H s       :     0.835774  s :     0.835774
      pz      :     0.038876  p :     0.152507
      px      :     0.072401
      py      :     0.041231
      dz2     :     0.002696  d :     0.027729
      dxz     :     0.008274
      dyz     :     0.000985
      dx2y2   :     0.006874
      dxy     :     0.008900
 28 H s       :     0.742723  s :     0.742723
      pz      :     0.056216  p :     0.253627
      px      :     0.088858
      py      :     0.108553
      dz2     :     0.006279  d :     0.061650
      dxz     :     0.003741
      dyz     :     0.015138
      dx2y2   :     0.018471
      dxy     :     0.018020
 29 H s       :     0.747682  s :     0.747682
      pz      :     0.114207  p :     0.254539
      px      :     0.095267
      py      :     0.045065
      dz2     :     0.021658  d :     0.061376
      dxz     :     0.016553
      dyz     :     0.011360
      dx2y2   :     0.007001
      dxy     :     0.004805
 30 H s       :     0.825510  s :     0.825510
      pz      :     0.040326  p :     0.148488
      px      :     0.073217
      py      :     0.034945
      dz2     :     0.003142  d :     0.028313
      dxz     :     0.008418
      dyz     :     0.001917
      dx2y2   :     0.007600
      dxy     :     0.007236
 31 H s       :     0.837981  s :     0.837981
      pz      :     0.058139  p :     0.156480
      px      :     0.065147
      py      :     0.033194
      dz2     :     0.005886  d :     0.027390
      dxz     :     0.007330
      dyz     :     0.003614
      dx2y2   :     0.005111
      dxy     :     0.005450
 32 H s       :     0.841115  s :     0.841115
      pz      :     0.036660  p :     0.150783
      px      :     0.041725
      py      :     0.072398
      dz2     :     0.002643  d :     0.026416
      dxz     :     0.001217
      dyz     :     0.006743
      dx2y2   :     0.007962
      dxy     :     0.007851
 33 H s       :     0.847984  s :     0.847984
      pz      :     0.054132  p :     0.158808
      px      :     0.045692
      py      :     0.058984
      dz2     :     0.005355  d :     0.027730
      dxz     :     0.003664
      dyz     :     0.006547
      dx2y2   :     0.006265
      dxy     :     0.005899
 34 H s       :     0.705977  s :     0.705977
      pz      :     0.105148  p :     0.347367
      px      :     0.083287
      py      :     0.158932
      dz2     :     0.019960  d :     0.099434
      dxz     :     0.008589
      dyz     :     0.025779
      dx2y2   :     0.022311
      dxy     :     0.022794
 35 H s       :     0.838254  s :     0.838254
      pz      :     0.040977  p :     0.158642
      px      :     0.044211
      py      :     0.073455
      dz2     :     0.002626  d :     0.028064
      dxz     :     0.001425
      dyz     :     0.007418
      dx2y2   :     0.008238
      dxy     :     0.008357


                      *****************************
                      * MAYER POPULATION ANALYSIS *
                      *****************************

  NA   - Mulliken gross atomic population
  ZA   - Total nuclear charge
  QA   - Mulliken gross atomic charge
  VA   - Mayer's total valence
  BVA  - Mayer's bonded valence
  FA   - Mayer's free valence

  ATOM       NA         ZA         QA         VA         BVA        FA
  0 C      6.2698     6.0000    -0.2698     3.8920     3.8920     0.0000
  1 C      5.9850     6.0000     0.0150     3.8408     3.8408     0.0000
  2 O      8.3168     8.0000    -0.3168     2.0570     2.0570    -0.0000
  3 C      5.6069     6.0000     0.3931     4.2552     4.2552    -0.0000
  4 O      8.3809     8.0000    -0.3809     2.1300     2.1300    -0.0000
  5 C      6.1758     6.0000    -0.1758     3.5728     3.5728    -0.0000
  6 C      5.8695     6.0000     0.1305     3.7817     3.7817    -0.0000
  7 C      6.3371     6.0000    -0.3371     3.8791     3.8791    -0.0000
  8 N      7.1370     7.0000    -0.1370     3.2569     3.2569     0.0000
  9 C      5.7952     6.0000     0.2048     4.1464     4.1464     0.0000
 10 S     16.4412    16.0000    -0.4412     1.7520     1.7520    -0.0000
 11 N      7.2138     7.0000    -0.2138     3.2544     3.2544     0.0000
 12 C      5.9302     6.0000     0.0698     3.9519     3.9519    -0.0000
 13 C      5.9709     6.0000     0.0291     3.7170     3.7170     0.0000
 14 C      6.1911     6.0000    -0.1911     3.8823     3.8823     0.0000
 15 C      6.1292     6.0000    -0.1292     3.8124     3.8124     0.0000
 16 C      6.2772     6.0000    -0.2772     3.7929     3.7929    -0.0000
 17 C      5.6865     6.0000     0.3135     3.8657     3.8657    -0.0000
 18 O      8.3579     8.0000    -0.3579     2.1162     2.1162    -0.0000
 19 C      6.2839     6.0000    -0.2839     3.8320     3.8320    -0.0000
 20 H      0.9124     1.0000     0.0876     0.9822     0.9822     0.0000
 21 H      0.9054     1.0000     0.0946     0.9822     0.9822     0.0000
 22 H      0.8881     1.0000     0.1119     0.9840     0.9840     0.0000
 23 H      0.9020     1.0000     0.0980     0.9675     0.9675    -0.0000
 24 H      0.8710     1.0000     0.1290     0.9715     0.9715     0.0000
 25 H      0.8746     1.0000     0.1254     0.9833     0.9833     0.0000
 26 H      0.8559     1.0000     0.1441     0.9777     0.9777     0.0000
 27 H      0.8753     1.0000     0.1247     0.9676     0.9676    -0.0000
 28 H      0.8036     1.0000     0.1964     1.0218     1.0218     0.0000
 29 H      0.8013     1.0000     0.1987     1.0157     1.0157     0.0000
 30 H      0.8358     1.0000     0.1642     0.9922     0.9922    -0.0000
 31 H      0.8337     1.0000     0.1663     0.9874     0.9874    -0.0000
 32 H      0.8364     1.0000     0.1636     0.9767     0.9767     0.0000
 33 H      0.8672     1.0000     0.1328     0.9908     0.9908    -0.0000
 34 H      0.7580     1.0000     0.2420     1.0096     1.0096     0.0000
 35 H      0.8231     1.0000     0.1769     0.9852     0.9852    -0.0000

  Mayer bond orders larger than 0.100000
B(  0-C ,  1-C ) :   0.9716 B(  0-C , 20-H ) :   0.9779 B(  0-C , 21-H ) :   0.9754 
B(  0-C , 22-H ) :   0.9797 B(  1-C ,  2-O ) :   0.8991 B(  1-C , 23-H ) :   0.9612 
B(  1-C , 24-H ) :   0.9782 B(  2-O ,  3-C ) :   1.1859 B(  3-C ,  4-O ) :   2.0947 
B(  3-C ,  5-C ) :   0.9233 B(  5-C ,  6-C ) :   1.6919 B(  5-C , 12-C ) :   0.9600 
B(  6-C ,  7-C ) :   0.9437 B(  6-C ,  8-N ) :   1.1124 B(  7-C , 25-H ) :   0.9813 
B(  7-C , 26-H ) :   0.9716 B(  7-C , 27-H ) :   0.9651 B(  8-N ,  9-C ) :   1.1958 
B(  8-N , 28-H ) :   0.9522 B(  9-C , 10-S ) :   1.6114 B(  9-C , 11-N ) :   1.2869 
B( 11-N , 12-C ) :   0.9984 B( 11-N , 29-H ) :   0.9487 B( 12-C , 13-C ) :   0.9433 
B( 12-C , 30-H ) :   0.9971 B( 13-C , 14-C ) :   1.3869 B( 13-C , 19-C ) :   1.3436 
B( 14-C , 15-C ) :   1.3967 B( 14-C , 31-H ) :   0.9618 B( 15-C , 16-C ) :   1.3643 
B( 15-C , 32-H ) :   0.9700 B( 16-C , 17-C ) :   1.3284 B( 16-C , 33-H ) :   0.9842 
B( 17-C , 18-O ) :   1.1105 B( 17-C , 19-C ) :   1.3710 B( 18-O , 34-H ) :   0.9789 
B( 19-C , 35-H ) :   0.9572 

-------
TIMINGS
-------

Total SCF time: 0 days 1 hours 47 min 17 sec 

Total time                  ....    6437.500 sec
Sum of individual times     ....    6427.385 sec  ( 99.8%)

Fock matrix formation       ....    6395.964 sec  ( 99.4%)
Diagonalization             ....       1.856 sec  (  0.0%)
Density matrix formation    ....       0.262 sec  (  0.0%)
Population analysis         ....       0.262 sec  (  0.0%)
Initial guess               ....       6.188 sec  (  0.1%)
Orbital Transformation      ....       0.000 sec  (  0.0%)
Orbital Orthonormalization  ....       0.000 sec  (  0.0%)
DIIS solution               ....      18.168 sec  (  0.3%)
SOSCF solution              ....       3.163 sec  (  0.0%)

Maximum memory used throughout the entire SCF-calculation: 752.9 MB

------------------------------------------------------------------------------
                                ORCA  MP2 
------------------------------------------------------------------------------

Freezing NCore=48 chemical core electrons

-------------
RI-MP2 ENERGY
-------------
Dimension of the basis                    ...  828
Memory devoted to MP2                     ...  256 MB   
Data format for buffers                   ... DOUBLE
Compression type for matrix containers    ... UNCOMPRESSED
Overall scaling of the MP2 energy         ...   1.000e+00
Calculating two index integrals           ... done (    0.040 sec)
Cholesky decomposition of V**-1           ... done (    0.522 sec)

-----------------
RI-TRANSFORMATION (AUX index driven)
-----------------

Dimension of the orbital-basis         ... 828
Dimension of the aux-basis             ... 2141
Transformation of internal/external MOs...   24-  76 to   77- 827
Number Format for Storage              ... Double (8 Byte)
Integral mode                          ... Direct

First Phase: integral generation and transformation of MO indices
  Aux angular momentum 0               ... done (    4.982 sec)
  Aux angular momentum 1               ... done (   10.803 sec)
  Aux angular momentum 2               ... done (   15.207 sec)
  Aux angular momentum 3               ... done (    8.154 sec)
  Aux angular momentum 4               ... done (    2.913 sec)
Closing buffer VIA ( 0.63 GB; CompressionRatio= 1.00)
  Phase 1 completed in    42.386 sec
Second Phase: sorting and transformation of aux index

IA-Transformation
Memory available                       ... 157 MB 
Max. # MO pairs treated in a batch     ... 11    
# of internal orbitals                 ... 53
# batches for internal orbitals        ... 5
Closing buffer IAV ( 0.63 GB; CompressionRatio= 1.00)
(ia|v) transformation done in    27.942 sec

  Phase 2 completed in    27.949 sec
RI-Integral transformation completed in    70.341 sec
Opening buffers                              ... done

Starting loop over batches of integrals:

Operator 0  - window                       ... ( 24- 76)x( 77-827)
Operator 0  - Memory available             ...   256 MB
Operator 0  - Memory needed per MO         ...  12.3 MB
Operator 0  - Number of orbitals per batch ... 13
Operator 0  - Number of batches            ... 5

OPERATOR  0   PASS   0:  MOs    24 ...   36
  Reading integrals       ... ok
  Internal MO  26
  Internal MO  29
  Internal MO  32
  Internal MO  35
OPERATOR  0   PASS   1:  MOs    37 ...   49
  Reading integrals       ... ok
  Internal MO  38
  Internal MO  41
  Internal MO  44
  Internal MO  47
OPERATOR  0   PASS   2:  MOs    50 ...   62
  Reading integrals       ... ok
  Internal MO  50
  Internal MO  53
  Internal MO  56
  Internal MO  59
  Internal MO  62
OPERATOR  0   PASS   3:  MOs    63 ...   75
  Reading integrals       ... ok
  Internal MO  65
  Internal MO  68
  Internal MO  71
  Internal MO  74
OPERATOR  0   PASS   4:  MOs    76 ...   76
  Reading integrals       ... ok
Time spent in pair loops =    92.628 sec
Deleting buffer (Ka|jb)[aa] ...done

-----------------------------------------------
 RI-MP2 CORRELATION ENERGY:     -3.539779365 Eh
-----------------------------------------------


-------
TIMINGS
-------

Total time                :  163.712 sec
Integral trafo            :   70.385 sec ( 43.0%)
I/O of integrals          :    3.942 sec (  2.4%)
K(i,j) Operators          :   55.955 sec ( 34.2%)
T(i,j) pair energies      :    8.174 sec (  5.0%)
V-calculation             :    0.040 sec (  0.0%)
V**(-1/2)                 :    0.522 sec (  0.3%)
Gamma(ia|P)               :    0.000 sec (  0.0%)
Gamma-Trafo               :    0.000 sec (  0.0%)
D(virtual)                :    0.000 sec (  0.0%)
D(internal)               :    0.000 sec (  0.0%)
W(virtual)                :    0.000 sec (  0.0%)
W(internal)               :    0.000 sec (  0.0%)
L(virtual)                :    0.000 sec (  0.0%)
L(internal)               :    0.000 sec (  0.0%)
G(D)                      :    0.000 sec (  0.0%)
G(Z)                      :    0.000 sec (  0.0%)
Z-Vector Solution         :    0.000 sec (  0.0%)
3-Index Derivative        :    0.000 sec (  0.0%)
2-Index Derivative        :    0.000 sec (  0.0%)
Separable Gradient        :    0.000 sec (  0.0%)


---------------------------------------
MP2 TOTAL ENERGY:    -1274.330381261 Eh
---------------------------------------

Maximum memory used throughout the entire MP2-calculation: 305.5 MB

-------------------------   --------------------
FINAL SINGLE POINT ENERGY     -1274.330381261470
-------------------------   --------------------


                            ***************************************
                            *     ORCA property calculations      *
                            ***************************************


  WARNING: The energy has been calculated at the MP2 level but the densities
           used in the property calculations are still SCF densities
           MP2 response densities have not been calculated 
           use %mp2 Density relaxed end
           or  %mp2 Density unrelaxed end

                                    ---------------------
                                    Active property flags
                                    ---------------------
   (+) Dipole Moment


------------------------------------------------------------------------------
                       ORCA ELECTRIC PROPERTIES CALCULATION
------------------------------------------------------------------------------

Dipole Moment Calculation                       ... on
Quadrupole Moment Calculation                   ... off
Polarizability Calculation                      ... off
GBWName                                         ... CONFS/Conf8.orca.gbw
Electron density file                           ... CONFS/Conf8.orca.scfp
The origin for moment calculation is the CENTER OF MASS  = (32.882698, 31.266102 35.318556)

-------------
DIPOLE MOMENT
-------------
                                X             Y             Z
Electronic contribution:     11.53595       5.48209       7.91599
Nuclear contribution   :    -13.08323      -6.51954      -8.20194
                        -----------------------------------------
Total Dipole Moment    :     -1.54728      -1.03745      -0.28596
                        -----------------------------------------
Magnitude (a.u.)       :      1.88472
Magnitude (Debye)      :      4.79057



--------------------
Rotational spectrum 
--------------------
 
Rotational constants in cm-1:     0.011505     0.009246     0.006861 
Rotational constants in MHz :   344.924433   277.183126   205.694221 

 Dipole components along the rotational axes: 
x,y,z [a.u.] :    -1.299400     0.730240     1.153457 
x,y,z [Debye]:    -3.302811     1.856123     2.931854 

 

Timings for individual modules:

Sum of individual times         ...     6605.426 sec (= 110.090 min)
GTO integral calculation        ...        3.311 sec (=   0.055 min)   0.1 %
SCF iterations                  ...     6437.552 sec (= 107.293 min)  97.5 %
MP2 module                      ...      164.563 sec (=   2.743 min)   2.5 %
                             ****ORCA TERMINATED NORMALLY****
TOTAL RUN TIME: 0 days 1 hours 50 minutes 7 seconds 111 msec
