
                                        *****************
                                        * O   R   C   A *
                                        *****************

                                            #,                                       
                                            ###                                      
                                            ####                                     
                                            #####                                    
                                            ######                                   
                                           ########,                                 
                                     ,,################,,,,,                         
                               ,,#################################,,                 
                          ,,##########################################,,             
                       ,#########################################, ''#####,          
                    ,#############################################,,   '####,        
                  ,##################################################,,,,####,       
                ,###########''''           ''''###############################       
              ,#####''   ,,,,##########,,,,          '''####'''          '####       
            ,##' ,,,,###########################,,,                        '##       
           ' ,,###''''                  '''############,,,                           
         ,,##''                                '''############,,,,        ,,,,,,###''
      ,#''                                            '''#######################'''  
     '                                                          ''''####''''         
             ,#######,   #######,   ,#######,      ##                                
            ,#'     '#,  ##    ##  ,#'     '#,    #''#        ######   ,####,        
            ##       ##  ##   ,#'  ##            #'  '#       #        #'  '#        
            ##       ##  #######   ##           ,######,      #####,   #    #        
            '#,     ,#'  ##    ##  '#,     ,#' ,#      #,         ##   #,  ,#        
             '#######'   ##     ##  '#######'  #'      '#     #####' # '####'        



                  #######################################################
                  #                        -***-                        #
                  #          Department of theory and spectroscopy      #
                  #    Directorship and core code : Frank Neese         #
                  #        Max Planck Institute fuer Kohlenforschung    #
                  #                Kaiser Wilhelm Platz 1               #
                  #                 D-45470 Muelheim/Ruhr               #
                  #                      Germany                        #
                  #                                                     #
                  #                  All rights reserved                #
                  #                        -***-                        #
                  #######################################################


                         Program Version 5.0.0 -  RELEASE  -
                                (SVN: $Rev: 19529$)
                ($Date: 2021-06-28 11:36:33 +0200 (Mo, 28 Jun 2021) $)


 With contributions from (in alphabetic order):
   Daniel Aravena         : Magnetic Suceptibility
   Michael Atanasov       : Ab Initio Ligand Field Theory (pilot matlab implementation)
   Alexander A. Auer      : GIAO ZORA, VPT2 properties, NMR spectrum
   Ute Becker             : Parallelization
   Giovanni Bistoni       : ED, misc. LED, open-shell LED, HFLD
   Martin Brehm           : Molecular dynamics
   Dmytro Bykov           : SCF Hessian
   Vijay G. Chilkuri      : MRCI spin determinant printing, contributions to CSF-ICE
   Dipayan Datta          : RHF DLPNO-CCSD density
   Achintya Kumar Dutta   : EOM-CC, STEOM-CC
   Dmitry Ganyushin       : Spin-Orbit,Spin-Spin,Magnetic field MRCI
   Miquel Garcia          : C-PCM Hessian, Gaussian charge scheme
   Yang Guo               : DLPNO-NEVPT2, F12-NEVPT2, CIM, IAO-localization
   Andreas Hansen         : Spin unrestricted coupled pair/coupled cluster methods
   Benjamin Helmich-Paris : MC-RPA, TRAH-SCF, COSX integrals
   Lee Huntington         : MR-EOM, pCC
   Robert Izsak           : Overlap fitted RIJCOSX, COSX-SCS-MP3, EOM
   Marcus Kettner         : VPT2
   Christian Kollmar      : KDIIS, OOCD, Brueckner-CCSD(T), CCSD density, CASPT2, CASPT2-K
   Simone Kossmann        : Meta GGA functionals, TD-DFT gradient, OOMP2, MP2 Hessian
   Martin Krupicka        : Initial AUTO-CI
   Lucas Lang             : DCDCAS
   Marvin Lechner         : AUTO-CI (C++ implementation), FIC-MRCC
   Dagmar Lenk            : GEPOL surface, SMD
   Dimitrios Liakos       : Extrapolation schemes; Compound Job, initial MDCI parallelization
   Dimitrios Manganas     : Further ROCIS development; embedding schemes
   Dimitrios Pantazis     : SARC Basis sets
   Anastasios Papadopoulos: AUTO-CI, single reference methods and gradients
   Taras Petrenko         : DFT Hessian,TD-DFT gradient, ASA, ECA, R-Raman, ABS, FL, XAS/XES, NRVS
   Peter Pinski           : DLPNO-MP2, DLPNO-MP2 Gradient
   Christoph Reimann      : Effective Core Potentials
   Marius Retegan         : Local ZFS, SOC
   Christoph Riplinger    : Optimizer, TS searches, QM/MM, DLPNO-CCSD(T), (RO)-DLPNO pert. Triples
   Tobias Risthaus        : Range-separated hybrids, TD-DFT gradient, RPA, STAB
   Michael Roemelt        : Original ROCIS implementation
   Masaaki Saitow         : Open-shell DLPNO-CCSD energy and density
   Barbara Sandhoefer     : DKH picture change effects
   Avijit Sen             : IP-ROCIS
   Kantharuban Sivalingam : CASSCF convergence, NEVPT2, FIC-MRCI
   Bernardo de Souza      : ESD, SOC TD-DFT
   Georgi Stoychev        : AutoAux, RI-MP2 NMR
   Willem Van den Heuvel  : Paramagnetic NMR
   Boris Wezisla          : Elementary symmetry handling
   Frank Wennmohs         : Technical directorship


 We gratefully acknowledge several colleagues who have allowed us to
 interface, adapt or use parts of their codes:
   Stefan Grimme, W. Hujo, H. Kruse, P. Pracht,  : VdW corrections, initial TS optimization,
                  C. Bannwarth, S. Ehlert          DFT functionals, gCP, sTDA/sTD-DF
   Ed Valeev, F. Pavosevic, A. Kumar             : LibInt (2-el integral package), F12 methods
   Garnet Chan, S. Sharma, J. Yang, R. Olivares  : DMRG
   Ulf Ekstrom                                   : XCFun DFT Library
   Mihaly Kallay                                 : mrcc  (arbitrary order and MRCC methods)
   Jiri Pittner, Ondrej Demel                    : Mk-CCSD
   Frank Weinhold                                : gennbo (NPA and NBO analysis)
   Christopher J. Cramer and Donald G. Truhlar   : smd solvation model
   Lars Goerigk                                  : TD-DFT with DH, B97 family of functionals
   V. Asgeirsson, H. Jonsson                     : NEB implementation
   FAccTs GmbH                                   : IRC, NEB, NEB-TS, DLPNO-Multilevel, CI-OPT
                                                   MM, QMMM, 2- and 3-layer-ONIOM, Crystal-QMMM,
                                                   LR-CPCM, SF, NACMEs, symmetry and pop. for TD-DFT,
                                                   nearIR, NL-DFT gradient (VV10), updates on ESD,
                                                   ML-optimized integration grids
   S Lehtola, MJT Oliveira, MAL Marques          : LibXC Library
   Liviu Ungur et al                             : ANISO software


 Your calculation uses the libint2 library for the computation of 2-el integrals
 For citations please refer to: http://libint.valeyev.net

 Your ORCA version has been built with support for libXC version: 5.1.0
 For citations please refer to: https://tddft.org/programs/libxc/

 This ORCA versions uses:
   CBLAS   interface :  Fast vector & matrix operations
   LAPACKE interface :  Fast linear algebra routines
   SCALAPACK package :  Parallel linear algebra routines
   Shared memory     :  Shared parallel matrices
   BLAS/LAPACK       :  OpenBLAS 0.3.15  USE64BITINT DYNAMIC_ARCH NO_AFFINITY SkylakeX SINGLE_THREADED
        Core in use  :  SkylakeX
   Copyright (c) 2011-2014, The OpenBLAS Project


================================================================================

----- Orbital basis set information -----
Your calculation utilizes the basis: cc-pVTZ 
       H, B-Ne : Obtained from the ccRepo (grant-hill.group.shef.ac.uk/ccrepo) Feb. 2017
                 T. H. Dunning, Jr., J. Chem. Phys. 90, 1007 (1989)
            He : Obtained from the ccRepo (grant-hill.group.shef.ac.uk/ccrepo) Feb. 2017
                 D. E. Woon, T. H. Dunning, Jr., J. Chem. Phys. 100, 2975 (1994)
  Li-Be, Na-Mg : Obtained from the ccRepo (grant-hill.group.shef.ac.uk/ccrepo) Feb. 2017
                 B. P. Prascher, D. E. Woon, K. A. Peterson, T. H. Dunning, Jr., A. K. Wilson, Theor. Chem. Acc. 128, 69 (2011)
         Al-Ar : Obtained from the ccRepo (grant-hill.group.shef.ac.uk/ccrepo) Feb. 2017
                 D. E. Woon, T. H. Dunning, Jr., J. Chem. Phys. 98, 1358 (1993)
            Ca : Obtained from the Peterson Research Group Website (tyr0.chem.wsu.edu/~kipeters) Feb. 2017
                 J. Koput, K. A. Peterson, J. Phys. Chem. 106, 9595 (2002)
         Sc-Zn : Obtained from the ccRepo (grant-hill.group.shef.ac.uk/ccrepo) Feb. 2017
                 N. B. Balabanov, K. A. Peterson, J. Chem. Phys. 123, 064107 (2005)
                 N. B. Balabanov, K. A. Peterson, J. Chem. Phys. 125, 074110 (2006)
         Ga-Kr : Obtained from the ccRepo (grant-hill.group.shef.ac.uk/ccrepo) Feb. 2017
                 A. K. Wilson, D. E. Woon, K. A. Peterson, T. H. Dunning, Jr., J. Chem. Phys. 110, 7667 (1999)
             Y : Obtained from the ccRepo (grant-hill.group.shef.ac.uk/ccrepo) Feb. 2017
                 K. A. Peterson, D. Figgen, M. Dolg, H. Stoll, J. Chem. Phys. 126, 124101 (2007)
        Ag, Au : Obtained from the Peterson Research Group Website (tyr0.chem.wsu.edu/~kipeters) Feb. 2017
                 K. A. Peterson, C. Puzzarini, Theor. Chem. Acc. 114, 283 (2005)

----- AuxC basis set information -----
Your calculation utilizes the auxiliary basis: cc-pVTZ/C 
  Obtained from the EMSL Basis Set Exchange (bse.pnl.gov) Feb. 2017
  H-He, B-F, Al-Ar, Ga-Kr : F. Weigend, A. Kohn, C. Hattig, J. Chem. Phys. 116, 3175 (2002)
             Li-Be, Na-Mg : C. Haettig, Phys. Chem. Chem. Phys. 7, 59 (2005)
                       Ne : C. Haettig, Phys. Chem. Chem. Phys. 7, 59 (2005)
                            F. Weigend, A. Kohn, C. Hattig, J. Chem. Phys. 116, 3175 (2002)
                    Sc-Zn : J. G. Hill, J. A. Platts, J. Chem. Phys. 128, 044104 (2008)

================================================================================
                                        WARNINGS
                       Please study these warnings very carefully!
================================================================================


WARNING: No MP2 level density has been requested!
         To caclulate MP2 level properties use
         %mp2 Density relaxed end
         or
         %mp2 Density unrelaxed end

WARNING: Post HF methods need fully converged wavefunctions
  ===> : Setting SCFConvForced true
         You can overwrite this default with %scf ConvForced false 


INFO   : the flag for use of the SHARK integral package has been found!

================================================================================
                                       INPUT FILE
================================================================================
NAME = CONFS/Conf9.orca
|  1> ! ri-mp2 cc-pvtz cc-pvtz/c TightSCF NoKeepInts
|  2> 
|  3> %scf
|  4>   MaxCore 4096
|  5> end
|  6> *xyz  0  1
|  7>     C       15.5863073   13.5448981   15.5082771
|  8>     C       15.6581465   14.4392121   16.7571369
|  9>     O       16.7816560   15.3229829   16.5929966
| 10>     C       16.5628771   16.6705182   16.5679315
| 11>     O       15.5876910   17.1486617   16.0142309
| 12>     C       17.4402912   17.4201756   17.5330527
| 13>     C       17.3634901   18.7665174   17.6886027
| 14>     C       16.4349852   19.7211795   16.9687530
| 15>     N       18.2312641   19.4218083   18.5672780
| 16>     C       19.2679738   18.8261489   19.2345039
| 17>     S       20.3124324   19.6920051   20.1806733
| 18>     N       19.4008967   17.4707068   19.0736243
| 19>     C       18.4476762   16.6022819   18.3593774
| 20>     C       17.7595122   15.6734012   19.3557473
| 21>     C       18.0872510   14.3050017   19.3947626
| 22>     C       17.4515071   13.4431405   20.3042079
| 23>     C       16.4830375   13.9541026   21.1850214
| 24>     C       16.1598752   15.3176337   21.1542531
| 25>     O       15.2268296   15.8143790   22.0047515
| 26>     C       16.7932435   16.1726395   20.2471451
| 27>     H       15.4249893   14.1538112   14.6096338
| 28>     H       14.7574973   12.8317109   15.5924937
| 29>     H       16.5175408   12.9790719   15.3819740
| 30>     H       14.7161774   14.9919814   16.8778818
| 31>     H       15.8037245   13.8168836   17.6495456
| 32>     H       15.3887108   19.4987554   17.2148302
| 33>     H       16.5432244   19.6201074   15.8813448
| 34>     H       16.6194640   20.7718729   17.2214470
| 35>     H       18.1502501   20.4178638   18.6954750
| 36>     H       20.1531663   17.0549958   19.6075892
| 37>     H       19.0277185   15.9870122   17.6570562
| 38>     H       18.8328077   13.9066731   18.7115883
| 39>     H       17.7109483   12.3859691   20.3257634
| 40>     H       15.9903118   13.2928935   21.8903867
| 41>     H       14.9395154   15.0891223   22.5796045
| 42>     H       16.5340098   17.2258807   20.2450590
| 43> *
| 44> 
| 45>                          ****END OF INPUT****
================================================================================

                       ****************************
                       * Single Point Calculation *
                       ****************************

---------------------------------
CARTESIAN COORDINATES (ANGSTROEM)
---------------------------------
  C     15.586307   13.544898   15.508277
  C     15.658147   14.439212   16.757137
  O     16.781656   15.322983   16.592997
  C     16.562877   16.670518   16.567932
  O     15.587691   17.148662   16.014231
  C     17.440291   17.420176   17.533053
  C     17.363490   18.766517   17.688603
  C     16.434985   19.721180   16.968753
  N     18.231264   19.421808   18.567278
  C     19.267974   18.826149   19.234504
  S     20.312432   19.692005   20.180673
  N     19.400897   17.470707   19.073624
  C     18.447676   16.602282   18.359377
  C     17.759512   15.673401   19.355747
  C     18.087251   14.305002   19.394763
  C     17.451507   13.443141   20.304208
  C     16.483037   13.954103   21.185021
  C     16.159875   15.317634   21.154253
  O     15.226830   15.814379   22.004752
  C     16.793243   16.172639   20.247145
  H     15.424989   14.153811   14.609634
  H     14.757497   12.831711   15.592494
  H     16.517541   12.979072   15.381974
  H     14.716177   14.991981   16.877882
  H     15.803724   13.816884   17.649546
  H     15.388711   19.498755   17.214830
  H     16.543224   19.620107   15.881345
  H     16.619464   20.771873   17.221447
  H     18.150250   20.417864   18.695475
  H     20.153166   17.054996   19.607589
  H     19.027718   15.987012   17.657056
  H     18.832808   13.906673   18.711588
  H     17.710948   12.385969   20.325763
  H     15.990312   13.292893   21.890387
  H     14.939515   15.089122   22.579604
  H     16.534010   17.225881   20.245059

----------------------------
CARTESIAN COORDINATES (A.U.)
----------------------------
  NO LB      ZA    FRAG     MASS         X           Y           Z
   0 C     6.0000    0    12.011   29.453852   25.596148   29.306397
   1 C     6.0000    0    12.011   29.589609   27.286156   31.666400
   2 O     8.0000    0    15.999   31.712734   28.956241   31.356219
   3 C     6.0000    0    12.011   31.299302   31.502714   31.308853
   4 O     8.0000    0    15.999   29.456467   32.406274   30.262511
   5 C     6.0000    0    12.011   32.957374   32.919361   33.132668
   6 C     6.0000    0    12.011   32.812241   35.463578   33.426615
   7 C     6.0000    0    12.011   31.057621   37.267628   32.066296
   8 N     7.0000    0    14.007   34.452096   36.701899   35.087070
   9 C     6.0000    0    12.011   36.411194   35.576266   36.347945
  10 S    16.0000    0    32.060   38.384934   37.212497   38.135946
  11 N     7.0000    0    14.007   36.662382   33.014851   36.043926
  12 C     6.0000    0    12.011   34.861056   31.373766   34.694195
  13 C     6.0000    0    12.011   33.560614   29.618436   36.577062
  14 C     6.0000    0    12.011   34.179951   27.032536   36.650790
  15 C     6.0000    0    12.011   32.978569   25.403854   38.369392
  16 C     6.0000    0    12.011   31.148427   26.369432   40.033889
  17 C     6.0000    0    12.011   30.537738   28.946133   39.975745
  18 O     8.0000    0    15.999   28.774538   29.884845   41.582954
  19 C     6.0000    0    12.011   31.734631   30.561860   38.261559
  20 H     1.0000    0     1.008   29.149005   26.746827   27.608207
  21 H     1.0000    0     1.008   27.887628   24.248419   29.465543
  22 H     1.0000    0     1.008   31.213629   24.526891   29.067718
  23 H     1.0000    0     1.008   27.809545   28.330739   31.894574
  24 H     1.0000    0     1.008   29.864711   26.110126   33.352808
  25 H     1.0000    0     1.008   29.080449   36.847308   32.531315
  26 H     1.0000    0     1.008   31.262163   37.076630   30.011392
  27 H     1.0000    0     1.008   31.406235   39.253151   32.543818
  28 H     1.0000    0     1.008   34.299002   38.584171   35.329328
  29 H     1.0000    0     1.008   38.083965   32.229271   37.052974
  30 H     1.0000    0     1.008   35.957177   30.211075   33.367001
  31 H     1.0000    0     1.008   35.588849   26.279804   35.359777
  32 H     1.0000    0     1.008   33.468842   23.406090   38.410126
  33 H     1.0000    0     1.008   30.217310   25.119928   41.366836
  34 H     1.0000    0     1.008   28.231593   28.514309   42.669269
  35 H     1.0000    0     1.008   31.244750   32.552197   38.257617

--------------------------------
INTERNAL COORDINATES (ANGSTROEM)
--------------------------------
 C      0   0   0     0.000000000000     0.00000000     0.00000000
 C      1   0   0     1.537728585059     0.00000000     0.00000000
 O      2   1   0     1.438842055824   107.52080593     0.00000000
 C      3   2   1     1.365409774049   118.89218676   119.10539686
 O      4   3   2     1.219095357495   121.57314927   321.63670727
 C      4   3   2     1.504427017486   112.74011968   128.39648465
 C      6   4   3     1.357472082176   122.32554510   181.47880752
 C      7   6   4     1.513831121721   127.27697257     0.14752920
 N      7   6   4     1.398037253269   120.11787321   182.08207400
 C      9   7   6     1.369221503086   124.91313406     5.82426075
 S     10   9   7     1.654036656090   121.94700366   175.86443109
 N     10   9   7     1.371413150547   116.49949230   356.13761955
 C     12  10   9     1.474089469035   125.19983612   353.52763206
 C     13  12  10     1.526152686776   109.50055558   247.97661978
 C     14  13  12     1.407640616869   120.31704304   252.83068441
 C     15  14  13     1.405014515279   120.59109185   180.38475689
 C     16  15  14     1.405292871804   119.63688537   359.79732348
 C     17  16  15     1.401641045737   119.92366153   359.82834756
 O     18  17  16     1.356715708302   120.06508829   180.10303991
 C     18  17  16     1.398225748991   120.30940796     0.23887446
 H      1   2   3     1.097432659032   110.43894323   298.36806323
 H      1   2   3     1.096656023582   110.55819818   178.62644140
 H      1   2   3     1.096953778971   110.72232001    58.52360504
 H      2   1   3     1.098835299421   109.98403178   122.06799037
 H      2   1   3     1.097669806377   109.67855715   240.74554604
 H      8   7   6     1.097595822111   110.50356073    63.41806459
 H      8   7   6     1.097446074868   110.64601351   304.71159850
 H      8   7   6     1.096286142432   113.05295736   184.12535743
 H      9   7   6     1.007533770196   119.56708176   181.67866762
 H     12  10   9     1.011851620069   114.59559653   182.29158973
 H     13  12  10     1.099209234630   107.34414503   130.58840957
 H     15  14  13     1.086852147568   119.90567046   359.91523786
 H     16  15  14     1.088754216899   120.04077798   179.91661350
 H     17  16  15     1.085134229396   119.92049160   180.09806778
 H     19  18  17     0.969021517834   107.56339319     3.06615250
 H     20  18  17     1.084676674593   119.12775664   180.46745060

---------------------------
INTERNAL COORDINATES (A.U.)
---------------------------
 C      0   0   0     0.000000000000     0.00000000     0.00000000
 C      1   0   0     2.905885894064     0.00000000     0.00000000
 O      2   1   0     2.719017435475   107.52080593     0.00000000
 C      3   2   1     2.580250533532   118.89218676   119.10539686
 O      4   3   2     2.303756356800   121.57314927   321.63670727
 C      4   3   2     2.842955051521   112.74011968   128.39648465
 C      6   4   3     2.565250469757   122.32554510   181.47880752
 C      7   6   4     2.860726233059   127.27697257     0.14752920
 N      7   6   4     2.641907533699   120.11787321   182.08207400
 C      9   7   6     2.587453657509   124.91313406     5.82426075
 S     10   9   7     3.125676295477   121.94700366   175.86443109
 N     10   9   7     2.591595270992   116.49949230   356.13761955
 C     12  10   9     2.785625393374   125.19983612   353.52763206
 C     13  12  10     2.884010616555   109.50055558   247.97661978
 C     14  13  12     2.660055260867   120.31704304   252.83068441
 C     15  14  13     2.655092648061   120.59109185   180.38475689
 C     16  15  14     2.655618665661   119.63688537   359.79732348
 C     17  16  15     2.648717714505   119.92366153   359.82834756
 O     18  17  16     2.563821130280   120.06508829   180.10303991
 C     18  17  16     2.642263738991   120.30940796     0.23887446
 H      1   2   3     2.073847175992   110.43894323   298.36806323
 H      1   2   3     2.072379547686   110.55819818   178.62644140
 H      1   2   3     2.072942223825   110.72232001    58.52360504
 H      2   1   3     2.076497782191   109.98403178   122.06799037
 H      2   1   3     2.074295319527   109.67855715   240.74554604
 H      8   7   6     2.074155509526   110.50356073    63.41806459
 H      8   7   6     2.073872528247   110.64601351   304.71159850
 H      8   7   6     2.071680573610   113.05295736   184.12535743
 H      9   7   6     1.903962896347   119.56708176   181.67866762
 H     12  10   9     1.912122450096   114.59559653   182.29158973
 H     13  12  10     2.077204417329   107.34414503   130.58840957
 H     15  14  13     2.053852906968   119.90567046   359.91523786
 H     16  15  14     2.057447297091   120.04077798   179.91661350
 H     17  16  15     2.050606512103   119.92049160   180.09806778
 H     19  18  17     1.831185286583   107.56339319     3.06615250
 H     20  18  17     2.049741858833   119.12775664   180.46745060

---------------------
BASIS SET INFORMATION
---------------------
There are 5 groups of distinct atoms

 Group   1 Type C   : 18s5p2d1f contracted to 4s3p2d1f pattern {8811/311/11/1}
 Group   2 Type O   : 18s5p2d1f contracted to 4s3p2d1f pattern {8811/311/11/1}
 Group   3 Type N   : 18s5p2d1f contracted to 4s3p2d1f pattern {8811/311/11/1}
 Group   4 Type S   : 41s16p2d1f contracted to 5s4p2d1f pattern {13131311/7711/11/1}
 Group   5 Type H   : 5s2p1d contracted to 3s2p1d pattern {311/11/1}

Atom   0C    basis set group =>   1
Atom   1C    basis set group =>   1
Atom   2O    basis set group =>   2
Atom   3C    basis set group =>   1
Atom   4O    basis set group =>   2
Atom   5C    basis set group =>   1
Atom   6C    basis set group =>   1
Atom   7C    basis set group =>   1
Atom   8N    basis set group =>   3
Atom   9C    basis set group =>   1
Atom  10S    basis set group =>   4
Atom  11N    basis set group =>   3
Atom  12C    basis set group =>   1
Atom  13C    basis set group =>   1
Atom  14C    basis set group =>   1
Atom  15C    basis set group =>   1
Atom  16C    basis set group =>   1
Atom  17C    basis set group =>   1
Atom  18O    basis set group =>   2
Atom  19C    basis set group =>   1
Atom  20H    basis set group =>   5
Atom  21H    basis set group =>   5
Atom  22H    basis set group =>   5
Atom  23H    basis set group =>   5
Atom  24H    basis set group =>   5
Atom  25H    basis set group =>   5
Atom  26H    basis set group =>   5
Atom  27H    basis set group =>   5
Atom  28H    basis set group =>   5
Atom  29H    basis set group =>   5
Atom  30H    basis set group =>   5
Atom  31H    basis set group =>   5
Atom  32H    basis set group =>   5
Atom  33H    basis set group =>   5
Atom  34H    basis set group =>   5
Atom  35H    basis set group =>   5
---------------------------------
AUXILIARY/C BASIS SET INFORMATION
---------------------------------
There are 5 groups of distinct atoms

 Group   1 Type C   : 8s6p5d3f1g contracted to 8s6p5d3f1g pattern {11111111/111111/11111/111/1}
 Group   2 Type O   : 8s6p5d3f1g contracted to 8s6p5d3f1g pattern {11111111/111111/11111/111/1}
 Group   3 Type N   : 8s6p5d3f1g contracted to 8s6p5d3f1g pattern {11111111/111111/11111/111/1}
 Group   4 Type S   : 10s8p7d5f2g contracted to 10s8p7d5f2g pattern {1111111111/11111111/1111111/11111/11}
 Group   5 Type H   : 4s3p2d1f contracted to 4s3p2d1f pattern {1111/111/11/1}

Atom   0C    basis set group =>   1
Atom   1C    basis set group =>   1
Atom   2O    basis set group =>   2
Atom   3C    basis set group =>   1
Atom   4O    basis set group =>   2
Atom   5C    basis set group =>   1
Atom   6C    basis set group =>   1
Atom   7C    basis set group =>   1
Atom   8N    basis set group =>   3
Atom   9C    basis set group =>   1
Atom  10S    basis set group =>   4
Atom  11N    basis set group =>   3
Atom  12C    basis set group =>   1
Atom  13C    basis set group =>   1
Atom  14C    basis set group =>   1
Atom  15C    basis set group =>   1
Atom  16C    basis set group =>   1
Atom  17C    basis set group =>   1
Atom  18O    basis set group =>   2
Atom  19C    basis set group =>   1
Atom  20H    basis set group =>   5
Atom  21H    basis set group =>   5
Atom  22H    basis set group =>   5
Atom  23H    basis set group =>   5
Atom  24H    basis set group =>   5
Atom  25H    basis set group =>   5
Atom  26H    basis set group =>   5
Atom  27H    basis set group =>   5
Atom  28H    basis set group =>   5
Atom  29H    basis set group =>   5
Atom  30H    basis set group =>   5
Atom  31H    basis set group =>   5
Atom  32H    basis set group =>   5
Atom  33H    basis set group =>   5
Atom  34H    basis set group =>   5
Atom  35H    basis set group =>   5
------------------------------------------------------------------------------
                           ORCA GTO INTEGRAL CALCULATION
------------------------------------------------------------------------------
------------------------------------------------------------------------------
                   ___                                                        
                  /   \      - P O W E R E D   B Y -                         
                 /     \                                                     
                 |  |  |   _    _      __       _____    __    __             
                 |  |  |  | |  | |    /  \     |  _  \  |  |  /  |          
                  \  \/   | |  | |   /    \    | | | |  |  | /  /          
                 / \  \   | |__| |  /  /\  \   | |_| |  |  |/  /          
                |  |  |   |  __  | /  /__\  \  |    /   |      \           
                |  |  |   | |  | | |   __   |  |    \   |  |\   \          
                \     /   | |  | | |  |  |  |  | |\  \  |  | \   \       
                 \___/    |_|  |_| |__|  |__|  |_| \__\ |__|  \__/        
                                                                              
                      - O R C A' S   B I G   F R I E N D -                    
                                      &                                       
                       - I N T E G R A L  F E E D E R -                       
                                                                              
 v1 FN, 2020, v2 2021                                                         
------------------------------------------------------------------------------


Reading SHARK input file CONFS/Conf9.orca.SHARKINP.tmp ... ok
----------------------
SHARK INTEGRAL PACKAGE
----------------------

Number of atoms                             ...     36
Number of basis functions                   ...    828
Number of shells                            ...    298
Maximum angular momentum                    ...      3
Integral batch strategy                     ... SHARK/LIBINT Hybrid
RI-J (if used) integral strategy            ... SPLIT-RIJ (Revised 2003 algorithm where possible)
Printlevel                                  ...      1
Contraction scheme used                     ... SEGMENTED contraction
Coulomb Range Separation                    ... NOT USED
Exchange Range Separation                   ... NOT USED
Finite Nucleus Model                        ... NOT USED
Auxiliary Coulomb fitting basis             ... NOT available
Auxiliary J/K fitting basis                 ... NOT available
Auxiliary Correlation fitting basis         ... AVAILABLE
   # of basis functions in Aux-C            ...   2141
   # of shells in Aux-C                     ...    629
   Maximum angular momentum in Aux-C        ...      4
Auxiliary 'external' fitting basis          ... NOT available
Integral threshold                          ...     2.500000e-11
Primitive cut-off                           ...     2.500000e-12
Primitive pair pre-selection threshold      ...     2.500000e-12

Calculating pre-screening integrals         ... done (  0.5 sec) Dimension = 298
Organizing shell pair data                  ... done (  0.8 sec)
Shell pair information
Total number of shell pairs                 ...     44551
Shell pairs after pre-screening             ...     33175
Total number of primitive shell pairs       ...    234348
Primitive shell pairs kept                  ...     95364
          la=0 lb=0:   6638 shell pairs
          la=1 lb=0:   9215 shell pairs
          la=1 lb=1:   3246 shell pairs
          la=2 lb=0:   5301 shell pairs
          la=2 lb=1:   3619 shell pairs
          la=2 lb=2:   1037 shell pairs
          la=3 lb=0:   1922 shell pairs
          la=3 lb=1:   1314 shell pairs
          la=3 lb=2:    734 shell pairs
          la=3 lb=3:    149 shell pairs

Calculating one electron integrals          ... done (  0.3 sec)
Calculating RI/C V-Matrix + Cholesky decomp.... done (  0.5 sec)
Calculating Nuclear repulsion               ... done (  0.0 sec) ENN=   1706.009800987367 Eh

SHARK setup successfully completed in   2.4 seconds

Maximum memory used throughout the entire GTOINT-calculation: 493.1 MB
-------------------------------------------------------------------------------
                                 ORCA SCF
-------------------------------------------------------------------------------

------------
SCF SETTINGS
------------
Hamiltonian:
 Ab initio Hamiltonian  Method          .... Hartree-Fock(GTOs)


General Settings:
 Integral files         IntName         .... CONFS/Conf9.orca
 Hartree-Fock type      HFTyp           .... RHF
 Total Charge           Charge          ....    0
 Multiplicity           Mult            ....    1
 Number of Electrons    NEL             ....  154
 Basis Dimension        Dim             ....  828
 Nuclear Repulsion      ENuc            ....   1706.0098009874 Eh

Convergence Acceleration:
 DIIS                   CNVDIIS         .... on
   Start iteration      DIISMaxIt       ....    12
   Startup error        DIISStart       ....  0.200000
   # of expansion vecs  DIISMaxEq       ....     5
   Bias factor          DIISBfac        ....   1.050
   Max. coefficient     DIISMaxC        ....  10.000
 Trust-Rad. Augm. Hess. CNVTRAH         .... auto
   Auto Start mean grad. ratio tolernc. ....  1.125000
   Auto Start start iteration           ....    20
   Auto Start num. interpolation iter.  ....    10
   Max. Number of Micro iterations      ....    16
   Max. Number of Macro iterations      .... Maxiter - #DIIS iter
   Number of Davidson start vectors     ....     2
   Converg. threshold I  (grad. norm)   ....   1.000e-05
   Converg. threshold II (energy diff.) ....   1.000e-08
   Grad. Scal. Fac. for Micro threshold ....   0.100
   Minimum threshold for Micro iter.    ....   0.010
   NR start threshold (gradient norm)   ....   0.001
   Initial trust radius                 ....   0.400
   Minimum AH scaling param. (alpha)    ....   1.000
   Maximum AH scaling param. (alpha)    .... 1000.000
   Orbital update algorithm             .... Taylor
   White noise on init. David. guess    .... on
   Maximum white noise                  ....   0.010
   Quad. conv. algorithm                .... NR
 SOSCF                  CNVSOSCF        .... on
   Start iteration      SOSCFMaxIt      ....   150
   Startup grad/error   SOSCFStart      ....  0.003300
 Level Shifting         CNVShift        .... on
   Level shift para.    LevelShift      ....    0.2500
   Turn off err/grad.   ShiftErr        ....    0.0010
 Zerner damping         CNVZerner       .... off
 Static damping         CNVDamp         .... on
   Fraction old density DampFac         ....    0.7000
   Max. Damping (<1)    DampMax         ....    0.9800
   Min. Damping (>=0)   DampMin         ....    0.0000
   Turn off err/grad.   DampErr         ....    0.1000
 Fernandez-Rico         CNVRico         .... off

SCF Procedure:
 Maximum # iterations   MaxIter         ....   125
 SCF integral mode      SCFMode         .... Direct
   Integral package                     .... SHARK and LIBINT hybrid scheme
 Reset frequency        DirectResetFreq ....    20
 Integral Threshold     Thresh          ....  2.500e-11 Eh
 Primitive CutOff       TCut            ....  2.500e-12 Eh

Convergence Tolerance:
 Convergence Check Mode ConvCheckMode   .... Total+1el-Energy
 Convergence forced     ConvForced      .... 1
 Energy Change          TolE            ....  1.000e-08 Eh
 1-El. energy change                    ....  1.000e-05 Eh
 Orbital Gradient       TolG            ....  1.000e-05
 Orbital Rotation angle TolX            ....  1.000e-05
 DIIS Error             TolErr          ....  5.000e-07


Diagonalization of the overlap matrix:
Smallest eigenvalue                        ... 3.386e-05
Time for diagonalization                   ...    0.128 sec
Threshold for overlap eigenvalues          ... 1.000e-08
Number of eigenvalues below threshold      ... 0
Time for construction of square roots      ...    0.312 sec
Total time needed                          ...    0.442 sec

Time for model grid setup =    1.527 sec

------------------------------
INITIAL GUESS: MODEL POTENTIAL
------------------------------
Loading Hartree-Fock densities                     ... done
Calculating cut-offs                               ... done
Initializing the effective Hamiltonian             ... done
Setting up the integral package (SHARK)            ... done
Starting the Coulomb interaction                   ... done (   4.0 sec)
Reading the grid                                   ... done
Mapping shells                                     ... done
Starting the XC term evaluation                    ... done (   1.3 sec)
Transforming the Hamiltonian                       ... done (   0.0 sec)
Diagonalizing the Hamiltonian                      ... done (   0.1 sec)
Back transforming the eigenvectors                 ... done (   0.0 sec)
Now organizing SCF variables                       ... done
                      ------------------
                      INITIAL GUESS DONE (   7.1 sec)
                      ------------------
--------------
SCF ITERATIONS
--------------
ITER       Energy         Delta-E        Max-DP      RMS-DP      [F,P]     Damp
               ***  Starting incremental Fock matrix formation  ***
  0  -1270.0110211267   0.000000000000 0.04931294  0.00043147  0.3064033 0.7000
  1  -1270.2793579801  -0.268336853466 0.03607667  0.00034792  0.1806621 0.7000
                               ***Turning on DIIS***
  2  -1270.4465851815  -0.167227201407 0.02583298  0.00023458  0.1096495 0.7000
  3  -1272.5882525575  -2.141667375902 0.06311536  0.00051275  0.0829041 0.0000
  4  -1270.7539752223   1.834277335181 0.00684181  0.00009484  0.0071369 0.0000
  5  -1270.8156312416  -0.061656019308 0.00361958  0.00005027  0.0049349 0.0000
                      *** Initiating the SOSCF procedure ***
                           *** Shutting down DIIS ***
                      *** Re-Reading the Fockian *** 
                      *** Removing any level shift *** 
ITER      Energy       Delta-E        Grad      Rot      Max-DP    RMS-DP
  6  -1270.79510573   0.0205255079  0.001681  0.001681  0.001785  0.000026
               *** Restarting incremental Fock matrix formation ***
  7  -1270.80967420  -0.0145684673  0.000991  0.002547  0.001243  0.000016
  8  -1270.80972208  -0.0000478774  0.000433  0.002910  0.001439  0.000017
  9  -1270.80974030  -0.0000182232  0.000163  0.000331  0.000358  0.000004
 10  -1270.80974263  -0.0000023320  0.000052  0.000142  0.000123  0.000001
 11  -1270.80974287  -0.0000002344  0.000025  0.000130  0.000066  0.000001
 12  -1270.80974294  -0.0000000726  0.000010  0.000043  0.000035  0.000000
 13  -1270.80974294  -0.0000000028  0.000003  0.000011  0.000007  0.000000
                 **** Energy Check signals convergence ****
              ***Rediagonalizing the Fockian in SOSCF/NRSCF***

               *****************************************************
               *                     SUCCESS                       *
               *           SCF CONVERGED AFTER  14 CYCLES          *
               *****************************************************


----------------
TOTAL SCF ENERGY
----------------

Total Energy       :        -1270.80974293 Eh          -34580.49114 eV

Components:
Nuclear Repulsion  :         1706.00980099 Eh           46422.88678 eV
Electronic Energy  :        -2976.81954392 Eh          -81003.37792 eV
One Electron Energy:        -5133.18629480 Eh         -139681.10033 eV
Two Electron Energy:         2156.36675088 Eh           58677.72241 eV

Virial components:
Potential Energy   :        -2539.78386818 Eh          -69111.03259 eV
Kinetic Energy     :         1268.97412525 Eh           34530.54145 eV
Virial Ratio       :            2.00144654


---------------
SCF CONVERGENCE
---------------

  Last Energy change         ...    8.4251e-09  Tolerance :   1.0000e-08
  Last MAX-Density change    ...    1.7512e-06  Tolerance :   1.0000e-07
  Last RMS-Density change    ...    2.8886e-08  Tolerance :   5.0000e-09
  Last Orbital Gradient      ...    1.1340e-06  Tolerance :   1.0000e-05
  Last Orbital Rotation      ...    2.6823e-06  Tolerance :   1.0000e-05

             **** THE GBW FILE WAS UPDATED (CONFS/Conf9.orca.gbw) ****
             **** DENSITY CONFS/Conf9.orca.scfp WAS UPDATED ****
             **** ENERGY FILE WAS UPDATED (CONFS/Conf9.orca.en.tmp) ****
             **** THE GBW FILE WAS UPDATED (CONFS/Conf9.orca.gbw) ****
             **** DENSITY CONFS/Conf9.orca.scfp WAS UPDATED ****
----------------
ORBITAL ENERGIES
----------------

  NO   OCC          E(Eh)            E(eV) 
   0   2.0000     -91.889572     -2500.4424 
   1   2.0000     -20.599046      -560.5285 
   2   2.0000     -20.592274      -560.3443 
   3   2.0000     -20.544238      -559.0371 
   4   2.0000     -15.629842      -425.3096 
   5   2.0000     -15.609038      -424.7435 
   6   2.0000     -11.394362      -310.0563 
   7   2.0000     -11.384693      -309.7932 
   8   2.0000     -11.336468      -308.4810 
   9   2.0000     -11.316658      -307.9419 
  10   2.0000     -11.310271      -307.7681 
  11   2.0000     -11.293470      -307.3109 
  12   2.0000     -11.262088      -306.4570 
  13   2.0000     -11.259097      -306.3756 
  14   2.0000     -11.258025      -306.3464 
  15   2.0000     -11.252798      -306.2042 
  16   2.0000     -11.245595      -306.0082 
  17   2.0000     -11.240731      -305.8759 
  18   2.0000     -11.240434      -305.8678 
  19   2.0000     -11.223146      -305.3973 
  20   2.0000      -8.894630      -242.0352 
  21   2.0000      -6.576203      -178.9476 
  22   2.0000      -6.574199      -178.8931 
  23   2.0000      -6.573611      -178.8771 
  24   2.0000      -1.449972       -39.4557 
  25   2.0000      -1.418687       -38.6044 
  26   2.0000      -1.353719       -36.8366 
  27   2.0000      -1.340849       -36.4864 
  28   2.0000      -1.239456       -33.7273 
  29   2.0000      -1.159877       -31.5619 
  30   2.0000      -1.121063       -30.5057 
  31   2.0000      -1.044344       -28.4180 
  32   2.0000      -1.035466       -28.1765 
  33   2.0000      -1.017742       -27.6942 
  34   2.0000      -0.996267       -27.1098 
  35   2.0000      -0.984742       -26.7962 
  36   2.0000      -0.923862       -25.1396 
  37   2.0000      -0.884966       -24.0812 
  38   2.0000      -0.848066       -23.0770 
  39   2.0000      -0.839805       -22.8523 
  40   2.0000      -0.836283       -22.7564 
  41   2.0000      -0.822153       -22.3719 
  42   2.0000      -0.761120       -20.7111 
  43   2.0000      -0.734218       -19.9791 
  44   2.0000      -0.724059       -19.7026 
  45   2.0000      -0.697924       -18.9915 
  46   2.0000      -0.689172       -18.7533 
  47   2.0000      -0.679131       -18.4801 
  48   2.0000      -0.672166       -18.2906 
  49   2.0000      -0.654493       -17.8097 
  50   2.0000      -0.647503       -17.6194 
  51   2.0000      -0.643371       -17.5070 
  52   2.0000      -0.627383       -17.0720 
  53   2.0000      -0.616994       -16.7893 
  54   2.0000      -0.609592       -16.5878 
  55   2.0000      -0.601597       -16.3703 
  56   2.0000      -0.600025       -16.3275 
  57   2.0000      -0.580123       -15.7860 
  58   2.0000      -0.572150       -15.5690 
  59   2.0000      -0.567041       -15.4300 
  60   2.0000      -0.565027       -15.3752 
  61   2.0000      -0.539505       -14.6807 
  62   2.0000      -0.533663       -14.5217 
  63   2.0000      -0.527286       -14.3482 
  64   2.0000      -0.519926       -14.1479 
  65   2.0000      -0.514607       -14.0032 
  66   2.0000      -0.502703       -13.6792 
  67   2.0000      -0.496269       -13.5042 
  68   2.0000      -0.488310       -13.2876 
  69   2.0000      -0.464261       -12.6332 
  70   2.0000      -0.454013       -12.3543 
  71   2.0000      -0.447941       -12.1891 
  72   2.0000      -0.354856        -9.6561 
  73   2.0000      -0.351865        -9.5747 
  74   2.0000      -0.329203        -8.9581 
  75   2.0000      -0.324086        -8.8188 
  76   2.0000      -0.317007        -8.6262 
  77   0.0000       0.073132         1.9900 
  78   0.0000       0.103760         2.8234 
  79   0.0000       0.124186         3.3793 
  80   0.0000       0.130965         3.5637 
  81   0.0000       0.135370         3.6836 
  82   0.0000       0.140341         3.8189 
  83   0.0000       0.151938         4.1345 
  84   0.0000       0.159863         4.3501 
  85   0.0000       0.161369         4.3911 
  86   0.0000       0.168213         4.5773 
  87   0.0000       0.178955         4.8696 
  88   0.0000       0.192859         5.2479 
  89   0.0000       0.195572         5.3218 
  90   0.0000       0.199674         5.4334 
  91   0.0000       0.208814         5.6821 
  92   0.0000       0.216454         5.8900 
  93   0.0000       0.220652         6.0042 
  94   0.0000       0.226568         6.1652 
  95   0.0000       0.232711         6.3324 
  96   0.0000       0.245658         6.6847 
  97   0.0000       0.246384         6.7044 
  98   0.0000       0.261378         7.1125 
  99   0.0000       0.271200         7.3797 
 100   0.0000       0.295701         8.0464 
 101   0.0000       0.302873         8.2416 
 102   0.0000       0.309151         8.4124 
 103   0.0000       0.317318         8.6347 
 104   0.0000       0.322666         8.7802 
 105   0.0000       0.329051         8.9539 
 106   0.0000       0.340016         9.2523 
 107   0.0000       0.345018         9.3884 
 108   0.0000       0.353530         9.6200 
 109   0.0000       0.367068         9.9884 
 110   0.0000       0.372294        10.1306 
 111   0.0000       0.378770        10.3069 
 112   0.0000       0.384019        10.4497 
 113   0.0000       0.392272        10.6743 
 114   0.0000       0.392702        10.6860 
 115   0.0000       0.399556        10.8725 
 116   0.0000       0.410051        11.1580 
 117   0.0000       0.428871        11.6702 
 118   0.0000       0.431450        11.7404 
 119   0.0000       0.440752        11.9935 
 120   0.0000       0.443017        12.0551 
 121   0.0000       0.447392        12.1742 
 122   0.0000       0.454168        12.3585 
 123   0.0000       0.465180        12.6582 
 124   0.0000       0.466807        12.7025 
 125   0.0000       0.472595        12.8600 
 126   0.0000       0.481096        13.0913 
 127   0.0000       0.482900        13.1404 
 128   0.0000       0.490572        13.3492 
 129   0.0000       0.495285        13.4774 
 130   0.0000       0.502918        13.6851 
 131   0.0000       0.503189        13.6925 
 132   0.0000       0.506089        13.7714 
 133   0.0000       0.512126        13.9357 
 134   0.0000       0.521454        14.1895 
 135   0.0000       0.530543        14.4368 
 136   0.0000       0.534854        14.5541 
 137   0.0000       0.537252        14.6194 
 138   0.0000       0.543198        14.7812 
 139   0.0000       0.550146        14.9702 
 140   0.0000       0.559839        15.2340 
 141   0.0000       0.563917        15.3450 
 142   0.0000       0.566566        15.4170 
 143   0.0000       0.568688        15.4748 
 144   0.0000       0.578557        15.7433 
 145   0.0000       0.582499        15.8506 
 146   0.0000       0.587099        15.9758 
 147   0.0000       0.593223        16.1424 
 148   0.0000       0.594734        16.1835 
 149   0.0000       0.602005        16.3814 
 150   0.0000       0.603273        16.4159 
 151   0.0000       0.609886        16.5958 
 152   0.0000       0.614054        16.7093 
 153   0.0000       0.621044        16.8995 
 154   0.0000       0.623904        16.9773 
 155   0.0000       0.627740        17.0817 
 156   0.0000       0.630619        17.1600 
 157   0.0000       0.634902        17.2766 
 158   0.0000       0.635511        17.2931 
 159   0.0000       0.638800        17.3826 
 160   0.0000       0.648817        17.6552 
 161   0.0000       0.653188        17.7742 
 162   0.0000       0.656107        17.8536 
 163   0.0000       0.660151        17.9636 
 164   0.0000       0.665206        18.1012 
 165   0.0000       0.673817        18.3355 
 166   0.0000       0.678196        18.4547 
 167   0.0000       0.680421        18.5152 
 168   0.0000       0.684269        18.6199 
 169   0.0000       0.694600        18.9010 
 170   0.0000       0.697789        18.9878 
 171   0.0000       0.708528        19.2800 
 172   0.0000       0.713089        19.4042 
 173   0.0000       0.721775        19.6405 
 174   0.0000       0.723100        19.6765 
 175   0.0000       0.727847        19.8057 
 176   0.0000       0.735993        20.0274 
 177   0.0000       0.740159        20.1407 
 178   0.0000       0.748602        20.3705 
 179   0.0000       0.761527        20.7222 
 180   0.0000       0.765925        20.8419 
 181   0.0000       0.767500        20.8847 
 182   0.0000       0.777138        21.1470 
 183   0.0000       0.788897        21.4670 
 184   0.0000       0.798414        21.7259 
 185   0.0000       0.810101        22.0440 
 186   0.0000       0.819068        22.2880 
 187   0.0000       0.819887        22.3103 
 188   0.0000       0.830709        22.6047 
 189   0.0000       0.835841        22.7444 
 190   0.0000       0.841092        22.8873 
 191   0.0000       0.847786        23.0694 
 192   0.0000       0.851210        23.1626 
 193   0.0000       0.859653        23.3924 
 194   0.0000       0.866230        23.5713 
 195   0.0000       0.874966        23.8090 
 196   0.0000       0.881619        23.9901 
 197   0.0000       0.891433        24.2571 
 198   0.0000       0.896508        24.3952 
 199   0.0000       0.905430        24.6380 
 200   0.0000       0.913165        24.8485 
 201   0.0000       0.918284        24.9878 
 202   0.0000       0.925850        25.1937 
 203   0.0000       0.931874        25.3576 
 204   0.0000       0.944940        25.7131 
 205   0.0000       0.948660        25.8144 
 206   0.0000       0.959286        26.1035 
 207   0.0000       0.963595        26.2208 
 208   0.0000       0.967767        26.3343 
 209   0.0000       0.975549        26.5460 
 210   0.0000       0.982180        26.7265 
 211   0.0000       0.984167        26.7806 
 212   0.0000       0.992261        27.0008 
 213   0.0000       0.998730        27.1768 
 214   0.0000       1.013934        27.5906 
 215   0.0000       1.021457        27.7953 
 216   0.0000       1.026852        27.9421 
 217   0.0000       1.035043        28.1650 
 218   0.0000       1.037942        28.2438 
 219   0.0000       1.044527        28.4230 
 220   0.0000       1.050265        28.5792 
 221   0.0000       1.051672        28.6175 
 222   0.0000       1.063587        28.9417 
 223   0.0000       1.071157        29.1477 
 224   0.0000       1.079344        29.3704 
 225   0.0000       1.089910        29.6580 
 226   0.0000       1.091663        29.7056 
 227   0.0000       1.097517        29.8650 
 228   0.0000       1.110593        30.2208 
 229   0.0000       1.119353        30.4592 
 230   0.0000       1.126863        30.6635 
 231   0.0000       1.131661        30.7941 
 232   0.0000       1.138345        30.9759 
 233   0.0000       1.143705        31.1218 
 234   0.0000       1.154201        31.4074 
 235   0.0000       1.161038        31.5934 
 236   0.0000       1.166026        31.7292 
 237   0.0000       1.175787        31.9948 
 238   0.0000       1.180429        32.1211 
 239   0.0000       1.185037        32.2465 
 240   0.0000       1.191382        32.4191 
 241   0.0000       1.193930        32.4885 
 242   0.0000       1.205176        32.7945 
 243   0.0000       1.210559        32.9410 
 244   0.0000       1.217136        33.1199 
 245   0.0000       1.222823        33.2747 
 246   0.0000       1.232120        33.5277 
 247   0.0000       1.237385        33.6710 
 248   0.0000       1.245430        33.8899 
 249   0.0000       1.251842        34.0644 
 250   0.0000       1.263395        34.3787 
 251   0.0000       1.270676        34.5769 
 252   0.0000       1.274074        34.6693 
 253   0.0000       1.280987        34.8574 
 254   0.0000       1.289904        35.1001 
 255   0.0000       1.302563        35.4445 
 256   0.0000       1.313673        35.7469 
 257   0.0000       1.317792        35.8589 
 258   0.0000       1.324941        36.0535 
 259   0.0000       1.336172        36.3591 
 260   0.0000       1.343662        36.5629 
 261   0.0000       1.349201        36.7136 
 262   0.0000       1.355470        36.8842 
 263   0.0000       1.369998        37.2795 
 264   0.0000       1.373763        37.3820 
 265   0.0000       1.386824        37.7374 
 266   0.0000       1.389316        37.8052 
 267   0.0000       1.400453        38.1083 
 268   0.0000       1.403187        38.1827 
 269   0.0000       1.419646        38.6305 
 270   0.0000       1.422526        38.7089 
 271   0.0000       1.427992        38.8576 
 272   0.0000       1.438460        39.1425 
 273   0.0000       1.449071        39.4312 
 274   0.0000       1.459542        39.7162 
 275   0.0000       1.464203        39.8430 
 276   0.0000       1.471378        40.0382 
 277   0.0000       1.473961        40.1085 
 278   0.0000       1.481037        40.3011 
 279   0.0000       1.489691        40.5365 
 280   0.0000       1.498781        40.7839 
 281   0.0000       1.503610        40.9153 
 282   0.0000       1.510832        41.1118 
 283   0.0000       1.514558        41.2132 
 284   0.0000       1.518705        41.3261 
 285   0.0000       1.524628        41.4872 
 286   0.0000       1.526655        41.5424 
 287   0.0000       1.534377        41.7525 
 288   0.0000       1.543402        41.9981 
 289   0.0000       1.544065        42.0161 
 290   0.0000       1.549320        42.1591 
 291   0.0000       1.565888        42.6100 
 292   0.0000       1.570245        42.7285 
 293   0.0000       1.574746        42.8510 
 294   0.0000       1.584672        43.1211 
 295   0.0000       1.591917        43.3183 
 296   0.0000       1.600948        43.5640 
 297   0.0000       1.609902        43.8077 
 298   0.0000       1.611509        43.8514 
 299   0.0000       1.621477        44.1226 
 300   0.0000       1.636375        44.5280 
 301   0.0000       1.644405        44.7465 
 302   0.0000       1.655463        45.0474 
 303   0.0000       1.661416        45.2094 
 304   0.0000       1.670195        45.4483 
 305   0.0000       1.678902        45.6852 
 306   0.0000       1.680734        45.7351 
 307   0.0000       1.696027        46.1512 
 308   0.0000       1.704244        46.3748 
 309   0.0000       1.708205        46.4826 
 310   0.0000       1.712373        46.5960 
 311   0.0000       1.721379        46.8411 
 312   0.0000       1.739600        47.3369 
 313   0.0000       1.744674        47.4750 
 314   0.0000       1.752179        47.6792 
 315   0.0000       1.770074        48.1662 
 316   0.0000       1.779412        48.4203 
 317   0.0000       1.786598        48.6158 
 318   0.0000       1.796749        48.8920 
 319   0.0000       1.805705        49.1357 
 320   0.0000       1.813899        49.3587 
 321   0.0000       1.815275        49.3961 
 322   0.0000       1.823513        49.6203 
 323   0.0000       1.838242        50.0211 
 324   0.0000       1.847167        50.2640 
 325   0.0000       1.865347        50.7587 
 326   0.0000       1.874930        51.0194 
 327   0.0000       1.893640        51.5286 
 328   0.0000       1.903293        51.7912 
 329   0.0000       1.914573        52.0982 
 330   0.0000       1.922662        52.3183 
 331   0.0000       1.931100        52.5479 
 332   0.0000       1.934885        52.6509 
 333   0.0000       1.951695        53.1083 
 334   0.0000       1.965013        53.4707 
 335   0.0000       1.969461        53.5918 
 336   0.0000       1.989219        54.1294 
 337   0.0000       1.995205        54.2923 
 338   0.0000       2.015967        54.8573 
 339   0.0000       2.020233        54.9733 
 340   0.0000       2.032609        55.3101 
 341   0.0000       2.042315        55.5742 
 342   0.0000       2.051965        55.8368 
 343   0.0000       2.072486        56.3952 
 344   0.0000       2.099306        57.1250 
 345   0.0000       2.115201        57.5575 
 346   0.0000       2.120780        57.7094 
 347   0.0000       2.127681        57.8971 
 348   0.0000       2.153363        58.5960 
 349   0.0000       2.159443        58.7614 
 350   0.0000       2.181505        59.3618 
 351   0.0000       2.195447        59.7411 
 352   0.0000       2.213045        60.2200 
 353   0.0000       2.213584        60.2347 
 354   0.0000       2.232853        60.7590 
 355   0.0000       2.252567        61.2955 
 356   0.0000       2.257520        61.4302 
 357   0.0000       2.285261        62.1851 
 358   0.0000       2.296496        62.4908 
 359   0.0000       2.308960        62.8300 
 360   0.0000       2.315619        63.0112 
 361   0.0000       2.319114        63.1063 
 362   0.0000       2.339668        63.6656 
 363   0.0000       2.342687        63.7478 
 364   0.0000       2.362542        64.2880 
 365   0.0000       2.380670        64.7813 
 366   0.0000       2.390104        65.0380 
 367   0.0000       2.401511        65.3484 
 368   0.0000       2.420741        65.8717 
 369   0.0000       2.432979        66.2047 
 370   0.0000       2.438928        66.3666 
 371   0.0000       2.461516        66.9813 
 372   0.0000       2.465347        67.0855 
 373   0.0000       2.476065        67.3772 
 374   0.0000       2.485816        67.6425 
 375   0.0000       2.501080        68.0578 
 376   0.0000       2.508404        68.2571 
 377   0.0000       2.536312        69.0166 
 378   0.0000       2.545364        69.2629 
 379   0.0000       2.555485        69.5383 
 380   0.0000       2.568027        69.8796 
 381   0.0000       2.586714        70.3881 
 382   0.0000       2.591335        70.5138 
 383   0.0000       2.598403        70.7061 
 384   0.0000       2.609000        70.9945 
 385   0.0000       2.619458        71.2791 
 386   0.0000       2.624953        71.4286 
 387   0.0000       2.640761        71.8588 
 388   0.0000       2.654943        72.2447 
 389   0.0000       2.669452        72.6395 
 390   0.0000       2.687686        73.1356 
 391   0.0000       2.696839        73.3847 
 392   0.0000       2.701870        73.5216 
 393   0.0000       2.714603        73.8681 
 394   0.0000       2.722130        74.0729 
 395   0.0000       2.733553        74.3838 
 396   0.0000       2.740599        74.5755 
 397   0.0000       2.744361        74.6779 
 398   0.0000       2.750772        74.8523 
 399   0.0000       2.760458        75.1159 
 400   0.0000       2.769608        75.3649 
 401   0.0000       2.780616        75.6644 
 402   0.0000       2.791925        75.9721 
 403   0.0000       2.804056        76.3023 
 404   0.0000       2.812039        76.5195 
 405   0.0000       2.827679        76.9451 
 406   0.0000       2.838316        77.2345 
 407   0.0000       2.841980        77.3342 
 408   0.0000       2.854305        77.6696 
 409   0.0000       2.859405        77.8084 
 410   0.0000       2.873483        78.1914 
 411   0.0000       2.876712        78.2793 
 412   0.0000       2.882231        78.4295 
 413   0.0000       2.897519        78.8455 
 414   0.0000       2.908036        79.1317 
 415   0.0000       2.912506        79.2533 
 416   0.0000       2.927806        79.6696 
 417   0.0000       2.940755        80.0220 
 418   0.0000       2.950623        80.2905 
 419   0.0000       2.961717        80.5924 
 420   0.0000       2.969941        80.8162 
 421   0.0000       2.974290        80.9345 
 422   0.0000       2.984472        81.2116 
 423   0.0000       2.992129        81.4200 
 424   0.0000       3.000348        81.6436 
 425   0.0000       3.007634        81.8419 
 426   0.0000       3.013367        81.9979 
 427   0.0000       3.021997        82.2327 
 428   0.0000       3.030234        82.4569 
 429   0.0000       3.042617        82.7938 
 430   0.0000       3.046663        82.9039 
 431   0.0000       3.058793        83.2340 
 432   0.0000       3.065092        83.4054 
 433   0.0000       3.071798        83.5879 
 434   0.0000       3.077623        83.7464 
 435   0.0000       3.084932        83.9453 
 436   0.0000       3.088607        84.0453 
 437   0.0000       3.091699        84.1294 
 438   0.0000       3.100210        84.3610 
 439   0.0000       3.102552        84.4247 
 440   0.0000       3.106199        84.5240 
 441   0.0000       3.113453        84.7214 
 442   0.0000       3.121949        84.9526 
 443   0.0000       3.127932        85.1154 
 444   0.0000       3.130325        85.1805 
 445   0.0000       3.133746        85.2736 
 446   0.0000       3.159092        85.9633 
 447   0.0000       3.169499        86.2464 
 448   0.0000       3.177676        86.4690 
 449   0.0000       3.180101        86.5350 
 450   0.0000       3.195335        86.9495 
 451   0.0000       3.210595        87.3647 
 452   0.0000       3.214950        87.4832 
 453   0.0000       3.218518        87.5803 
 454   0.0000       3.229726        87.8853 
 455   0.0000       3.236838        88.0788 
 456   0.0000       3.244400        88.2846 
 457   0.0000       3.255747        88.5934 
 458   0.0000       3.259458        88.6944 
 459   0.0000       3.269161        88.9584 
 460   0.0000       3.271828        89.0310 
 461   0.0000       3.276112        89.1475 
 462   0.0000       3.284526        89.3765 
 463   0.0000       3.293869        89.6307 
 464   0.0000       3.296189        89.6939 
 465   0.0000       3.301158        89.8291 
 466   0.0000       3.310913        90.0945 
 467   0.0000       3.319389        90.3252 
 468   0.0000       3.324322        90.4594 
 469   0.0000       3.328206        90.5651 
 470   0.0000       3.333039        90.6966 
 471   0.0000       3.339318        90.8675 
 472   0.0000       3.348848        91.1268 
 473   0.0000       3.356153        91.3256 
 474   0.0000       3.358720        91.3954 
 475   0.0000       3.360440        91.4422 
 476   0.0000       3.367810        91.6428 
 477   0.0000       3.376338        91.8748 
 478   0.0000       3.381310        92.0101 
 479   0.0000       3.390594        92.2628 
 480   0.0000       3.395771        92.4036 
 481   0.0000       3.401445        92.5580 
 482   0.0000       3.408419        92.7478 
 483   0.0000       3.414312        92.9082 
 484   0.0000       3.417177        92.9861 
 485   0.0000       3.420163        93.0674 
 486   0.0000       3.425411        93.2102 
 487   0.0000       3.431056        93.3638 
 488   0.0000       3.437155        93.5297 
 489   0.0000       3.440512        93.6211 
 490   0.0000       3.446611        93.7870 
 491   0.0000       3.447377        93.8079 
 492   0.0000       3.451737        93.9265 
 493   0.0000       3.455697        94.0343 
 494   0.0000       3.462699        94.2248 
 495   0.0000       3.471466        94.4634 
 496   0.0000       3.483960        94.8034 
 497   0.0000       3.485640        94.8491 
 498   0.0000       3.492763        95.0429 
 499   0.0000       3.497527        95.1725 
 500   0.0000       3.518229        95.7359 
 501   0.0000       3.521558        95.8265 
 502   0.0000       3.533655        96.1556 
 503   0.0000       3.535903        96.2168 
 504   0.0000       3.544354        96.4468 
 505   0.0000       3.558114        96.8212 
 506   0.0000       3.562163        96.9314 
 507   0.0000       3.569063        97.1191 
 508   0.0000       3.578206        97.3679 
 509   0.0000       3.583649        97.5160 
 510   0.0000       3.591940        97.7416 
 511   0.0000       3.600767        97.9819 
 512   0.0000       3.608265        98.1859 
 513   0.0000       3.611812        98.2824 
 514   0.0000       3.617703        98.4427 
 515   0.0000       3.627465        98.7083 
 516   0.0000       3.628654        98.7407 
 517   0.0000       3.634064        98.8879 
 518   0.0000       3.637477        98.9808 
 519   0.0000       3.642876        99.1277 
 520   0.0000       3.646848        99.2358 
 521   0.0000       3.651297        99.3568 
 522   0.0000       3.658303        99.5475 
 523   0.0000       3.658437        99.5511 
 524   0.0000       3.669382        99.8490 
 525   0.0000       3.674245        99.9813 
 526   0.0000       3.678191       100.0887 
 527   0.0000       3.693336       100.5008 
 528   0.0000       3.697617       100.6173 
 529   0.0000       3.710548       100.9691 
 530   0.0000       3.716659       101.1354 
 531   0.0000       3.718893       101.1962 
 532   0.0000       3.730915       101.5234 
 533   0.0000       3.732974       101.5794 
 534   0.0000       3.746277       101.9414 
 535   0.0000       3.752308       102.1055 
 536   0.0000       3.753419       102.1357 
 537   0.0000       3.757015       102.2336 
 538   0.0000       3.763916       102.4214 
 539   0.0000       3.769402       102.5706 
 540   0.0000       3.776257       102.7572 
 541   0.0000       3.790433       103.1429 
 542   0.0000       3.795850       103.2903 
 543   0.0000       3.803529       103.4993 
 544   0.0000       3.810298       103.6835 
 545   0.0000       3.816291       103.8466 
 546   0.0000       3.824000       104.0563 
 547   0.0000       3.829870       104.2161 
 548   0.0000       3.835152       104.3598 
 549   0.0000       3.839609       104.4811 
 550   0.0000       3.850663       104.7819 
 551   0.0000       3.854031       104.8735 
 552   0.0000       3.874481       105.4300 
 553   0.0000       3.876496       105.4848 
 554   0.0000       3.897437       106.0546 
 555   0.0000       3.899381       106.1076 
 556   0.0000       3.907432       106.3266 
 557   0.0000       3.921417       106.7072 
 558   0.0000       3.923788       106.7717 
 559   0.0000       3.926788       106.8533 
 560   0.0000       3.946708       107.3954 
 561   0.0000       3.950847       107.5080 
 562   0.0000       3.956050       107.6496 
 563   0.0000       3.970768       108.0501 
 564   0.0000       3.980745       108.3216 
 565   0.0000       3.986962       108.4908 
 566   0.0000       3.991467       108.6133 
 567   0.0000       3.995624       108.7264 
 568   0.0000       4.010774       109.1387 
 569   0.0000       4.014485       109.2397 
 570   0.0000       4.029624       109.6516 
 571   0.0000       4.041969       109.9876 
 572   0.0000       4.042220       109.9944 
 573   0.0000       4.053561       110.3030 
 574   0.0000       4.070380       110.7607 
 575   0.0000       4.072721       110.8244 
 576   0.0000       4.083352       111.1136 
 577   0.0000       4.092459       111.3615 
 578   0.0000       4.107306       111.7655 
 579   0.0000       4.110391       111.8494 
 580   0.0000       4.113338       111.9296 
 581   0.0000       4.123253       112.1994 
 582   0.0000       4.130433       112.3948 
 583   0.0000       4.136676       112.5647 
 584   0.0000       4.143183       112.7417 
 585   0.0000       4.145370       112.8013 
 586   0.0000       4.154967       113.0624 
 587   0.0000       4.156567       113.1059 
 588   0.0000       4.167762       113.4106 
 589   0.0000       4.173844       113.5761 
 590   0.0000       4.183780       113.8464 
 591   0.0000       4.188226       113.9674 
 592   0.0000       4.191500       114.0565 
 593   0.0000       4.200240       114.2943 
 594   0.0000       4.206939       114.4766 
 595   0.0000       4.215520       114.7101 
 596   0.0000       4.218486       114.7908 
 597   0.0000       4.223245       114.9203 
 598   0.0000       4.230936       115.1296 
 599   0.0000       4.234733       115.2329 
 600   0.0000       4.240586       115.3922 
 601   0.0000       4.257622       115.8558 
 602   0.0000       4.260612       115.9372 
 603   0.0000       4.271604       116.2362 
 604   0.0000       4.289258       116.7166 
 605   0.0000       4.296936       116.9256 
 606   0.0000       4.310588       117.2971 
 607   0.0000       4.314082       117.3921 
 608   0.0000       4.325383       117.6997 
 609   0.0000       4.327203       117.7492 
 610   0.0000       4.332667       117.8979 
 611   0.0000       4.342538       118.1665 
 612   0.0000       4.354184       118.4834 
 613   0.0000       4.359038       118.6155 
 614   0.0000       4.363504       118.7370 
 615   0.0000       4.371593       118.9571 
 616   0.0000       4.378589       119.1475 
 617   0.0000       4.385224       119.3280 
 618   0.0000       4.390669       119.4762 
 619   0.0000       4.403177       119.8165 
 620   0.0000       4.405711       119.8855 
 621   0.0000       4.414237       120.1175 
 622   0.0000       4.418937       120.2454 
 623   0.0000       4.432503       120.6145 
 624   0.0000       4.435756       120.7030 
 625   0.0000       4.440205       120.8241 
 626   0.0000       4.457925       121.3063 
 627   0.0000       4.468026       121.5812 
 628   0.0000       4.471844       121.6851 
 629   0.0000       4.476773       121.8192 
 630   0.0000       4.497370       122.3797 
 631   0.0000       4.503939       122.5584 
 632   0.0000       4.507663       122.6597 
 633   0.0000       4.526960       123.1848 
 634   0.0000       4.533341       123.3585 
 635   0.0000       4.541560       123.5821 
 636   0.0000       4.545372       123.6858 
 637   0.0000       4.558661       124.0475 
 638   0.0000       4.567424       124.2859 
 639   0.0000       4.582806       124.7045 
 640   0.0000       4.583877       124.7336 
 641   0.0000       4.593000       124.9819 
 642   0.0000       4.596732       125.0834 
 643   0.0000       4.611189       125.4768 
 644   0.0000       4.613789       125.5476 
 645   0.0000       4.622564       125.7864 
 646   0.0000       4.631077       126.0180 
 647   0.0000       4.639911       126.2584 
 648   0.0000       4.645148       126.4009 
 649   0.0000       4.649425       126.5173 
 650   0.0000       4.655634       126.6862 
 651   0.0000       4.665074       126.9431 
 652   0.0000       4.672430       127.1433 
 653   0.0000       4.690319       127.6301 
 654   0.0000       4.702675       127.9663 
 655   0.0000       4.711318       128.2015 
 656   0.0000       4.716123       128.3322 
 657   0.0000       4.724019       128.5471 
 658   0.0000       4.734143       128.8226 
 659   0.0000       4.742910       129.0612 
 660   0.0000       4.755158       129.3944 
 661   0.0000       4.767432       129.7284 
 662   0.0000       4.782834       130.1475 
 663   0.0000       4.793875       130.4480 
 664   0.0000       4.805856       130.7740 
 665   0.0000       4.815896       131.0472 
 666   0.0000       4.830344       131.4404 
 667   0.0000       4.843886       131.8088 
 668   0.0000       4.865031       132.3842 
 669   0.0000       4.887938       133.0076 
 670   0.0000       4.904265       133.4518 
 671   0.0000       4.921819       133.9295 
 672   0.0000       4.945269       134.5676 
 673   0.0000       4.950551       134.7113 
 674   0.0000       4.971214       135.2736 
 675   0.0000       4.984511       135.6354 
 676   0.0000       5.012916       136.4084 
 677   0.0000       5.023243       136.6894 
 678   0.0000       5.025097       136.7398 
 679   0.0000       5.050410       137.4286 
 680   0.0000       5.054370       137.5364 
 681   0.0000       5.077972       138.1786 
 682   0.0000       5.085497       138.3834 
 683   0.0000       5.097388       138.7070 
 684   0.0000       5.110079       139.0523 
 685   0.0000       5.118254       139.2748 
 686   0.0000       5.128678       139.5584 
 687   0.0000       5.142130       139.9245 
 688   0.0000       5.154171       140.2521 
 689   0.0000       5.157650       140.3468 
 690   0.0000       5.164582       140.5354 
 691   0.0000       5.181596       140.9984 
 692   0.0000       5.184887       141.0879 
 693   0.0000       5.194015       141.3363 
 694   0.0000       5.200498       141.5127 
 695   0.0000       5.216018       141.9351 
 696   0.0000       5.218042       141.9901 
 697   0.0000       5.224598       142.1685 
 698   0.0000       5.234582       142.4402 
 699   0.0000       5.252309       142.9226 
 700   0.0000       5.262667       143.2044 
 701   0.0000       5.274456       143.5252 
 702   0.0000       5.301095       144.2501 
 703   0.0000       5.318170       144.7148 
 704   0.0000       5.323529       144.8606 
 705   0.0000       5.333821       145.1406 
 706   0.0000       5.344358       145.4274 
 707   0.0000       5.363390       145.9453 
 708   0.0000       5.371616       146.1691 
 709   0.0000       5.376350       146.2979 
 710   0.0000       5.391037       146.6976 
 711   0.0000       5.403921       147.0482 
 712   0.0000       5.421482       147.5260 
 713   0.0000       5.446985       148.2200 
 714   0.0000       5.467715       148.7841 
 715   0.0000       5.487265       149.3161 
 716   0.0000       5.502556       149.7322 
 717   0.0000       5.513371       150.0264 
 718   0.0000       5.517379       150.1355 
 719   0.0000       5.537551       150.6844 
 720   0.0000       5.543857       150.8560 
 721   0.0000       5.547795       150.9632 
 722   0.0000       5.552403       151.0886 
 723   0.0000       5.578111       151.7881 
 724   0.0000       5.587603       152.0464 
 725   0.0000       5.598887       152.3535 
 726   0.0000       5.605709       152.5391 
 727   0.0000       5.620818       152.9502 
 728   0.0000       5.629323       153.1817 
 729   0.0000       5.637243       153.3972 
 730   0.0000       5.647370       153.6728 
 731   0.0000       5.657753       153.9553 
 732   0.0000       5.671730       154.3356 
 733   0.0000       5.682955       154.6411 
 734   0.0000       5.696842       155.0189 
 735   0.0000       5.719830       155.6445 
 736   0.0000       5.727204       155.8451 
 737   0.0000       5.738317       156.1476 
 738   0.0000       5.746239       156.3631 
 739   0.0000       5.752021       156.5204 
 740   0.0000       5.770190       157.0149 
 741   0.0000       5.772120       157.0674 
 742   0.0000       5.788774       157.5206 
 743   0.0000       5.810954       158.1241 
 744   0.0000       5.814551       158.2220 
 745   0.0000       5.856655       159.3677 
 746   0.0000       5.860713       159.4781 
 747   0.0000       5.875159       159.8712 
 748   0.0000       5.904783       160.6773 
 749   0.0000       5.919277       161.0717 
 750   0.0000       5.940951       161.6615 
 751   0.0000       5.970852       162.4751 
 752   0.0000       5.986322       162.8961 
 753   0.0000       6.001433       163.3073 
 754   0.0000       6.013831       163.6447 
 755   0.0000       6.022310       163.8754 
 756   0.0000       6.063538       164.9973 
 757   0.0000       6.068434       165.1305 
 758   0.0000       6.073712       165.2741 
 759   0.0000       6.098753       165.9555 
 760   0.0000       6.118412       166.4904 
 761   0.0000       6.163037       167.7048 
 762   0.0000       6.216442       169.1580 
 763   0.0000       6.226199       169.4235 
 764   0.0000       6.244186       169.9129 
 765   0.0000       6.269795       170.6098 
 766   0.0000       6.296095       171.3255 
 767   0.0000       6.310521       171.7180 
 768   0.0000       6.340417       172.5315 
 769   0.0000       6.348288       172.7457 
 770   0.0000       6.366237       173.2341 
 771   0.0000       6.384681       173.7360 
 772   0.0000       6.402544       174.2221 
 773   0.0000       6.444732       175.3701 
 774   0.0000       6.458123       175.7345 
 775   0.0000       6.479782       176.3238 
 776   0.0000       6.502630       176.9456 
 777   0.0000       6.554134       178.3470 
 778   0.0000       6.592712       179.3968 
 779   0.0000       6.622387       180.2043 
 780   0.0000       6.658964       181.1996 
 781   0.0000       6.679783       181.7661 
 782   0.0000       6.729288       183.1132 
 783   0.0000       6.786600       184.6728 
 784   0.0000       6.804358       185.1560 
 785   0.0000       6.896924       187.6748 
 786   0.0000       6.908029       187.9770 
 787   0.0000       6.920132       188.3064 
 788   0.0000       6.942286       188.9092 
 789   0.0000       7.028458       191.2541 
 790   0.0000       7.048144       191.7897 
 791   0.0000       7.066797       192.2973 
 792   0.0000       7.079659       192.6473 
 793   0.0000       7.141713       194.3359 
 794   0.0000       7.218341       196.4211 
 795   0.0000       7.259310       197.5359 
 796   0.0000       7.280335       198.1080 
 797   0.0000       7.296916       198.5592 
 798   0.0000       7.341550       199.7737 
 799   0.0000       7.380931       200.8454 
 800   0.0000       7.416714       201.8191 
 801   0.0000       7.573963       206.0980 
 802   0.0000       7.581734       206.3095 
 803   0.0000       7.605986       206.9694 
 804   0.0000       7.688256       209.2081 
 805   0.0000       7.813936       212.6280 
 806   0.0000       7.821307       212.8286 
 807   0.0000       7.920209       215.5198 
 808   0.0000       7.933440       215.8799 
 809   0.0000       9.315051       253.4754 
 810   0.0000       9.515350       258.9258 
 811   0.0000      10.809309       294.1362 
 812   0.0000      11.398645       310.1729 
 813   0.0000      11.934047       324.7419 
 814   0.0000      12.580139       342.3230 
 815   0.0000      12.909591       351.2878 
 816   0.0000      13.059648       355.3711 
 817   0.0000      13.159959       358.1007 
 818   0.0000      13.259784       360.8171 
 819   0.0000      13.369135       363.7927 
 820   0.0000      13.554665       368.8412 
 821   0.0000      13.670120       371.9829 
 822   0.0000      13.913406       378.6030 
 823   0.0000      13.944744       379.4558 
 824   0.0000      14.064391       382.7115 
 825   0.0000      14.582700       396.8155 
 826   0.0000      14.799104       402.7041 
 827   0.0000      15.983402       434.9305 

                    ********************************
                    * MULLIKEN POPULATION ANALYSIS *
                    ********************************

-----------------------
MULLIKEN ATOMIC CHARGES
-----------------------
   0 C :   -0.264618
   1 C :    0.030580
   2 O :   -0.372386
   3 C :    0.467485
   4 O :   -0.421672
   5 C :   -0.248080
   6 C :    0.160685
   7 C :   -0.270200
   8 N :   -0.123409
   9 C :    0.213518
  10 S :   -0.439671
  11 N :   -0.207088
  12 C :    0.070469
  13 C :    0.058223
  14 C :   -0.200204
  15 C :   -0.130234
  16 C :   -0.278908
  17 C :    0.313674
  18 O :   -0.355562
  19 C :   -0.260397
  20 H :    0.104402
  21 H :    0.088118
  22 H :    0.090279
  23 H :    0.103837
  24 H :    0.115235
  25 H :    0.132116
  26 H :    0.130627
  27 H :    0.095386
  28 H :    0.197694
  29 H :    0.195222
  30 H :    0.149752
  31 H :    0.151951
  32 H :    0.163407
  33 H :    0.131981
  34 H :    0.241170
  35 H :    0.166620
Sum of atomic charges:   -0.0000000

--------------------------------
MULLIKEN REDUCED ORBITAL CHARGES
--------------------------------
  0 C s       :     3.257887  s :     3.257887
      pz      :     0.951254  p :     2.930415
      px      :     1.004372
      py      :     0.974789
      dz2     :     0.020649  d :     0.071832
      dxz     :     0.005552
      dyz     :     0.021208
      dx2y2   :     0.004987
      dxy     :     0.019437
      f0      :     0.000410  f :     0.004484
      f+1     :     0.000186
      f-1     :     0.001849
      f+2     :     0.000523
      f-2     :     0.000419
      f+3     :     0.000180
      f-3     :     0.000918
  1 C s       :     3.164222  s :     3.164222
      pz      :     0.988794  p :     2.639329
      px      :     0.791925
      py      :     0.858610
      dz2     :     0.029091  d :     0.154078
      dxz     :     0.023327
      dyz     :     0.035270
      dx2y2   :     0.023617
      dxy     :     0.042773
      f0      :     0.001554  f :     0.011792
      f+1     :     0.001048
      f-1     :     0.002112
      f+2     :     0.000688
      f-2     :     0.002113
      f+3     :     0.002063
      f-3     :     0.002216
  2 O s       :     3.723858  s :     3.723858
      pz      :     1.817140  p :     4.612920
      px      :     1.563993
      py      :     1.231787
      dz2     :     0.003652  d :     0.033325
      dxz     :     0.002871
      dyz     :     0.005331
      dx2y2   :     0.012060
      dxy     :     0.009411
      f0      :     0.000270  f :     0.002284
      f+1     :     0.000202
      f-1     :     0.000520
      f+2     :     0.000147
      f-2     :     0.000144
[...]
 15 C s       :     2.705960  s :     2.705960
      pz      :     0.918822  p :     2.796232
      px      :     0.907429
      py      :     0.969981
      dz2     :     0.107314  d :     0.417808
      dxz     :     0.067804
      dyz     :     0.068877
      dx2y2   :     0.102837
      dxy     :     0.070975
      f0      :     0.003844  f :     0.041106
      f+1     :     0.005456
      f-1     :     0.007048
      f+2     :     0.007295
      f-2     :     0.006549
      f+3     :     0.005456
      f-3     :     0.005458
 16 C s       :     2.701694  s :     2.701694
      pz      :     0.945992  p :     2.870535
      px      :     0.949461
      py      :     0.975082
      dz2     :     0.053828  d :     0.390146
      dxz     :     0.052043
      dyz     :     0.100520
      dx2y2   :     0.087226
      dxy     :     0.096529
      f0      :     0.005074  f :     0.040270
      f+1     :     0.004635
      f-1     :     0.004457
      f+2     :     0.006375
      f-2     :     0.005320
      f+3     :     0.008237
      f-3     :     0.006173
 17 C s       :     2.701641  s :     2.701641
      pz      :     0.844554  p :     2.679571
      px      :     0.817047
      py      :     1.017970
      dz2     :     0.141346  d :     0.708811
      dxz     :     0.103177
      dyz     :     0.160831
      dx2y2   :     0.148150
      dxy     :     0.155306
      f0      :     0.012518  f :     0.099242
      f+1     :     0.014408
      f-1     :     0.011774
      f+2     :     0.017261
      f-2     :     0.015128
      f+3     :     0.014750
      f-3     :     0.013403
 18 O s       :     3.177143  s :     3.177143
      pz      :     1.387412  p :     4.346427
      px      :     1.460242
      py      :     1.498773
      dz2     :     0.010021  d :     0.075439
      dxz     :     0.017051
      dyz     :     0.021713
      dx2y2   :     0.012538
      dxy     :     0.014117
      f0      :     0.000669  f :     0.005058
      f+1     :     0.000670
      f-1     :     0.000526
      f+2     :     0.000860
      f-2     :     0.001067
      f+3     :     0.000590
      f-3     :     0.000675
 19 C s       :     2.695062  s :     2.695062
      pz      :     0.942440  p :     2.845537
      px      :     0.937341
      py      :     0.965756
      dz2     :     0.086109  d :     0.387432
      dxz     :     0.066503
      dyz     :     0.073258
      dx2y2   :     0.088993
      dxy     :     0.072569
      f0      :     0.003817  f :     0.040758
      f+1     :     0.005846
      f-1     :     0.006514
      f+2     :     0.007240
      f-2     :     0.007121
      f+3     :     0.005259
      f-3     :     0.004963
 20 H s       :     0.846314  s :     0.846314
      pz      :     0.062626  p :     0.150011
      px      :     0.039279
      py      :     0.048105
      dz2     :     0.008911  d :     0.027505
      dxz     :     0.005662
      dyz     :     0.007104
      dx2y2   :     0.002272
      dxy     :     0.003557
 21 H s       :     0.849556  s :     0.849556
      pz      :     0.038970  p :     0.151144
      px      :     0.058172
      py      :     0.054002
      dz2     :     0.002401  d :     0.027410
      dxz     :     0.004541
      dyz     :     0.004508
      dx2y2   :     0.008973
      dxy     :     0.006986
 22 H s       :     0.851270  s :     0.851270
      pz      :     0.039426  p :     0.150653
      px      :     0.063311
      py      :     0.047916
      dz2     :     0.002426  d :     0.027510
      dxz     :     0.006185
      dyz     :     0.003088
      dx2y2   :     0.008058
      dxy     :     0.007753
 23 H s       :     0.853023  s :     0.853023
      pz      :     0.040913  p :     0.148197
      px      :     0.064076
      py      :     0.043208
      dz2     :     0.002735  d :     0.027194
      dxz     :     0.006680
      dyz     :     0.003370
      dx2y2   :     0.007046
      dxy     :     0.007363
 24 H s       :     0.855092  s :     0.855092
      pz      :     0.069111  p :     0.147401
      px      :     0.030060
      py      :     0.048230
      dz2     :     0.009300  d :     0.026943
      dxz     :     0.004192
      dyz     :     0.007972
      dx2y2   :     0.002237
      dxy     :     0.003242
 25 H s       :     0.825696  s :     0.825696
      pz      :     0.040687  p :     0.151224
      px      :     0.071752
      py      :     0.038785
      dz2     :     0.003378  d :     0.027744
      dxz     :     0.008433
      dyz     :     0.000527
      dx2y2   :     0.007382
      dxy     :     0.008025
 26 H s       :     0.825235  s :     0.825235
      pz      :     0.074552  p :     0.150869
      px      :     0.039089
      py      :     0.037228
      dz2     :     0.009545  d :     0.027756
      dxz     :     0.009079
      dyz     :     0.008604
      dx2y2   :     0.000441
      dxy     :     0.000087
 27 H s       :     0.845183  s :     0.845183
      pz      :     0.041497  p :     0.150336
      px      :     0.039415
      py      :     0.069424
      dz2     :     0.003453  d :     0.027702
      dxz     :     0.000485
      dyz     :     0.008304
      dx2y2   :     0.007064
      dxy     :     0.008396
 28 H s       :     0.741985  s :     0.741985
      pz      :     0.072178  p :     0.253635
      px      :     0.060361
      py      :     0.121095
      dz2     :     0.005752  d :     0.061812
      dxz     :     0.000820
      dyz     :     0.020555
      dx2y2   :     0.016070
      dxy     :     0.018615
 29 H s       :     0.749117  s :     0.749117
      pz      :     0.098326  p :     0.254238
      px      :     0.103065
      py      :     0.052846
      dz2     :     0.014092  d :     0.061416
      dxz     :     0.013436
      dyz     :     0.008556
      dx2y2   :     0.013615
      dxy     :     0.011717
 30 H s       :     0.832837  s :     0.832837
      pz      :     0.054622  p :     0.148653
      px      :     0.044944
      py      :     0.049087
      dz2     :     0.006270  d :     0.028448
      dxz     :     0.006053
      dyz     :     0.006222
      dx2y2   :     0.004164
      dxy     :     0.005738
 31 H s       :     0.844555  s :     0.844555
      pz      :     0.057755  p :     0.157609
      px      :     0.061732
      py      :     0.038122
      dz2     :     0.006192  d :     0.027543
      dxz     :     0.006578
      dyz     :     0.004567
      dx2y2   :     0.005108
      dxy     :     0.005097
 32 H s       :     0.842960  s :     0.842960
      pz      :     0.036112  p :     0.151367
      px      :     0.039019
      py      :     0.076236
      dz2     :     0.002640  d :     0.026452
      dxz     :     0.000508
      dyz     :     0.007622
      dx2y2   :     0.007772
      dxy     :     0.007909
 33 H s       :     0.848324  s :     0.848324
      pz      :     0.058681  p :     0.159096
      px      :     0.049861
      py      :     0.050554
      dz2     :     0.006593  d :     0.027758
      dxz     :     0.004998
      dyz     :     0.006273
      dx2y2   :     0.005125
      dxy     :     0.004769
 34 H s       :     0.706197  s :     0.706197
      pz      :     0.109966  p :     0.347618
      px      :     0.091130
      py      :     0.146523
      dz2     :     0.023359  d :     0.099525
      dxz     :     0.012429
      dyz     :     0.024134
      dx2y2   :     0.019496
      dxy     :     0.020107
 35 H s       :     0.838300  s :     0.838300
      pz      :     0.037853  p :     0.157303
      px      :     0.041710
      py      :     0.077741
      dz2     :     0.002714  d :     0.028051
      dxz     :     0.000525
      dyz     :     0.008337
      dx2y2   :     0.007990
      dxy     :     0.008486


                      *****************************
                      * MAYER POPULATION ANALYSIS *
                      *****************************

  NA   - Mulliken gross atomic population
  ZA   - Total nuclear charge
  QA   - Mulliken gross atomic charge
  VA   - Mayer's total valence
  BVA  - Mayer's bonded valence
  FA   - Mayer's free valence

  ATOM       NA         ZA         QA         VA         BVA        FA
  0 C      6.2646     6.0000    -0.2646     3.9015     3.9015    -0.0000
  1 C      5.9694     6.0000     0.0306     3.8300     3.8300     0.0000
  2 O      8.3724     8.0000    -0.3724     2.0280     2.0280     0.0000
  3 C      5.5325     6.0000     0.4675     4.2307     4.2307     0.0000
  4 O      8.4217     8.0000    -0.4217     2.0861     2.0861     0.0000
  5 C      6.2481     6.0000    -0.2481     3.6656     3.6656    -0.0000
  6 C      5.8393     6.0000     0.1607     3.8722     3.8722    -0.0000
  7 C      6.2702     6.0000    -0.2702     3.9041     3.9041    -0.0000
  8 N      7.1234     7.0000    -0.1234     3.3093     3.3093     0.0000
  9 C      5.7865     6.0000     0.2135     4.1509     4.1509    -0.0000
 10 S     16.4397    16.0000    -0.4397     1.7546     1.7546     0.0000
 11 N      7.2071     7.0000    -0.2071     3.2488     3.2488     0.0000
 12 C      5.9295     6.0000     0.0705     3.9294     3.9294    -0.0000
 13 C      5.9418     6.0000     0.0582     3.7084     3.7084    -0.0000
 14 C      6.2002     6.0000    -0.2002     3.8417     3.8417     0.0000
 15 C      6.1302     6.0000    -0.1302     3.7943     3.7943    -0.0000
 16 C      6.2789     6.0000    -0.2789     3.7911     3.7911    -0.0000
 17 C      5.6863     6.0000     0.3137     3.8789     3.8789    -0.0000
 18 O      8.3556     8.0000    -0.3556     2.1205     2.1205    -0.0000
 19 C      6.2604     6.0000    -0.2604     3.8502     3.8502    -0.0000
 20 H      0.8956     1.0000     0.1044     0.9880     0.9880     0.0000
 21 H      0.9119     1.0000     0.0881     0.9835     0.9835    -0.0000
 22 H      0.9097     1.0000     0.0903     0.9847     0.9847    -0.0000
 23 H      0.8962     1.0000     0.1038     0.9904     0.9904    -0.0000
 24 H      0.8848     1.0000     0.1152     0.9666     0.9666     0.0000
 25 H      0.8679     1.0000     0.1321     0.9797     0.9797     0.0000
 26 H      0.8694     1.0000     0.1306     0.9810     0.9810    -0.0000
 27 H      0.9046     1.0000     0.0954     0.9859     0.9859    -0.0000
 28 H      0.8023     1.0000     0.1977     1.0224     1.0224    -0.0000
 29 H      0.8048     1.0000     0.1952     1.0187     1.0187     0.0000
 30 H      0.8502     1.0000     0.1498     0.9928     0.9928    -0.0000
 31 H      0.8480     1.0000     0.1520     0.9847     0.9847     0.0000
 32 H      0.8366     1.0000     0.1634     0.9761     0.9761    -0.0000
 33 H      0.8680     1.0000     0.1320     0.9913     0.9913    -0.0000
 34 H      0.7588     1.0000     0.2412     1.0103     1.0103     0.0000
 35 H      0.8334     1.0000     0.1666     0.9861     0.9861    -0.0000

  Mayer bond orders larger than 0.100000
B(  0-C ,  1-C ) :   0.9818 B(  0-C , 20-H ) :   0.9784 B(  0-C , 21-H ) :   0.9768 
B(  0-C , 22-H ) :   0.9790 B(  1-C ,  2-O ) :   0.8723 B(  1-C , 23-H ) :   0.9723 
B(  1-C , 24-H ) :   0.9710 B(  2-O ,  3-C ) :   1.1322 B(  3-C ,  4-O ) :   1.9898 
B(  3-C ,  5-C ) :   1.0670 B(  5-C ,  6-C ) :   1.6496 B(  5-C , 12-C ) :   0.9704 
B(  6-C ,  7-C ) :   0.9665 B(  6-C ,  8-N ) :   1.1612 B(  7-C , 25-H ) :   0.9594 
B(  7-C , 26-H ) :   0.9610 B(  7-C , 27-H ) :   0.9905 B(  8-N ,  9-C ) :   1.1832 
B(  8-N , 28-H ) :   0.9477 B(  9-C , 10-S ) :   1.6064 B(  9-C , 11-N ) :   1.3066 
B( 11-N , 12-C ) :   0.9795 B( 11-N , 29-H ) :   0.9517 B( 12-C , 13-C ) :   0.9372 
B( 12-C , 30-H ) :   1.0020 B( 13-C , 14-C ) :   1.3506 B( 13-C , 19-C ) :   1.3810 
B( 14-C , 15-C ) :   1.3901 B( 14-C , 31-H ) :   0.9733 B( 15-C , 16-C ) :   1.3603 
B( 15-C , 32-H ) :   0.9703 B( 16-C , 17-C ) :   1.3307 B( 16-C , 33-H ) :   0.9845 
B( 17-C , 18-O ) :   1.1123 B( 17-C , 19-C ) :   1.3713 B( 18-O , 34-H ) :   0.9794 
B( 19-C , 35-H ) :   0.9578 

-------
TIMINGS
-------

Total SCF time: 0 days 1 hours 40 min 24 sec 

Total time                  ....    6024.769 sec
Sum of individual times     ....    6016.785 sec  ( 99.9%)

Fock matrix formation       ....    6002.147 sec  ( 99.6%)
Diagonalization             ....       1.252 sec  (  0.0%)
Density matrix formation    ....       0.189 sec  (  0.0%)
Population analysis         ....       0.284 sec  (  0.0%)
Initial guess               ....       5.618 sec  (  0.1%)
Orbital Transformation      ....       0.000 sec  (  0.0%)
Orbital Orthonormalization  ....       0.000 sec  (  0.0%)
DIIS solution               ....       2.386 sec  (  0.0%)
SOSCF solution              ....       3.383 sec  (  0.1%)

Maximum memory used throughout the entire SCF-calculation: 735.5 MB

------------------------------------------------------------------------------
                                ORCA  MP2 
------------------------------------------------------------------------------

Freezing NCore=48 chemical core electrons

-------------
RI-MP2 ENERGY
-------------
Dimension of the basis                    ...  828
Memory devoted to MP2                     ...  256 MB   
Data format for buffers                   ... DOUBLE
Compression type for matrix containers    ... UNCOMPRESSED
Overall scaling of the MP2 energy         ...   1.000e+00
Calculating two index integrals           ... done (    0.041 sec)
Cholesky decomposition of V**-1           ... done (    0.553 sec)

-----------------
RI-TRANSFORMATION (AUX index driven)
-----------------

Dimension of the orbital-basis         ... 828
Dimension of the aux-basis             ... 2141
Transformation of internal/external MOs...   24-  76 to   77- 827
Number Format for Storage              ... Double (8 Byte)
Integral mode                          ... Direct

First Phase: integral generation and transformation of MO indices
  Aux angular momentum 0               ... done (    5.307 sec)
  Aux angular momentum 1               ... done (    9.615 sec)
  Aux angular momentum 2               ... done (   11.775 sec)
  Aux angular momentum 3               ... done (   11.682 sec)
  Aux angular momentum 4               ... done (    3.681 sec)
Closing buffer VIA ( 0.63 GB; CompressionRatio= 1.00)
  Phase 1 completed in    42.473 sec
Second Phase: sorting and transformation of aux index

IA-Transformation
Memory available                       ... 157 MB 
Max. # MO pairs treated in a batch     ... 11    
# of internal orbitals                 ... 53
# batches for internal orbitals        ... 5
Closing buffer IAV ( 0.63 GB; CompressionRatio= 1.00)
(ia|v) transformation done in    47.184 sec

  Phase 2 completed in    47.193 sec
RI-Integral transformation completed in    89.701 sec
Opening buffers                              ... done

Starting loop over batches of integrals:

Operator 0  - window                       ... ( 24- 76)x( 77-827)
Operator 0  - Memory available             ...   256 MB
Operator 0  - Memory needed per MO         ...  12.3 MB
Operator 0  - Number of orbitals per batch ... 13
Operator 0  - Number of batches            ... 5

OPERATOR  0   PASS   0:  MOs    24 ...   36
  Reading integrals       ... ok
  Internal MO  26
  Internal MO  29
  Internal MO  32
  Internal MO  35
OPERATOR  0   PASS   1:  MOs    37 ...   49
  Reading integrals       ... ok
  Internal MO  38
  Internal MO  41
  Internal MO  44
  Internal MO  47
OPERATOR  0   PASS   2:  MOs    50 ...   62
  Reading integrals       ... ok
  Internal MO  50
  Internal MO  53
  Internal MO  56
  Internal MO  59
  Internal MO  62
OPERATOR  0   PASS   3:  MOs    63 ...   75
  Reading integrals       ... ok
  Internal MO  65
  Internal MO  68
  Internal MO  71
  Internal MO  74
OPERATOR  0   PASS   4:  MOs    76 ...   76
  Reading integrals       ... ok
Time spent in pair loops =    83.118 sec
Deleting buffer (Ka|jb)[aa] ...done

-----------------------------------------------
 RI-MP2 CORRELATION ENERGY:     -3.531415547 Eh
-----------------------------------------------


-------
TIMINGS
-------

Total time                :  173.803 sec
Integral trafo            :   89.720 sec ( 51.6%)
I/O of integrals          :    5.888 sec (  3.4%)
K(i,j) Operators          :   47.377 sec ( 27.3%)
T(i,j) pair energies      :    6.988 sec (  4.0%)
V-calculation             :    0.041 sec (  0.0%)
V**(-1/2)                 :    0.553 sec (  0.3%)
Gamma(ia|P)               :    0.000 sec (  0.0%)
Gamma-Trafo               :    0.000 sec (  0.0%)
D(virtual)                :    0.000 sec (  0.0%)
D(internal)               :    0.000 sec (  0.0%)
W(virtual)                :    0.000 sec (  0.0%)
W(internal)               :    0.000 sec (  0.0%)
L(virtual)                :    0.000 sec (  0.0%)
L(internal)               :    0.000 sec (  0.0%)
G(D)                      :    0.000 sec (  0.0%)
G(Z)                      :    0.000 sec (  0.0%)
Z-Vector Solution         :    0.000 sec (  0.0%)
3-Index Derivative        :    0.000 sec (  0.0%)
2-Index Derivative        :    0.000 sec (  0.0%)
Separable Gradient        :    0.000 sec (  0.0%)


---------------------------------------
MP2 TOTAL ENERGY:    -1274.341158481 Eh
---------------------------------------

Maximum memory used throughout the entire MP2-calculation: 304.2 MB

-------------------------   --------------------
FINAL SINGLE POINT ENERGY     -1274.341158481445
-------------------------   --------------------


                            ***************************************
                            *     ORCA property calculations      *
                            ***************************************


  WARNING: The energy has been calculated at the MP2 level but the densities
           used in the property calculations are still SCF densities
           MP2 response densities have not been calculated 
           use %mp2 Density relaxed end
           or  %mp2 Density unrelaxed end

                                    ---------------------
                                    Active property flags
                                    ---------------------
   (+) Dipole Moment


------------------------------------------------------------------------------
                       ORCA ELECTRIC PROPERTIES CALCULATION
------------------------------------------------------------------------------

Dipole Moment Calculation                       ... on
Quadrupole Moment Calculation                   ... off
Polarizability Calculation                      ... off
GBWName                                         ... CONFS/Conf9.orca.gbw
Electron density file                           ... CONFS/Conf9.orca.scfp
The origin for moment calculation is the CENTER OF MASS  = (32.872927, 31.526912 35.333971)

-------------
DIPOLE MOMENT
-------------
                                X             Y             Z
Electronic contribution:      9.63310      10.62510       8.39138
Nuclear contribution   :    -10.66266     -12.20429      -8.53075
                        -----------------------------------------
Total Dipole Moment    :     -1.02956      -1.57918      -0.13937
                        -----------------------------------------
Magnitude (a.u.)       :      1.89030
Magnitude (Debye)      :      4.80476



--------------------
Rotational spectrum 
--------------------
 
Rotational constants in cm-1:     0.012048     0.008528     0.006185 
Rotational constants in MHz :   361.195754   255.670058   185.424890 

 Dipole components along the rotational axes: 
x,y,z [a.u.] :    -1.876990    -0.206288     0.087126 
x,y,z [Debye]:    -4.770929    -0.524341     0.221458 

 

Timings for individual modules:

Sum of individual times         ...     6202.743 sec (= 103.379 min)
GTO integral calculation        ...        2.632 sec (=   0.044 min)   0.0 %
SCF iterations                  ...     6024.935 sec (= 100.416 min)  97.1 %
MP2 module                      ...      175.176 sec (=   2.920 min)   2.8 %
                             ****ORCA TERMINATED NORMALLY****
TOTAL RUN TIME: 0 days 1 hours 43 minutes 24 seconds 197 msec
