
                                 *****************
                                 * O   R   C   A *
                                 *****************

           --- An Ab Initio, DFT and Semiempirical electronic structure package ---

                  #######################################################
                  #                        -***-                        #
                  #          Department of theory and spectroscopy      #
                  #               Directorship: Frank Neese             #
                  #        Max Planck Institute fuer Kohlenforschung    #
                  #                Kaiser Wilhelm Platz 1               #
                  #                 D-45470 Muelheim/Ruhr               #
                  #                      Germany                        #
                  #                                                     #
                  #                  All rights reserved                #
                  #                        -***-                        #
                  #######################################################


                         Program Version 4.2.0 -  RELEASE  -


 With contributions from (in alphabetic order):
   Daniel Aravena         : Magnetic Suceptibility
   Michael Atanasov       : Ab Initio Ligand Field Theory (pilot matlab implementation)
   Alexander A. Auer      : GIAO ZORA, VPT2
   Ute Becker             : Parallelization
   Giovanni Bistoni       : ED, misc. LED, open-shell LED, HFLED
   Martin Brehm           : Molecular dynamics
   Dmytro Bykov           : SCF Hessian
   Vijay G. Chilkuri      : MRCI spin determinant printing, contributions to CSF-ICE
   Dipayan Datta          : RHF DLPNO-CCSD density
   Achintya Kumar Dutta   : EOM-CC, STEOM-CC
   Dmitry Ganyushin       : Spin-Orbit,Spin-Spin,Magnetic field MRCI
   Miquel Garcia          : C-PCM Hessian, Gaussian charge scheme
   Yang Guo               : DLPNO-NEVPT2, CIM, IAO-localization
   Andreas Hansen         : Spin unrestricted coupled pair/coupled cluster methods
   Benjamin Helmich-Paris : CASSCF linear response (MC-RPA)
   Lee Huntington         : MR-EOM, pCC
   Robert Izsak           : Overlap fitted RIJCOSX, COSX-SCS-MP3, EOM
   Christian Kollmar      : KDIIS, OOCD, Brueckner-CCSD(T), CCSD density
   Simone Kossmann        : Meta GGA functionals, TD-DFT gradient, OOMP2, MP2 Hessian
   Martin Krupicka        : AUTO-CI
   Lucas Lang             : DCDCAS
   Dagmar Lenk            : GEPOL surface, SMD
   Dimitrios Liakos       : Extrapolation schemes; Compound Job, initial MDCI parallelization
   Dimitrios Manganas     : Further ROCIS development; embedding schemes
   Dimitrios Pantazis     : SARC Basis sets
   Taras Petrenko         : DFT Hessian,TD-DFT gradient, ASA, ECA, R-Raman, ABS, FL, XAS/XES, NRVS
   Peter Pinski           : DLPNO-MP2, DLPNO-MP2 Gradient
   Christoph Reimann      : Effective Core Potentials
   Marius Retegan         : Local ZFS, SOC
   Christoph Riplinger    : Optimizer, TS searches, QM/MM, DLPNO-CCSD(T), (RO)-DLPNO pert. Triples
   Tobias Risthaus        : Range-separated hybrids, TD-DFT gradient, RPA, STAB
   Michael Roemelt        : Original ROCIS implementation
   Masaaki Saitow         : Open-shell DLPNO-CCSD energy and density
   Barbara Sandhoefer     : DKH picture change effects
   Avijit Sen             : IP-ROCIS
   Kantharuban Sivalingam : CASSCF convergence, NEVPT2, FIC-MRCI
   Bernardo de Souza      : ESD, SOC TD-DFT
   Georgi Stoychev        : AutoAux, RI-MP2 NMR
   Willem Van den Heuvel  : Paramagnetic NMR
   Boris Wezisla          : Elementary symmetry handling
   Frank Wennmohs         : Technical directorship


 We gratefully acknowledge several colleagues who have allowed us to
 interface, adapt or use parts of their codes:
   Stefan Grimme, W. Hujo, H. Kruse,             : VdW corrections, initial TS optimization,
                  C. Bannwarth                     DFT functionals, gCP, sTDA/sTD-DF
   Ed Valeev, F. Pavosevic, A. Kumar             : LibInt (2-el integral package), F12 methods
   Garnet Chan, S. Sharma, J. Yang, R. Olivares  : DMRG
   Ulf Ekstrom                                   : XCFun DFT Library
   Mihaly Kallay                                 : mrcc  (arbitrary order and MRCC methods)
   Andreas Klamt, Michael Diedenhofen            : otool_cosmo (COSMO solvation model)
   Jiri Pittner, Ondrej Demel                    : Mk-CCSD
   Frank Weinhold                                : gennbo (NPA and NBO analysis)
   Christopher J. Cramer and Donald G. Truhlar   : smd solvation model
   Lars Goerigk                                  : TD-DFT with DH, B97 family of functionals
   V. Asgeirsson, H. Jonsson                     : NEB implementation
   FAccTs GmbH                                   : IRC, NEB, NEB-TS, Multilevel, MM, QM/MM, CI optimization
   S Lehtola, MJT Oliveira, MAL Marques          : LibXC Library


 Your calculation uses the libint2 library for the computation of 2-el integrals
 For citations please refer to: http://libint.valeyev.net

 Your ORCA version has been built with support for libXC version: 4.2.3
 For citations please refer to: https://tddft.org/programs/libxc/

 This ORCA versions uses:
   CBLAS   interface :  Fast vector & matrix operations
   LAPACKE interface :  Fast linear algebra routines
   SCALAPACK package :  Parallel linear algebra routines


----- Orbital basis set information -----
Your calculation utilizes the basis: cc-pVTZ 
       H, B-Ne : Obtained from the ccRepo (grant-hill.group.shef.ac.uk/ccrepo) Feb. 2017
                 T. H. Dunning, Jr., J. Chem. Phys. 90, 1007 (1989)
            He : Obtained from the ccRepo (grant-hill.group.shef.ac.uk/ccrepo) Feb. 2017
                 D. E. Woon, T. H. Dunning, Jr., J. Chem. Phys. 100, 2975 (1994)
  Li-Be, Na-Mg : Obtained from the ccRepo (grant-hill.group.shef.ac.uk/ccrepo) Feb. 2017
                 B. P. Prascher, D. E. Woon, K. A. Peterson, T. H. Dunning, Jr., A. K. Wilson, Theor. Chem. Acc. 128, 69 (2011)
         Al-Ar : Obtained from the ccRepo (grant-hill.group.shef.ac.uk/ccrepo) Feb. 2017
                 D. E. Woon, T. H. Dunning, Jr., J. Chem. Phys. 98, 1358 (1993)
            Ca : Obtained from the Peterson Research Group Website (tyr0.chem.wsu.edu/~kipeters) Feb. 2017
                 J. Koput, K. A. Peterson, J. Phys. Chem. 106, 9595 (2002)
         Sc-Zn : Obtained from the ccRepo (grant-hill.group.shef.ac.uk/ccrepo) Feb. 2017
                 N. B. Balabanov, K. A. Peterson, J. Chem. Phys. 123, 064107 (2005)
                 N. B. Balabanov, K. A. Peterson, J. Chem. Phys. 125, 074110 (2006)
         Ga-Kr : Obtained from the ccRepo (grant-hill.group.shef.ac.uk/ccrepo) Feb. 2017
                 A. K. Wilson, D. E. Woon, K. A. Peterson, T. H. Dunning, Jr., J. Chem. Phys. 110, 7667 (1999)
             Y : Obtained from the ccRepo (grant-hill.group.shef.ac.uk/ccrepo) Feb. 2017
                 K. A. Peterson, D. Figgen, M. Dolg, H. Stoll, J. Chem. Phys. 126, 124101 (2007)
        Ag, Au : Obtained from the Peterson Research Group Website (tyr0.chem.wsu.edu/~kipeters) Feb. 2017
                 K. A. Peterson, C. Puzzarini, Theor. Chem. Acc. 114, 283 (2005)

----- AuxC basis set information -----
Your calculation utilizes the auxiliary basis: cc-pVTZ/C 
  Obtained from the EMSL Basis Set Exchange (bse.pnl.gov) Feb. 2017
  H-He, B-F, Al-Ar, Ga-Kr : F. Weigend, A. Kohn, C. Hattig, J. Chem. Phys. 116, 3175 (2002)
             Li-Be, Na-Mg : C. Haettig, Phys. Chem. Chem. Phys. 7, 59 (2005)
                       Ne : C. Haettig, Phys. Chem. Chem. Phys. 7, 59 (2005)
                            F. Weigend, A. Kohn, C. Hattig, J. Chem. Phys. 116, 3175 (2002)
                    Sc-Zn : J. G. Hill, J. A. Platts, J. Chem. Phys. 128, 044104 (2008)

================================================================================
                                        WARNINGS
                       Please study these warnings very carefully!
================================================================================


WARNING: No MP2 level density has been requested!
         To caclulate MP2 level properties use
         %mp2 Density relaxed end
         or
         %mp2 Density unrelaxed end

WARNING: Post HF methods need fully converged wavefunctions
  ===> : Setting SCFConvForced true
         You can overwrite this default with %scf ConvForced false 


INFO   : the flag for use of LIBINT has been found!

================================================================================
                                       INPUT FILE
================================================================================
NAME = CONFS/Conf6.orca
|  1> ! ri-mp2 cc-pvtz cc-pvtz/c TightSCF NoKeepInts
|  2> 
|  3> %scf
|  4>   MaxCore 4096
|  5> end
|  6> *xyz  0  1
|  7>     C       14.9860396   14.4146889   16.7009566
|  8>     C       16.4689887   13.9880121   16.6137972
|  9>     O       17.4098803   15.0847339   16.4856182
| 10>     C       17.0493776   16.3992629   16.3615623
| 11>     O       16.2624336   16.7807381   15.5129737
| 12>     C       17.6835650   17.2835369   17.4005589
| 13>     C       17.4983136   18.6283129   17.4208843
| 14>     C       16.6687118   19.4551057   16.4617649
| 15>     N       18.1323608   19.4098955   18.3910578
| 16>     C       19.0294897   18.9414718   19.3128745
| 17>     S       19.7966635   19.9480466   20.3778894
| 18>     N       19.2642752   17.5905834   19.3069686
| 19>     C       18.5504516   16.6051545   18.4753348
| 20>     C       17.7438238   15.6723396   19.3740566
| 21>     C       18.2278943   14.3849013   19.6730709
| 22>     C       17.4869197   13.5142180   20.4897642
| 23>     C       16.2534754   13.9353715   21.0150912
| 24>     C       15.7736919   15.2206447   20.7283708
| 25>     O       14.5840386   15.6310010   21.2350536
| 26>     C       16.5137542   16.0854793   19.9165062
| 27>     H       14.8298126   15.1484574   17.5016156
| 28>     H       14.3564170   13.5438141   16.9188428
| 29>     H       14.6379427   14.8426713   15.7526290
| 30>     H       16.7207298   13.4116134   17.5128970
| 31>     H       16.5890492   13.3155347   15.7546827
| 32>     H       15.6165678   19.1445753   16.4960449
| 33>     H       17.0169481   19.3146219   15.4304631
| 34>     H       16.7042697   20.5291432   16.6784437
| 35>     H       17.9742539   20.4047540   18.4089056
| 36>     H       19.9023269   17.2713428   20.0243906
| 37>     H       19.3102749   16.0071495   17.9524790
| 38>     H       19.1799464   14.0557594   19.2649796
| 39>     H       17.8691179   12.5197746   20.7144638
| 40>     H       15.6774346   13.2667653   21.6465272
| 41>     H       14.2502432   14.9237410   21.8073573
| 42>     H       16.1275162   17.0787837   19.7151233
| 43> *
| 44> 
| 45>                          ****END OF INPUT****
================================================================================

                       ****************************
                       * Single Point Calculation *
                       ****************************

---------------------------------
CARTESIAN COORDINATES (ANGSTROEM)
---------------------------------
  C     14.986040   14.414689   16.700957
  C     16.468989   13.988012   16.613797
  O     17.409880   15.084734   16.485618
  C     17.049378   16.399263   16.361562
  O     16.262434   16.780738   15.512974
  C     17.683565   17.283537   17.400559
  C     17.498314   18.628313   17.420884
  C     16.668712   19.455106   16.461765
  N     18.132361   19.409896   18.391058
  C     19.029490   18.941472   19.312874
  S     19.796664   19.948047   20.377889
  N     19.264275   17.590583   19.306969
  C     18.550452   16.605155   18.475335
  C     17.743824   15.672340   19.374057
  C     18.227894   14.384901   19.673071
  C     17.486920   13.514218   20.489764
  C     16.253475   13.935372   21.015091
  C     15.773692   15.220645   20.728371
  O     14.584039   15.631001   21.235054
  C     16.513754   16.085479   19.916506
  H     14.829813   15.148457   17.501616
  H     14.356417   13.543814   16.918843
  H     14.637943   14.842671   15.752629
  H     16.720730   13.411613   17.512897
  H     16.589049   13.315535   15.754683
  H     15.616568   19.144575   16.496045
  H     17.016948   19.314622   15.430463
  H     16.704270   20.529143   16.678444
  H     17.974254   20.404754   18.408906
  H     19.902327   17.271343   20.024391
  H     19.310275   16.007150   17.952479
  H     19.179946   14.055759   19.264980
  H     17.869118   12.519775   20.714464
  H     15.677435   13.266765   21.646527
  H     14.250243   14.923741   21.807357
  H     16.127516   17.078784   19.715123

----------------------------
CARTESIAN COORDINATES (A.U.)
----------------------------
  NO LB      ZA    FRAG     MASS         X           Y           Z
   0 C     6.0000    0    12.011   28.319511   27.239814   31.560234
   1 C     6.0000    0    12.011   31.121878   26.433512   31.395527
   2 O     8.0000    0    15.999   32.899906   28.506016   31.153304
   3 C     6.0000    0    12.011   32.218654   30.990116   30.918872
   4 O     8.0000    0    15.999   30.731546   31.710999   29.315272
   5 C     6.0000    0    12.011   33.417095   32.661151   32.882291
   6 C     6.0000    0    12.011   33.067021   35.202410   32.920700
   7 C     6.0000    0    12.011   31.499300   36.764822   31.108227
   8 N     7.0000    0    14.007   34.265196   36.679387   34.754063
   9 C     6.0000    0    12.011   35.960524   35.794194   36.496044
  10 S    16.0000    0    32.060   37.410272   37.696345   38.508630
  11 N     7.0000    0    14.007   36.404204   33.241385   36.484883
  12 C     6.0000    0    12.011   35.055273   31.379194   34.913323
  13 C     6.0000    0    12.011   33.530968   29.616430   36.611661
  14 C     6.0000    0    12.011   34.445728   27.183524   37.176716
  15 C     6.0000    0    12.011   33.045489   25.538171   38.720043
  16 C     6.0000    0    12.011   30.714617   26.334036   39.712767
  17 C     6.0000    0    12.011   29.807958   28.762850   39.170944
  18 O     8.0000    0    15.999   27.559839   29.538311   40.128436
  19 C     6.0000    0    12.011   31.206473   30.397151   37.636742
  20 H     1.0000    0     1.008   28.024284   28.626436   33.073260
  21 H     1.0000    0     1.008   27.129696   25.594099   31.971979
  22 H     1.0000    0     1.008   27.661703   28.048584   29.768155
  23 H     1.0000    0     1.008   31.597600   25.344276   33.094579
  24 H     1.0000    0     1.008   31.348760   25.162714   29.772036
  25 H     1.0000    0     1.008   29.511036   36.178004   31.173007
  26 H     1.0000    0     1.008   32.157372   36.499346   29.159349
  27 H     1.0000    0     1.008   31.566495   38.794458   31.517691
  28 H     1.0000    0     1.008   33.966417   38.559397   34.787790
  29 H     1.0000    0     1.008   37.609947   32.638108   37.840614
  30 H     1.0000    0     1.008   36.491131   30.249129   33.925269
  31 H     1.0000    0     1.008   36.244846   26.561536   36.405535
  32 H     1.0000    0     1.008   33.767739   23.658945   39.144664
  33 H     1.0000    0     1.008   29.626058   25.070553   40.906008
  34 H     1.0000    0     1.008   26.929057   28.201783   41.209933
  35 H     1.0000    0     1.008   30.476589   32.274224   37.256184

--------------------------------
INTERNAL COORDINATES (ANGSTROEM)
--------------------------------
 C      0   0   0     0.000000000000     0.00000000     0.00000000
 C      1   0   0     1.545570407926     0.00000000     0.00000000
 O      2   1   0     1.450691409496   114.74506097     0.00000000
 C      3   2   1     1.368699585327   124.28130773   355.92435718
 O      4   3   2     1.218567519426   122.26777588   307.09148593
 C      4   3   2     1.504542488668   113.00798887   125.02845164
 C      6   4   3     1.357627965705   122.34353218   177.33358434
 C      7   6   4     1.513847913151   127.32062904     0.00000000
 N      7   6   4     1.397899793459   120.15352763   181.33742871
 C      9   7   6     1.368943773256   124.97843825     4.56562610
 S     10   9   7     1.654087423513   121.95748320   176.71565124
 N     10   9   7     1.371152281812   116.51534952   356.88732969
 C     12  10   9     1.473848372857   125.32588923   354.51749344
 C     13  12  10     1.525940011662   109.41549111   245.67098893
 C     14  13  12     1.407562139616   120.16276766   258.82096975
 C     15  14  13     1.405034061156   120.59167733   180.57544804
 C     16  15  14     1.405248578969   119.63474465   359.81846841
 C     17  16  15     1.401544859534   119.92283967   359.65511011
 O     18  17  16     1.356611487113   120.07810452   180.07221502
 C     18  17  16     1.398125610227   120.32090664     0.28195157
 H      1   2   3     1.097213708173   111.24686764   306.24415673
 H      1   2   3     1.096504414882   110.05314910   186.93084538
 H      1   2   3     1.097116959773   111.30760604    67.95241957
 H      2   1   3     1.097264550212   108.59883152   121.85125445
 H      2   1   3     1.097596511147   108.55608076   237.99631571
 H      8   7   6     1.097547832425   110.55011035    60.93110565
 H      8   7   6     1.097537070619   110.58182910   302.25085390
 H      8   7   6     1.096252989975   113.08422272   181.62903564
 H      9   7   6     1.007501747301   119.55187931   181.19298063
 H     12  10   9     1.011789928120   114.56879069   182.41145289
 H     13  12  10     1.099235923195   107.29840812   128.45595388
 H     15  14  13     1.086865263308   119.89928257     0.17592560
 H     16  15  14     1.088798902519   120.05437608   179.92653368
 H     17  16  15     1.085158364498   119.92107626   180.01079446
 H     19  18  17     0.969106599758   107.56903133     3.49108433
 H     20  18  17     1.084614445836   119.06572639   180.54724784

---------------------------
INTERNAL COORDINATES (A.U.)
---------------------------
 C      0   0   0     0.000000000000     0.00000000     0.00000000
 C      1   0   0     2.920704791674     0.00000000     0.00000000
 O      2   1   0     2.741409468780   114.74506097     0.00000000
 C      3   2   1     2.586467375879   124.28130773   355.92435718
 O      4   3   2     2.302758887408   122.26777588   307.09148593
 C      4   3   2     2.843173260430   113.00798887   125.02845164
 C      6   4   3     2.565545046934   122.34353218   177.33358434
 C      7   6   4     2.860757964263   127.32062904     0.00000000
 N      7   6   4     2.641647772303   120.15352763   181.33742871
 C      9   7   6     2.586928824190   124.97843825     4.56562610
 S     10   9   7     3.125772232003   121.95748320   176.71565124
 N     10   9   7     2.591102300527   116.51534952   356.88732969
 C     12  10   9     2.785169787626   125.32588923   354.51749344
 C     13  12  10     2.883608718833   109.41549111   245.67098893
 C     14  13  12     2.659906960351   120.16276766   258.82096975
 C     15  14  13     2.655129584416   120.59167733   180.57544804
 C     16  15  14     2.655534964333   119.63474465   359.81846841
 C     17  16  15     2.648535948925   119.92283967   359.65511011
 O     18  17  16     2.563624180775   120.07810452   180.07221502
 C     18  17  16     2.642074504150   120.32090664     0.28195157
 H      1   2   3     2.073433418831   111.24686764   306.24415673
 H      1   2   3     2.072093048763   110.05314910   186.93084538
 H      1   2   3     2.073250590851   111.30760604    67.95241957
 H      2   1   3     2.073529496360   108.59883152   121.85125445
 H      2   1   3     2.074156811615   108.55608076   237.99631571
 H      8   7   6     2.074064822162   110.55011035    60.93110565
 H      8   7   6     2.074044485296   110.58182910   302.25085390
 H      8   7   6     2.071617924544   113.08422272   181.62903564
 H      9   7   6     1.903902381846   119.55187931   181.19298063
 H     12  10   9     1.912005869207   114.56879069   182.41145289
 H     13  12  10     2.077254851406   107.29840812   128.45595388
 H     15  14  13     2.053877692124   119.89928257     0.17592560
 H     16  15  14     2.057531740675   120.05437608   179.92653368
 H     17  16  15     2.050652120834   119.92107626   180.01079446
 H     19  18  17     1.831346068119   107.56903133     3.49108433
 H     20  18  17     2.049624263524   119.06572639   180.54724784

---------------------
BASIS SET INFORMATION
---------------------
There are 5 groups of distinct atoms

 Group   1 Type C   : 18s5p2d1f contracted to 4s3p2d1f pattern {8811/311/11/1}
 Group   2 Type O   : 18s5p2d1f contracted to 4s3p2d1f pattern {8811/311/11/1}
 Group   3 Type N   : 18s5p2d1f contracted to 4s3p2d1f pattern {8811/311/11/1}
 Group   4 Type S   : 41s16p2d1f contracted to 5s4p2d1f pattern {13131311/7711/11/1}
 Group   5 Type H   : 5s2p1d contracted to 3s2p1d pattern {311/11/1}

Atom   0C    basis set group =>   1
Atom   1C    basis set group =>   1
Atom   2O    basis set group =>   2
Atom   3C    basis set group =>   1
Atom   4O    basis set group =>   2
Atom   5C    basis set group =>   1
Atom   6C    basis set group =>   1
Atom   7C    basis set group =>   1
Atom   8N    basis set group =>   3
Atom   9C    basis set group =>   1
Atom  10S    basis set group =>   4
Atom  11N    basis set group =>   3
Atom  12C    basis set group =>   1
Atom  13C    basis set group =>   1
Atom  14C    basis set group =>   1
Atom  15C    basis set group =>   1
Atom  16C    basis set group =>   1
Atom  17C    basis set group =>   1
Atom  18O    basis set group =>   2
Atom  19C    basis set group =>   1
Atom  20H    basis set group =>   5
Atom  21H    basis set group =>   5
Atom  22H    basis set group =>   5
Atom  23H    basis set group =>   5
Atom  24H    basis set group =>   5
Atom  25H    basis set group =>   5
Atom  26H    basis set group =>   5
Atom  27H    basis set group =>   5
Atom  28H    basis set group =>   5
Atom  29H    basis set group =>   5
Atom  30H    basis set group =>   5
Atom  31H    basis set group =>   5
Atom  32H    basis set group =>   5
Atom  33H    basis set group =>   5
Atom  34H    basis set group =>   5
Atom  35H    basis set group =>   5
---------------------------------
AUXILIARY/C BASIS SET INFORMATION
---------------------------------
There are 5 groups of distinct atoms

 Group   1 Type C   : 8s6p5d3f1g contracted to 8s6p5d3f1g pattern {11111111/111111/11111/111/1}
 Group   2 Type O   : 8s6p5d3f1g contracted to 8s6p5d3f1g pattern {11111111/111111/11111/111/1}
 Group   3 Type N   : 8s6p5d3f1g contracted to 8s6p5d3f1g pattern {11111111/111111/11111/111/1}
 Group   4 Type S   : 10s8p7d5f2g contracted to 10s8p7d5f2g pattern {1111111111/11111111/1111111/11111/11}
 Group   5 Type H   : 4s3p2d1f contracted to 4s3p2d1f pattern {1111/111/11/1}

Atom   0C    basis set group =>   1
Atom   1C    basis set group =>   1
Atom   2O    basis set group =>   2
Atom   3C    basis set group =>   1
Atom   4O    basis set group =>   2
Atom   5C    basis set group =>   1
Atom   6C    basis set group =>   1
Atom   7C    basis set group =>   1
Atom   8N    basis set group =>   3
Atom   9C    basis set group =>   1
Atom  10S    basis set group =>   4
Atom  11N    basis set group =>   3
Atom  12C    basis set group =>   1
Atom  13C    basis set group =>   1
Atom  14C    basis set group =>   1
Atom  15C    basis set group =>   1
Atom  16C    basis set group =>   1
Atom  17C    basis set group =>   1
Atom  18O    basis set group =>   2
Atom  19C    basis set group =>   1
Atom  20H    basis set group =>   5
Atom  21H    basis set group =>   5
Atom  22H    basis set group =>   5
Atom  23H    basis set group =>   5
Atom  24H    basis set group =>   5
Atom  25H    basis set group =>   5
Atom  26H    basis set group =>   5
Atom  27H    basis set group =>   5
Atom  28H    basis set group =>   5
Atom  29H    basis set group =>   5
Atom  30H    basis set group =>   5
Atom  31H    basis set group =>   5
Atom  32H    basis set group =>   5
Atom  33H    basis set group =>   5
Atom  34H    basis set group =>   5
Atom  35H    basis set group =>   5
------------------------------------------------------------------------------
                           ORCA GTO INTEGRAL CALCULATION
------------------------------------------------------------------------------

                         BASIS SET STATISTICS AND STARTUP INFO

 # of primitive gaussian shells          ...  682
 # of primitive gaussian functions       ... 1312
 # of contracted shells                  ...  298
 # of contracted basis functions         ...  828
 Highest angular momentum                ...    3
 Maximum contraction depth               ...   13
 Integral package used                   ... LIBINT
 Integral threshhold            Thresh   ...  2.500e-11
 Primitive cut-off              TCut     ...  2.500e-12


------------------------------ INTEGRAL EVALUATION ----------------------------


 * One electron integrals 
 Pre-screening matrix                    ... done
 Shell pair data                         ... done (   0.013 sec)

-------------------------------------------------------------------------------
                                 ORCA SCF
-------------------------------------------------------------------------------

------------
SCF SETTINGS
------------
Hamiltonian:
 Ab initio Hamiltonian  Method          .... Hartree-Fock(GTOs)


General Settings:
 Integral files         IntName         .... CONFS/Conf6.orca
 Hartree-Fock type      HFTyp           .... RHF
 Total Charge           Charge          ....    0
 Multiplicity           Mult            ....    1
 Number of Electrons    NEL             ....  154
 Basis Dimension        Dim             ....  828
 Nuclear Repulsion      ENuc            ....   1724.3459706464 Eh

Convergence Acceleration:
 DIIS                   CNVDIIS         .... on
   Start iteration      DIISMaxIt       ....    12
   Startup error        DIISStart       ....  0.200000
   # of expansion vecs  DIISMaxEq       ....     5
   Bias factor          DIISBfac        ....   1.050
   Max. coefficient     DIISMaxC        ....  10.000
 Newton-Raphson         CNVNR           .... off
 SOSCF                  CNVSOSCF        .... on
   Start iteration      SOSCFMaxIt      ....   150
   Startup grad/error   SOSCFStart      ....  0.003300
 Level Shifting         CNVShift        .... on
   Level shift para.    LevelShift      ....    0.2500
   Turn off err/grad.   ShiftErr        ....    0.0010
 Zerner damping         CNVZerner       .... off
 Static damping         CNVDamp         .... on
   Fraction old density DampFac         ....    0.7000
   Max. Damping (<1)    DampMax         ....    0.9800
   Min. Damping (>=0)   DampMin         ....    0.0000
   Turn off err/grad.   DampErr         ....    0.1000
 Fernandez-Rico         CNVRico         .... off

SCF Procedure:
 Maximum # iterations   MaxIter         ....   125
 SCF integral mode      SCFMode         .... Direct
   Integral package                     .... LIBINT
 Reset frequency        DirectResetFreq ....    20
 Integral Threshold     Thresh          ....  2.500e-11 Eh
 Primitive CutOff       TCut            ....  2.500e-12 Eh

Convergence Tolerance:
 Convergence Check Mode ConvCheckMode   .... Total+1el-Energy
 Convergence forced     ConvForced      .... 1
 Energy Change          TolE            ....  1.000e-08 Eh
 1-El. energy change                    ....  1.000e-05 Eh
 Orbital Gradient       TolG            ....  1.000e-05
 Orbital Rotation angle TolX            ....  1.000e-05
 DIIS Error             TolErr          ....  5.000e-07


Diagonalization of the overlap matrix:
Smallest eigenvalue                        ... 3.218e-05
Time for diagonalization                   ...    0.107 sec
Threshold for overlap eigenvalues          ... 1.000e-08
Number of eigenvalues below threshold      ... 0
Time for construction of square roots      ...    0.320 sec
Total time needed                          ...    0.430 sec

-------------------
DFT GRID GENERATION
-------------------

General Integration Accuracy     IntAcc      ...  4.340
Radial Grid Type                 RadialGrid  ... Gauss-Chebyshev
Angular Grid (max. acc.)         AngularGrid ... Lebedev-110
Angular grid pruning method      GridPruning ... 3 (G Style)
Weight generation scheme         WeightScheme... Becke
Basis function cutoff            BFCut       ...    1.0000e-11
Integration weight cutoff        WCut        ...    1.0000e-14
Grids for H and He will be reduced by one unit

# of grid points (after initial pruning)     ...  46246 (   0.0 sec)
# of grid points (after weights+screening)   ...  41156 (   0.3 sec)
nearest neighbour list constructed           ...    0.0 sec
Grid point re-assignment to atoms done       ...    0.0 sec
Grid point division into batches done        ...    0.0 sec
Reduced shell lists constructed in    1.0 sec

Total number of grid points                  ...    41156
Total number of batches                      ...      664
Average number of points per batch           ...       61
Average number of grid points per atom       ...     1143
Average number of shells per batch           ...   152.83 (51.29%)
Average number of basis functions per batch  ...   388.99 (46.98%)
Average number of large shells per batch     ...    97.92 (64.07%)
Average number of large basis fcns per batch ...   250.71 (64.45%)
Maximum spatial batch extension              ...  22.67, 20.37, 20.58 au
Average spatial batch extension              ...   3.47,  3.39,  3.50 au

Time for grid setup =    1.306 sec

------------------------------
INITIAL GUESS: MODEL POTENTIAL
------------------------------
Loading Hartree-Fock densities                     ... done
Calculating cut-offs                               ... done
Setting up the integral package                    ... done
Initializing the effective Hamiltonian             ... done
Starting the Coulomb interaction                   ... done (   3.2 sec)
Reading the grid                                   ... done
Mapping shells                                     ... done
Starting the XC term evaluation                    ... done (   1.3 sec)
Transforming the Hamiltonian                       ... done (   0.0 sec)
Diagonalizing the Hamiltonian                      ... done (   0.1 sec)
Back transforming the eigenvectors                 ... done (   0.0 sec)
Now organizing SCF variables                       ... done
                      ------------------
                      INITIAL GUESS DONE (   6.7 sec)
                      ------------------
--------------
SCF ITERATIONS
--------------
ITER       Energy         Delta-E        Max-DP      RMS-DP      [F,P]     Damp
               ***  Starting incremental Fock matrix formation  ***
