
                                        *****************
                                        * O   R   C   A *
                                        *****************

                                            #,                                       
                                            ###                                      
                                            ####                                     
                                            #####                                    
                                            ######                                   
                                           ########,                                 
                                     ,,################,,,,,                         
                               ,,#################################,,                 
                          ,,##########################################,,             
                       ,#########################################, ''#####,          
                    ,#############################################,,   '####,        
                  ,##################################################,,,,####,       
                ,###########''''           ''''###############################       
              ,#####''   ,,,,##########,,,,          '''####'''          '####       
            ,##' ,,,,###########################,,,                        '##       
           ' ,,###''''                  '''############,,,                           
         ,,##''                                '''############,,,,        ,,,,,,###''
      ,#''                                            '''#######################'''  
     '                                                          ''''####''''         
             ,#######,   #######,   ,#######,      ##                                
            ,#'     '#,  ##    ##  ,#'     '#,    #''#        ######   ,####,        
            ##       ##  ##   ,#'  ##            #'  '#       #        #'  '#        
            ##       ##  #######   ##           ,######,      #####,   #    #        
            '#,     ,#'  ##    ##  '#,     ,#' ,#      #,         ##   #,  ,#        
             '#######'   ##     ##  '#######'  #'      '#     #####' # '####'        



                  #######################################################
                  #                        -***-                        #
                  #          Department of theory and spectroscopy      #
                  #    Directorship and core code : Frank Neese         #
                  #        Max Planck Institute fuer Kohlenforschung    #
                  #                Kaiser Wilhelm Platz 1               #
                  #                 D-45470 Muelheim/Ruhr               #
                  #                      Germany                        #
                  #                                                     #
                  #                  All rights reserved                #
                  #                        -***-                        #
                  #######################################################


                         Program Version 5.0.0 -  RELEASE  -
                                (SVN: $Rev: 19529$)
                ($Date: 2021-06-28 11:36:33 +0200 (Mo, 28 Jun 2021) $)


 With contributions from (in alphabetic order):
   Daniel Aravena         : Magnetic Suceptibility
   Michael Atanasov       : Ab Initio Ligand Field Theory (pilot matlab implementation)
   Alexander A. Auer      : GIAO ZORA, VPT2 properties, NMR spectrum
   Ute Becker             : Parallelization
   Giovanni Bistoni       : ED, misc. LED, open-shell LED, HFLD
   Martin Brehm           : Molecular dynamics
   Dmytro Bykov           : SCF Hessian
   Vijay G. Chilkuri      : MRCI spin determinant printing, contributions to CSF-ICE
   Dipayan Datta          : RHF DLPNO-CCSD density
   Achintya Kumar Dutta   : EOM-CC, STEOM-CC
   Dmitry Ganyushin       : Spin-Orbit,Spin-Spin,Magnetic field MRCI
   Miquel Garcia          : C-PCM Hessian, Gaussian charge scheme
   Yang Guo               : DLPNO-NEVPT2, F12-NEVPT2, CIM, IAO-localization
   Andreas Hansen         : Spin unrestricted coupled pair/coupled cluster methods
   Benjamin Helmich-Paris : MC-RPA, TRAH-SCF, COSX integrals
   Lee Huntington         : MR-EOM, pCC
   Robert Izsak           : Overlap fitted RIJCOSX, COSX-SCS-MP3, EOM
   Marcus Kettner         : VPT2
   Christian Kollmar      : KDIIS, OOCD, Brueckner-CCSD(T), CCSD density, CASPT2, CASPT2-K
   Simone Kossmann        : Meta GGA functionals, TD-DFT gradient, OOMP2, MP2 Hessian
   Martin Krupicka        : Initial AUTO-CI
   Lucas Lang             : DCDCAS
   Marvin Lechner         : AUTO-CI (C++ implementation), FIC-MRCC
   Dagmar Lenk            : GEPOL surface, SMD
   Dimitrios Liakos       : Extrapolation schemes; Compound Job, initial MDCI parallelization
   Dimitrios Manganas     : Further ROCIS development; embedding schemes
   Dimitrios Pantazis     : SARC Basis sets
   Anastasios Papadopoulos: AUTO-CI, single reference methods and gradients
   Taras Petrenko         : DFT Hessian,TD-DFT gradient, ASA, ECA, R-Raman, ABS, FL, XAS/XES, NRVS
   Peter Pinski           : DLPNO-MP2, DLPNO-MP2 Gradient
   Christoph Reimann      : Effective Core Potentials
   Marius Retegan         : Local ZFS, SOC
   Christoph Riplinger    : Optimizer, TS searches, QM/MM, DLPNO-CCSD(T), (RO)-DLPNO pert. Triples
   Tobias Risthaus        : Range-separated hybrids, TD-DFT gradient, RPA, STAB
   Michael Roemelt        : Original ROCIS implementation
   Masaaki Saitow         : Open-shell DLPNO-CCSD energy and density
   Barbara Sandhoefer     : DKH picture change effects
   Avijit Sen             : IP-ROCIS
   Kantharuban Sivalingam : CASSCF convergence, NEVPT2, FIC-MRCI
   Bernardo de Souza      : ESD, SOC TD-DFT
   Georgi Stoychev        : AutoAux, RI-MP2 NMR
   Willem Van den Heuvel  : Paramagnetic NMR
   Boris Wezisla          : Elementary symmetry handling
   Frank Wennmohs         : Technical directorship


 We gratefully acknowledge several colleagues who have allowed us to
 interface, adapt or use parts of their codes:
   Stefan Grimme, W. Hujo, H. Kruse, P. Pracht,  : VdW corrections, initial TS optimization,
                  C. Bannwarth, S. Ehlert          DFT functionals, gCP, sTDA/sTD-DF
   Ed Valeev, F. Pavosevic, A. Kumar             : LibInt (2-el integral package), F12 methods
   Garnet Chan, S. Sharma, J. Yang, R. Olivares  : DMRG
   Ulf Ekstrom                                   : XCFun DFT Library
   Mihaly Kallay                                 : mrcc  (arbitrary order and MRCC methods)
   Jiri Pittner, Ondrej Demel                    : Mk-CCSD
   Frank Weinhold                                : gennbo (NPA and NBO analysis)
   Christopher J. Cramer and Donald G. Truhlar   : smd solvation model
   Lars Goerigk                                  : TD-DFT with DH, B97 family of functionals
   V. Asgeirsson, H. Jonsson                     : NEB implementation
   FAccTs GmbH                                   : IRC, NEB, NEB-TS, DLPNO-Multilevel, CI-OPT
                                                   MM, QMMM, 2- and 3-layer-ONIOM, Crystal-QMMM,
                                                   LR-CPCM, SF, NACMEs, symmetry and pop. for TD-DFT,
                                                   nearIR, NL-DFT gradient (VV10), updates on ESD,
                                                   ML-optimized integration grids
   S Lehtola, MJT Oliveira, MAL Marques          : LibXC Library
   Liviu Ungur et al                             : ANISO software


 Your calculation uses the libint2 library for the computation of 2-el integrals
 For citations please refer to: http://libint.valeyev.net

 Your ORCA version has been built with support for libXC version: 5.1.0
 For citations please refer to: https://tddft.org/programs/libxc/

 This ORCA versions uses:
   CBLAS   interface :  Fast vector & matrix operations
   LAPACKE interface :  Fast linear algebra routines
   SCALAPACK package :  Parallel linear algebra routines
   Shared memory     :  Shared parallel matrices
   BLAS/LAPACK       :  OpenBLAS 0.3.15  USE64BITINT DYNAMIC_ARCH NO_AFFINITY SkylakeX SINGLE_THREADED
        Core in use  :  SkylakeX
   Copyright (c) 2011-2014, The OpenBLAS Project


================================================================================

----- Orbital basis set information -----
Your calculation utilizes the basis: cc-pVTZ 
       H, B-Ne : Obtained from the ccRepo (grant-hill.group.shef.ac.uk/ccrepo) Feb. 2017
                 T. H. Dunning, Jr., J. Chem. Phys. 90, 1007 (1989)
            He : Obtained from the ccRepo (grant-hill.group.shef.ac.uk/ccrepo) Feb. 2017
                 D. E. Woon, T. H. Dunning, Jr., J. Chem. Phys. 100, 2975 (1994)
  Li-Be, Na-Mg : Obtained from the ccRepo (grant-hill.group.shef.ac.uk/ccrepo) Feb. 2017
                 B. P. Prascher, D. E. Woon, K. A. Peterson, T. H. Dunning, Jr., A. K. Wilson, Theor. Chem. Acc. 128, 69 (2011)
         Al-Ar : Obtained from the ccRepo (grant-hill.group.shef.ac.uk/ccrepo) Feb. 2017
                 D. E. Woon, T. H. Dunning, Jr., J. Chem. Phys. 98, 1358 (1993)
            Ca : Obtained from the Peterson Research Group Website (tyr0.chem.wsu.edu/~kipeters) Feb. 2017
                 J. Koput, K. A. Peterson, J. Phys. Chem. 106, 9595 (2002)
         Sc-Zn : Obtained from the ccRepo (grant-hill.group.shef.ac.uk/ccrepo) Feb. 2017
                 N. B. Balabanov, K. A. Peterson, J. Chem. Phys. 123, 064107 (2005)
                 N. B. Balabanov, K. A. Peterson, J. Chem. Phys. 125, 074110 (2006)
         Ga-Kr : Obtained from the ccRepo (grant-hill.group.shef.ac.uk/ccrepo) Feb. 2017
                 A. K. Wilson, D. E. Woon, K. A. Peterson, T. H. Dunning, Jr., J. Chem. Phys. 110, 7667 (1999)
             Y : Obtained from the ccRepo (grant-hill.group.shef.ac.uk/ccrepo) Feb. 2017
                 K. A. Peterson, D. Figgen, M. Dolg, H. Stoll, J. Chem. Phys. 126, 124101 (2007)
        Ag, Au : Obtained from the Peterson Research Group Website (tyr0.chem.wsu.edu/~kipeters) Feb. 2017
                 K. A. Peterson, C. Puzzarini, Theor. Chem. Acc. 114, 283 (2005)

----- AuxC basis set information -----
Your calculation utilizes the auxiliary basis: cc-pVTZ/C 
  Obtained from the EMSL Basis Set Exchange (bse.pnl.gov) Feb. 2017
  H-He, B-F, Al-Ar, Ga-Kr : F. Weigend, A. Kohn, C. Hattig, J. Chem. Phys. 116, 3175 (2002)
             Li-Be, Na-Mg : C. Haettig, Phys. Chem. Chem. Phys. 7, 59 (2005)
                       Ne : C. Haettig, Phys. Chem. Chem. Phys. 7, 59 (2005)
                            F. Weigend, A. Kohn, C. Hattig, J. Chem. Phys. 116, 3175 (2002)
                    Sc-Zn : J. G. Hill, J. A. Platts, J. Chem. Phys. 128, 044104 (2008)

================================================================================
                                        WARNINGS
                       Please study these warnings very carefully!
================================================================================


WARNING: No MP2 level density has been requested!
         To caclulate MP2 level properties use
         %mp2 Density relaxed end
         or
         %mp2 Density unrelaxed end

WARNING: Post HF methods need fully converged wavefunctions
  ===> : Setting SCFConvForced true
         You can overwrite this default with %scf ConvForced false 


INFO   : the flag for use of the SHARK integral package has been found!

================================================================================
                                       INPUT FILE
================================================================================
NAME = qm_input.solv
|  1> ! RI-MP2 cc-pVTZ cc-pVTZ/c TightSCF KeepDens NoKeepInts
|  2> 
|  3> %pointcharges "srfp_output"
|  4> 
|  5> *xyz  0  1
|  6>     C    -7.9428074  -12.3782487   -0.4374761
|  7>     C    -8.5842398  -12.2721285    0.9081726
|  8>     O    -7.6251855  -12.6512972    1.9319591
|  9>     C    -7.9830275  -12.6344601    3.2226045
| 10>     O    -8.9840251  -12.0841117    3.6619919
| 11>     C    -6.9806071  -13.2180517    4.1487647
| 12>     C    -5.8057311  -13.8274916    3.8104517
| 13>     C    -5.3503973  -14.1765334    2.4024133
| 14>     N    -4.9314063  -14.2706054    4.7555430
| 15>     C    -5.2889194  -14.3686422    6.0095225
| 16>     S    -4.4464787  -15.1830724    7.1911223
| 17>     N    -6.2848852  -13.5183366    6.4664824
| 18>     C    -7.1377525  -12.7519947    5.5560806
| 19>     C    -7.0376188  -11.2021870    5.7955354
| 20>     C    -6.0922197  -10.4014337    5.0336493
| 21>     C    -5.9195470   -9.0116301    5.2403483
| 22>     C    -6.7216400   -8.4092121    6.2212832
| 23>     C    -7.4882237   -9.1836572    7.1288582
| 24>     O    -8.0983941   -8.6131022    8.1923970
| 25>     C    -7.6524502  -10.5519085    6.9064719
| 26>     H    -8.7069637  -12.0555327   -1.1551837
| 27>     H    -7.6176009  -13.3856777   -0.7247343
| 28>     H    -7.1757922  -11.6404416   -0.7030472
| 29>     H    -8.8353548  -11.2200378    1.0904853
| 30>     H    -9.5482620  -12.7952699    0.9213568
| 31>     H    -6.0449122  -14.8886510    1.9401133
| 32>     H    -4.3814527  -14.6880272    2.4544720
| 33>     H    -5.2592625  -13.3157695    1.7286344
| 34>     H    -4.1438325  -14.8074820    4.4128161
| 35>     H    -6.5229565  -13.4433984    7.4481507
| 36>     H    -8.1237614  -13.0626383    5.9227909
| 37>     H    -5.4288999  -10.8464764    4.2978913
| 38>     H    -5.1336782   -8.4776768    4.7143254
| 39>     H    -6.5924335   -7.3626109    6.4807597
| 40>     H    -8.0068060   -7.6841736    7.9177472
| 41>     H    -8.2911143  -11.0783956    7.6095477
| 42> *
| 43> 
| 44>                          ****END OF INPUT****
================================================================================

                       ****************************
                       * Single Point Calculation *
                       ****************************

---------------------------------
CARTESIAN COORDINATES (ANGSTROEM)
---------------------------------
  C     -7.942807  -12.378249   -0.437476
  C     -8.584240  -12.272129    0.908173
  O     -7.625185  -12.651297    1.931959
  C     -7.983028  -12.634460    3.222605
  O     -8.984025  -12.084112    3.661992
  C     -6.980607  -13.218052    4.148765
  C     -5.805731  -13.827492    3.810452
  C     -5.350397  -14.176533    2.402413
  N     -4.931406  -14.270605    4.755543
  C     -5.288919  -14.368642    6.009523
  S     -4.446479  -15.183072    7.191122
  N     -6.284885  -13.518337    6.466482
  C     -7.137753  -12.751995    5.556081
  C     -7.037619  -11.202187    5.795535
  C     -6.092220  -10.401434    5.033649
  C     -5.919547   -9.011630    5.240348
  C     -6.721640   -8.409212    6.221283
  C     -7.488224   -9.183657    7.128858
  O     -8.098394   -8.613102    8.192397
  C     -7.652450  -10.551908    6.906472
  H     -8.706964  -12.055533   -1.155184
  H     -7.617601  -13.385678   -0.724734
  H     -7.175792  -11.640442   -0.703047
  H     -8.835355  -11.220038    1.090485
  H     -9.548262  -12.795270    0.921357
  H     -6.044912  -14.888651    1.940113
  H     -4.381453  -14.688027    2.454472
  H     -5.259262  -13.315770    1.728634
  H     -4.143833  -14.807482    4.412816
  H     -6.522957  -13.443398    7.448151
  H     -8.123761  -13.062638    5.922791
  H     -5.428900  -10.846476    4.297891
  H     -5.133678   -8.477677    4.714325
  H     -6.592434   -7.362611    6.480760
  H     -8.006806   -7.684174    7.917747
  H     -8.291114  -11.078396    7.609548

----------------------------
CARTESIAN COORDINATES (A.U.)
----------------------------
  NO LB      ZA    FRAG     MASS         X           Y           Z
   0 C     6.0000    0    12.011  -15.009731  -23.391500   -0.826710
   1 C     6.0000    0    12.011  -16.221862  -23.190962    1.716197
   2 O     8.0000    0    15.999  -14.409512  -23.907487    3.650874
   3 C     6.0000    0    12.011  -15.085736  -23.875669    6.089840
   4 O     8.0000    0    15.999  -16.977347  -22.835662    6.920162
   5 C     6.0000    0    12.011  -13.191436  -24.978498    7.840029
   6 C     6.0000    0    12.011  -10.971242  -26.130172    7.200710
   7 C     6.0000    0    12.011  -10.110786  -26.789766    4.539903
   8 N     7.0000    0    14.007   -9.319007  -26.967536    8.986674
   9 C     6.0000    0    12.011   -9.994609  -27.152799   11.356352
  10 S    16.0000    0    32.060   -8.402627  -28.691849   13.589252
  11 N     7.0000    0    14.007  -11.876712  -25.545954   12.219881
  12 C     6.0000    0    12.011  -13.488397  -24.097778   10.499471
  13 C     6.0000    0    12.011  -13.299172  -21.169066   10.951975
  14 C     6.0000    0    12.011  -11.512627  -19.655861    9.512219
  15 C     6.0000    0    12.011  -11.186323  -17.029513    9.902823
  16 C     6.0000    0    12.011  -12.702059  -15.891108   11.756521
  17 C     6.0000    0    12.011  -14.150692  -17.354597   13.471590
  18 O     8.0000    0    15.999  -15.303747  -16.276404   15.481387
  19 C     6.0000    0    12.011  -14.461035  -19.940217   13.051340
  20 H     1.0000    0     1.008  -16.453777  -22.781655   -2.182981
  21 H     1.0000    0     1.008  -14.395179  -25.295265   -1.369549
  22 H     1.0000    0     1.008  -13.560282  -21.997247   -1.328567
  23 H     1.0000    0     1.008  -16.696401  -21.202799    2.060719
  24 H     1.0000    0     1.008  -18.043600  -24.179556    1.741112
  25 H     1.0000    0     1.008  -11.423229  -28.135473    3.666283
  26 H     1.0000    0     1.008   -8.279746  -27.756349    4.638280
  27 H     1.0000    0     1.008   -9.938566  -25.163158    3.266646
  28 H     1.0000    0     1.008   -7.830709  -27.982086    8.339014
  29 H     1.0000    0     1.008  -12.326601  -25.404341   14.074965
  30 H     1.0000    0     1.008  -15.351684  -24.684809   11.192453
  31 H     1.0000    0     1.008  -10.259134  -20.496870    8.121838
  32 H     1.0000    0     1.008   -9.701246  -16.020487    8.908784
  33 H     1.0000    0     1.008  -12.457894  -13.913318   12.246861
  34 H     1.0000    0     1.008  -15.130671  -14.520984   14.962374
  35 H     1.0000    0     1.008  -15.667935  -20.935134   14.379961

--------------------------------
INTERNAL COORDINATES (ANGSTROEM)
--------------------------------
 C      0   0   0     0.000000000000     0.00000000     0.00000000
 C      1   0   0     1.494478987617     0.00000000     0.00000000
 O      2   1   0     1.453166491146   109.42483387     0.00000000
 C      3   2   1     1.339440156723   119.95094902   180.14773362
 O      4   3   2     1.223903935718   124.75581173   345.37278306
 C      4   3   2     1.484317530042   114.57400484   171.97989793
 C      6   4   3     1.366091612249   126.99090968   355.57697506
 C      7   6   4     1.520437826234   126.10832445   352.59254662
 N      7   6   4     1.361613477086   121.70412278   176.81259350
 C      9   7   6     1.307628164749   120.96122255    13.44945131
 S     10   9   7     1.664085626117   125.39494830   166.32660978
 N     10   9   7     1.387003907121   117.79461821   332.32818531
 C     12  10   9     1.464067613380   122.29807753    14.02937938
 C     13  12  10     1.571390869930   112.60440469   238.84617439
 C     14  13  12     1.454460633745   120.30382035    92.97138615
 C     15  14  13     1.415660405782   122.90812073   182.50798431
 C     16  15  14     1.403030258195   116.99284341   359.31576458
 C     17  16  15     1.418135452855   121.46606975    11.20681018
 O     18  17  16     1.352388887919   121.11675837   170.00733663
 C     18  17  16     1.395900293603   119.79663305   348.13915663
 H      1   2   3     1.096897746640   105.61971494   181.42964567
 H      1   2   3     1.096900055224   115.35761496    62.52053015
 H      1   2   3     1.096904573332   118.05751012   289.06469318
 H      2   1   3     1.096900863721   108.42240574   115.79543572
 H      2   1   3     1.096899972475   110.74227633   230.16996891
 H      8   7   6     1.096897311762   110.47049692   298.11131950
 H      8   7   6     1.096900019853   109.12551172   181.88520921
 H      8   7   6     1.096903846925   114.43002695    59.77949129
 H      9   7   6     1.012902118695   115.90719167   172.86658653
 H     12  10   9     1.012899959980   122.23752504   188.83440220
 H     13  12  10     1.096899923068    99.64349437   126.22739094
 H     15  14  13     1.085999998370   121.75504005   359.17947621
 H     16  15  14     1.085999994806   120.01533398   174.02528691
 H     17  16  15     1.086000205127   120.85211599   175.63765196
 H     19  18  17     0.973000121583    97.95099626    13.52280325
 H     20  18  17     1.086000036667   116.18306730   182.97309889

---------------------------
INTERNAL COORDINATES (A.U.)
---------------------------
 C      0   0   0     0.000000000000     0.00000000     0.00000000
 C      1   0   0     2.824155999496     0.00000000     0.00000000
 O      2   1   0     2.746086695258   109.42483387     0.00000000
 C      3   2   1     2.531175068983   119.95094902   180.14773362
 O      4   3   2     2.312843252736   124.75581173   345.37278306
 C      4   3   2     2.804953627558   114.57400484   171.97989793
 C      6   4   3     2.581539020998   126.99090968   355.57697506
 C      7   6   4     2.873211095237   126.10832445   352.59254662
 N      7   6   4     2.573076571948   121.70412278   176.81259350
 C      9   7   6     2.471059116379   120.96122255    13.44945131
 S     10   9   7     3.144666096756   125.39494830   166.32660978
 N     10   9   7     2.621057531138   117.79461821   332.32818531
 C     12  10   9     2.766686830832   122.29807753    14.02937938
 C     13  12  10     2.969498393511   112.60440469   238.84617439
 C     14  13  12     2.748532270348   120.30382035    92.97138615
 C     15  14  13     2.675210465564   122.90812073   182.50798431
 C     16  15  14     2.651342945594   116.99284341   359.31576458
 C     17  16  15     2.679887626701   121.46606975    11.20681018
 O     18  17  16     2.555644624725   121.11675837   170.00733663
 C     18  17  16     2.637869265170   119.79663305   348.13915663
 H      1   2   3     2.072836338065   105.61971494   181.42964567
 H      1   2   3     2.072840700657   115.35761496    62.52053015
 H      1   2   3     2.072849238643   118.05751012   289.06469318
 H      2   1   3     2.072842228495   108.42240574   115.79543572
 H      2   1   3     2.072840544284   110.74227633   230.16996891
 H      8   7   6     2.072835516266   110.47049692   298.11131950
 H      8   7   6     2.072840633815   109.12551172   181.88520921
 H      8   7   6     2.072847865933   114.43002695    59.77949129
 H      9   7   6     1.914107604803   115.90719167   172.86658653
 H     12  10   9     1.914103525422   122.23752504   188.83440220
 H     13  12  10     2.072840450918    99.64349437   126.22739094
 H     15  14  13     2.052242578358   121.75504005   359.17947621
 H     16  15  14     2.052242571623   120.01533398   174.02528691
 H     17  16  15     2.052242969072   120.85211599   175.63765196
 H     19  18  17     1.838703758063    97.95099626    13.52280325
 H     20  18  17     2.052242650729   116.18306730   182.97309889

---------------------
BASIS SET INFORMATION
---------------------
There are 5 groups of distinct atoms

 Group   1 Type C   : 18s5p2d1f contracted to 4s3p2d1f pattern {8811/311/11/1}
 Group   2 Type O   : 18s5p2d1f contracted to 4s3p2d1f pattern {8811/311/11/1}
 Group   3 Type N   : 18s5p2d1f contracted to 4s3p2d1f pattern {8811/311/11/1}
 Group   4 Type S   : 41s16p2d1f contracted to 5s4p2d1f pattern {13131311/7711/11/1}
 Group   5 Type H   : 5s2p1d contracted to 3s2p1d pattern {311/11/1}

Atom   0C    basis set group =>   1
Atom   1C    basis set group =>   1
Atom   2O    basis set group =>   2
Atom   3C    basis set group =>   1
Atom   4O    basis set group =>   2
Atom   5C    basis set group =>   1
Atom   6C    basis set group =>   1
Atom   7C    basis set group =>   1
Atom   8N    basis set group =>   3
Atom   9C    basis set group =>   1
Atom  10S    basis set group =>   4
Atom  11N    basis set group =>   3
Atom  12C    basis set group =>   1
Atom  13C    basis set group =>   1
Atom  14C    basis set group =>   1
Atom  15C    basis set group =>   1
Atom  16C    basis set group =>   1
Atom  17C    basis set group =>   1
Atom  18O    basis set group =>   2
Atom  19C    basis set group =>   1
Atom  20H    basis set group =>   5
Atom  21H    basis set group =>   5
Atom  22H    basis set group =>   5
Atom  23H    basis set group =>   5
Atom  24H    basis set group =>   5
Atom  25H    basis set group =>   5
Atom  26H    basis set group =>   5
Atom  27H    basis set group =>   5
Atom  28H    basis set group =>   5
Atom  29H    basis set group =>   5
Atom  30H    basis set group =>   5
Atom  31H    basis set group =>   5
Atom  32H    basis set group =>   5
Atom  33H    basis set group =>   5
Atom  34H    basis set group =>   5
Atom  35H    basis set group =>   5
---------------------------------
AUXILIARY/C BASIS SET INFORMATION
---------------------------------
There are 5 groups of distinct atoms

 Group   1 Type C   : 8s6p5d3f1g contracted to 8s6p5d3f1g pattern {11111111/111111/11111/111/1}
 Group   2 Type O   : 8s6p5d3f1g contracted to 8s6p5d3f1g pattern {11111111/111111/11111/111/1}
 Group   3 Type N   : 8s6p5d3f1g contracted to 8s6p5d3f1g pattern {11111111/111111/11111/111/1}
 Group   4 Type S   : 10s8p7d5f2g contracted to 10s8p7d5f2g pattern {1111111111/11111111/1111111/11111/11}
 Group   5 Type H   : 4s3p2d1f contracted to 4s3p2d1f pattern {1111/111/11/1}

Atom   0C    basis set group =>   1
Atom   1C    basis set group =>   1
Atom   2O    basis set group =>   2
Atom   3C    basis set group =>   1
Atom   4O    basis set group =>   2
Atom   5C    basis set group =>   1
Atom   6C    basis set group =>   1
Atom   7C    basis set group =>   1
Atom   8N    basis set group =>   3
Atom   9C    basis set group =>   1
Atom  10S    basis set group =>   4
Atom  11N    basis set group =>   3
Atom  12C    basis set group =>   1
Atom  13C    basis set group =>   1
Atom  14C    basis set group =>   1
Atom  15C    basis set group =>   1
Atom  16C    basis set group =>   1
Atom  17C    basis set group =>   1
Atom  18O    basis set group =>   2
Atom  19C    basis set group =>   1
Atom  20H    basis set group =>   5
Atom  21H    basis set group =>   5
Atom  22H    basis set group =>   5
Atom  23H    basis set group =>   5
Atom  24H    basis set group =>   5
Atom  25H    basis set group =>   5
Atom  26H    basis set group =>   5
Atom  27H    basis set group =>   5
Atom  28H    basis set group =>   5
Atom  29H    basis set group =>   5
Atom  30H    basis set group =>   5
Atom  31H    basis set group =>   5
Atom  32H    basis set group =>   5
Atom  33H    basis set group =>   5
Atom  34H    basis set group =>   5
Atom  35H    basis set group =>   5
------------------------------------------------------------------------------
                           ORCA GTO INTEGRAL CALCULATION
------------------------------------------------------------------------------
------------------------------------------------------------------------------
                   ___                                                        
                  /   \      - P O W E R E D   B Y -                         
                 /     \                                                     
                 |  |  |   _    _      __       _____    __    __             
                 |  |  |  | |  | |    /  \     |  _  \  |  |  /  |          
                  \  \/   | |  | |   /    \    | | | |  |  | /  /          
                 / \  \   | |__| |  /  /\  \   | |_| |  |  |/  /          
                |  |  |   |  __  | /  /__\  \  |    /   |      \           
                |  |  |   | |  | | |   __   |  |    \   |  |\   \          
                \     /   | |  | | |  |  |  |  | |\  \  |  | \   \       
                 \___/    |_|  |_| |__|  |__|  |_| \__\ |__|  \__/        
                                                                              
                      - O R C A' S   B I G   F R I E N D -                    
                                      &                                       
                       - I N T E G R A L  F E E D E R -                       
                                                                              
 v1 FN, 2020, v2 2021                                                         
------------------------------------------------------------------------------


Reading SHARK input file qm_input.solv.SHARKINP.tmp ... ok
----------------------
SHARK INTEGRAL PACKAGE
----------------------

Number of atoms                             ...     36
Number of basis functions                   ...    828
Number of shells                            ...    298
Maximum angular momentum                    ...      3
Integral batch strategy                     ... SHARK/LIBINT Hybrid
RI-J (if used) integral strategy            ... SPLIT-RIJ (Revised 2003 algorithm where possible)
Printlevel                                  ...      1
Contraction scheme used                     ... SEGMENTED contraction
Coulomb Range Separation                    ... NOT USED
Exchange Range Separation                   ... NOT USED
Finite Nucleus Model                        ... NOT USED
Auxiliary Coulomb fitting basis             ... NOT available
Auxiliary J/K fitting basis                 ... NOT available
Auxiliary Correlation fitting basis         ... AVAILABLE
   # of basis functions in Aux-C            ...   2141
   # of shells in Aux-C                     ...    629
   Maximum angular momentum in Aux-C        ...      4
Auxiliary 'external' fitting basis          ... NOT available
Integral threshold                          ...     2.500000e-11
Primitive cut-off                           ...     2.500000e-12
Primitive pair pre-selection threshold      ...     2.500000e-12

Calculating pre-screening integrals         ... done (  0.6 sec) Dimension = 298
Organizing shell pair data                  ... done (  0.4 sec)
Shell pair information
Total number of shell pairs                 ...     44551
Shell pairs after pre-screening             ...     31751
Total number of primitive shell pairs       ...    234348
Primitive shell pairs kept                  ...     91870
          la=0 lb=0:   6361 shell pairs
          la=1 lb=0:   8860 shell pairs
          la=1 lb=1:   3130 shell pairs
          la=2 lb=0:   5053 shell pairs
          la=2 lb=1:   3460 shell pairs
          la=2 lb=2:    973 shell pairs
          la=3 lb=0:   1829 shell pairs
          la=3 lb=1:   1248 shell pairs
          la=3 lb=2:    698 shell pairs
          la=3 lb=3:    139 shell pairs

Reading point charge file                   ... ok (45271 point charges)
Calculating one electron integrals          ... done (234.8 sec)
Calculating RI/C V-Matrix + Cholesky decomp.... done (  0.4 sec)
Calculating Nuclear repulsion               ... (+Point charges) done (  0.0 sec) ENN=   1905.880301406017 Eh

SHARK setup successfully completed in 236.6 seconds

Maximum memory used throughout the entire GTOINT-calculation: 471.1 MB
ENUC WAS=  0.000000000
ENUC IS =  0.000000000
-------------------------------------------------------------------------------
                                 ORCA SCF
-------------------------------------------------------------------------------

------------
SCF SETTINGS
------------
Hamiltonian:
 Ab initio Hamiltonian  Method          .... Hartree-Fock(GTOs)


General Settings:
 Integral files         IntName         .... qm_input.solv
 Hartree-Fock type      HFTyp           .... RHF
 Total Charge           Charge          ....    0
 Multiplicity           Mult            ....    1
 Number of Electrons    NEL             ....  154
 Basis Dimension        Dim             ....  828
 Nuclear Repulsion      ENuc            ....   1905.8803014060 Eh

Convergence Acceleration:
 DIIS                   CNVDIIS         .... on
   Start iteration      DIISMaxIt       ....    12
   Startup error        DIISStart       ....  0.200000
   # of expansion vecs  DIISMaxEq       ....     5
   Bias factor          DIISBfac        ....   1.050
   Max. coefficient     DIISMaxC        ....  10.000
 Trust-Rad. Augm. Hess. CNVTRAH         .... auto
   Auto Start mean grad. ratio tolernc. ....  1.125000
   Auto Start start iteration           ....    20
   Auto Start num. interpolation iter.  ....    10
   Max. Number of Micro iterations      ....    16
   Max. Number of Macro iterations      .... Maxiter - #DIIS iter
   Number of Davidson start vectors     ....     2
   Converg. threshold I  (grad. norm)   ....   1.000e-05
   Converg. threshold II (energy diff.) ....   1.000e-08
   Grad. Scal. Fac. for Micro threshold ....   0.100
   Minimum threshold for Micro iter.    ....   0.010
   NR start threshold (gradient norm)   ....   0.001
   Initial trust radius                 ....   0.400
   Minimum AH scaling param. (alpha)    ....   1.000
   Maximum AH scaling param. (alpha)    .... 1000.000
   Orbital update algorithm             .... Taylor
   White noise on init. David. guess    .... on
   Maximum white noise                  ....   0.010
   Quad. conv. algorithm                .... NR
 SOSCF                  CNVSOSCF        .... on
   Start iteration      SOSCFMaxIt      ....   150
   Startup grad/error   SOSCFStart      ....  0.003300
 Level Shifting         CNVShift        .... on
   Level shift para.    LevelShift      ....    0.2500
   Turn off err/grad.   ShiftErr        ....    0.0010
 Zerner damping         CNVZerner       .... off
 Static damping         CNVDamp         .... on
   Fraction old density DampFac         ....    0.7000
   Max. Damping (<1)    DampMax         ....    0.9800
   Min. Damping (>=0)   DampMin         ....    0.0000
   Turn off err/grad.   DampErr         ....    0.1000
 Fernandez-Rico         CNVRico         .... off

SCF Procedure:
 Maximum # iterations   MaxIter         ....   125
 SCF integral mode      SCFMode         .... Direct
   Integral package                     .... SHARK and LIBINT hybrid scheme
 Reset frequency        DirectResetFreq ....    20
 Integral Threshold     Thresh          ....  2.500e-11 Eh
 Primitive CutOff       TCut            ....  2.500e-12 Eh

Convergence Tolerance:
 Convergence Check Mode ConvCheckMode   .... Total+1el-Energy
 Convergence forced     ConvForced      .... 1
 Energy Change          TolE            ....  1.000e-08 Eh
 1-El. energy change                    ....  1.000e-05 Eh
 Orbital Gradient       TolG            ....  1.000e-05
 Orbital Rotation angle TolX            ....  1.000e-05
 DIIS Error             TolErr          ....  5.000e-07


Diagonalization of the overlap matrix:
Smallest eigenvalue                        ... 4.511e-05
Time for diagonalization                   ...    0.155 sec
Threshold for overlap eigenvalues          ... 1.000e-08
Number of eigenvalues below threshold      ... 0
Time for construction of square roots      ...    0.096 sec
Total time needed                          ...    0.252 sec

Time for model grid setup =    1.592 sec

------------------------------
INITIAL GUESS: MODEL POTENTIAL
------------------------------
Loading Hartree-Fock densities                     ... done
Calculating cut-offs                               ... done
Initializing the effective Hamiltonian             ... done
Setting up the integral package (SHARK)            ... done
Starting the Coulomb interaction                   ... done (   4.5 sec)
Reading the grid                                   ... done
Mapping shells                                     ... done
Starting the XC term evaluation                    ... done (   1.7 sec)
Transforming the Hamiltonian                       ... done (   0.1 sec)
Diagonalizing the Hamiltonian                      ... done (   0.2 sec)
Back transforming the eigenvectors                 ... done (   0.0 sec)
Now organizing SCF variables                       ... done
                      ------------------
                      INITIAL GUESS DONE (   8.1 sec)
                      ------------------
--------------
SCF ITERATIONS
--------------
ITER       Energy         Delta-E        Max-DP      RMS-DP      [F,P]     Damp
               ***  Starting incremental Fock matrix formation  ***
  0  -1270.0524338061   0.000000000000 0.04758468  0.00049131  0.3773830 0.7000
  1  -1270.3479689972  -0.295535191040 0.03550198  0.00039697  0.2169330 0.7000
                               ***Turning on DIIS***
  2  -1270.5304879782  -0.182518981052 0.02585447  0.00025503  0.1125902 0.7000
  3  -1272.6374006236  -2.106912645401 0.06478385  0.00052260  0.0847520 0.0000
  4  -1270.8830157178   1.754384905859 0.00998305  0.00011854  0.0076542 0.0000
  5  -1270.9316290126  -0.048613294810 0.00613235  0.00006270  0.0053872 0.0000
  6  -1270.9077612659   0.023867746707 0.00346038  0.00003028  0.0036023 0.0000
                      *** Initiating the SOSCF procedure ***
                           *** Shutting down DIIS ***
                      *** Re-Reading the Fockian *** 
                      *** Removing any level shift *** 
ITER      Energy       Delta-E        Grad      Rot      Max-DP    RMS-DP
  7  -1270.92431169  -0.0165504213  0.001189  0.001189  0.001980  0.000017
               *** Restarting incremental Fock matrix formation ***
  8  -1270.92541297  -0.0011012792  0.000508  0.001032  0.000813  0.000008
  9  -1270.92542770  -0.0000147305  0.000242  0.001113  0.000947  0.000010
 10  -1270.92543331  -0.0000056148  0.000063  0.000113  0.000186  0.000002
 11  -1270.92543388  -0.0000005675  0.000041  0.000086  0.000079  0.000001
 12  -1270.92543397  -0.0000000955  0.000016  0.000069  0.000033  0.000000
 13  -1270.92543400  -0.0000000211  0.000009  0.000050  0.000015  0.000000
 14  -1270.92543400  -0.0000000055  0.000003  0.000009  0.000006  0.000000
                  ***Gradient check signals convergence***
              ***Rediagonalizing the Fockian in SOSCF/NRSCF***

               *****************************************************
               *                     SUCCESS                       *
               *           SCF CONVERGED AFTER  15 CYCLES          *
               *****************************************************


----------------
TOTAL SCF ENERGY
----------------

Total Energy       :        -1270.92543400 Eh          -34583.63926 eV

Components:
Nuclear Repulsion  :         1905.88030141 Eh           51861.63960 eV
Electronic Energy  :        -3176.80573540 Eh          -86445.27885 eV
One Electron Energy:        -5299.62111030 Eh         -144210.02191 eV
Two Electron Energy:         2122.81537490 Eh           57764.74305 eV

Virial components:
Potential Energy   :        -2540.04105237 Eh          -69118.03093 eV
Kinetic Energy     :         1269.11561837 Eh           34534.39167 eV
Virial Ratio       :            2.00142604


---------------
SCF CONVERGENCE
---------------

  Last Energy change         ...    4.8522e-09  Tolerance :   1.0000e-08
  Last MAX-Density change    ...    3.4112e-06  Tolerance :   1.0000e-07
  Last RMS-Density change    ...    2.4358e-08  Tolerance :   5.0000e-09
  Last Orbital Gradient      ...    8.1310e-07  Tolerance :   1.0000e-05
  Last Orbital Rotation      ...    1.6443e-06  Tolerance :   1.0000e-05

             **** THE GBW FILE WAS UPDATED (qm_input.solv.gbw) ****
             **** DENSITY qm_input.solv.scfp WAS UPDATED ****
             **** ENERGY FILE WAS UPDATED (qm_input.solv.en.tmp) ****
             **** THE GBW FILE WAS UPDATED (qm_input.solv.gbw) ****
             **** DENSITY qm_input.solv.scfp WAS UPDATED ****
----------------
ORBITAL ENERGIES
----------------

  NO   OCC          E(Eh)            E(eV) 
   0   2.0000     -93.438688     -2542.5960 
   1   2.0000     -22.120416      -601.9271 
   2   2.0000     -22.104073      -601.4824 
   3   2.0000     -22.072330      -600.6186 
   4   2.0000     -17.153764      -466.7776 
   5   2.0000     -17.127018      -466.0499 
   6   2.0000     -12.920533      -351.5856 
   7   2.0000     -12.919316      -351.5525 
   8   2.0000     -12.847651      -349.6024 
   9   2.0000     -12.818918      -348.8205 
  10   2.0000     -12.812024      -348.6329 
  11   2.0000     -12.799631      -348.2957 
  12   2.0000     -12.781484      -347.8019 
  13   2.0000     -12.764191      -347.3313 
  14   2.0000     -12.759486      -347.2033 
  15   2.0000     -12.749580      -346.9337 
  16   2.0000     -12.749110      -346.9209 
  17   2.0000     -12.748811      -346.9128 
  18   2.0000     -12.746790      -346.8578 
  19   2.0000     -12.724031      -346.2385 
  20   2.0000     -10.445495      -284.2364 
  21   2.0000      -8.127527      -221.1613 
  22   2.0000      -8.125508      -221.1063 
  23   2.0000      -8.125130      -221.0960 
  24   2.0000      -2.977711       -81.0276 
  25   2.0000      -2.929156       -79.7064 
  26   2.0000      -2.888402       -78.5974 
  27   2.0000      -2.883724       -78.4701 
  28   2.0000      -2.761189       -75.1358 
  29   2.0000      -2.659138       -72.3588 
  30   2.0000      -2.636937       -71.7547 
  31   2.0000      -2.557927       -69.6047 
  32   2.0000      -2.542413       -69.1826 
  33   2.0000      -2.521718       -68.6194 
  34   2.0000      -2.517048       -68.4924 
  35   2.0000      -2.499930       -68.0266 
  36   2.0000      -2.432607       -66.1946 
  37   2.0000      -2.401802       -65.3563 
  38   2.0000      -2.381903       -64.8149 
  39   2.0000      -2.349730       -63.9394 
  40   2.0000      -2.332075       -63.4590 
  41   2.0000      -2.323151       -63.2162 
  42   2.0000      -2.281288       -62.0770 
  43   2.0000      -2.264876       -61.6304 
  44   2.0000      -2.228757       -60.6475 
  45   2.0000      -2.217484       -60.3408 
  46   2.0000      -2.203734       -59.9667 
  47   2.0000      -2.198945       -59.8363 
  48   2.0000      -2.188304       -59.5468 
  49   2.0000      -2.177664       -59.2573 
  50   2.0000      -2.166772       -58.9609 
  51   2.0000      -2.155354       -58.6502 
  52   2.0000      -2.142227       -58.2930 
  53   2.0000      -2.122913       -57.7674 
  54   2.0000      -2.112352       -57.4800 
  55   2.0000      -2.110452       -57.4283 
  56   2.0000      -2.099994       -57.1437 
  57   2.0000      -2.091715       -56.9185 
  58   2.0000      -2.084322       -56.7173 
  59   2.0000      -2.072411       -56.3932 
  60   2.0000      -2.068519       -56.2873 
  61   2.0000      -2.052150       -55.8418 
  62   2.0000      -2.048405       -55.7399 
  63   2.0000      -2.039798       -55.5057 
  64   2.0000      -2.025336       -55.1122 
  65   2.0000      -2.019028       -54.9406 
  66   2.0000      -2.014558       -54.8189 
  67   2.0000      -2.008790       -54.6620 
  68   2.0000      -1.992161       -54.2095 
  69   2.0000      -1.983881       -53.9841 
  70   2.0000      -1.972887       -53.6850 
  71   2.0000      -1.971660       -53.6516 
  72   2.0000      -1.884767       -51.2871 
  73   2.0000      -1.883016       -51.2395 
  74   2.0000      -1.857984       -50.5583 
  75   2.0000      -1.851493       -50.3817 
  76   2.0000      -1.823157       -49.6106 
  77   0.0000      -1.449876       -39.4531 
  78   0.0000      -1.402084       -38.1526 
  79   0.0000      -1.381628       -37.5960 
  80   0.0000      -1.365871       -37.1673 
  81   0.0000      -1.364189       -37.1215 
  82   0.0000      -1.344088       -36.5745 
  83   0.0000      -1.337862       -36.4051 
  84   0.0000      -1.334612       -36.3166 
  85   0.0000      -1.326938       -36.1078 
  86   0.0000      -1.313842       -35.7515 
  87   0.0000      -1.310072       -35.6489 
  88   0.0000      -1.299350       -35.3571 
  89   0.0000      -1.298081       -35.3226 
  90   0.0000      -1.290598       -35.1190 
  91   0.0000      -1.284866       -34.9630 
  92   0.0000      -1.281716       -34.8773 
  93   0.0000      -1.269132       -34.5348 
  94   0.0000      -1.259549       -34.2741 
  95   0.0000      -1.250810       -34.0363 
  96   0.0000      -1.247261       -33.9397 
  97   0.0000      -1.241968       -33.7957 
  98   0.0000      -1.235073       -33.6081 
  99   0.0000      -1.228839       -33.4384 
 100   0.0000      -1.214178       -33.0395 
 101   0.0000      -1.195624       -32.5346 
 102   0.0000      -1.189711       -32.3737 
 103   0.0000      -1.183737       -32.2111 
 104   0.0000      -1.176906       -32.0252 
 105   0.0000      -1.170360       -31.8471 
 106   0.0000      -1.159377       -31.5483 
 107   0.0000      -1.152680       -31.3660 
 108   0.0000      -1.145138       -31.1608 
 109   0.0000      -1.135602       -30.9013 
 110   0.0000      -1.122657       -30.5490 
 111   0.0000      -1.120278       -30.4843 
 112   0.0000      -1.118701       -30.4414 
 113   0.0000      -1.112499       -30.2726 
 114   0.0000      -1.101264       -29.9669 
 115   0.0000      -1.099241       -29.9119 
 116   0.0000      -1.096526       -29.8380 
 117   0.0000      -1.092641       -29.7323 
 118   0.0000      -1.082908       -29.4674 
 119   0.0000      -1.078175       -29.3386 
 120   0.0000      -1.075789       -29.2737 
 121   0.0000      -1.071982       -29.1701 
 122   0.0000      -1.066587       -29.0233 
 123   0.0000      -1.060023       -28.8447 
 124   0.0000      -1.049997       -28.5719 
 125   0.0000      -1.046602       -28.4795 
 126   0.0000      -1.040364       -28.3097 
 127   0.0000      -1.034110       -28.1396 
 128   0.0000      -1.025729       -27.9115 
 129   0.0000      -1.024520       -27.8786 
 130   0.0000      -1.013403       -27.5761 
 131   0.0000      -1.007891       -27.4261 
 132   0.0000      -1.002560       -27.2811 
 133   0.0000      -0.997615       -27.1465 
 134   0.0000      -0.994247       -27.0548 
 135   0.0000      -0.986089       -26.8328 
 136   0.0000      -0.982631       -26.7388 
 137   0.0000      -0.977019       -26.5861 
 138   0.0000      -0.966790       -26.3077 
 139   0.0000      -0.965163       -26.2634 
 140   0.0000      -0.958136       -26.0722 
 141   0.0000      -0.951547       -25.8929 
 142   0.0000      -0.943803       -25.6822 
 143   0.0000      -0.937740       -25.5172 
 144   0.0000      -0.931070       -25.3357 
 145   0.0000      -0.929219       -25.2853 
 146   0.0000      -0.916795       -24.9473 
 147   0.0000      -0.915812       -24.9205 
 148   0.0000      -0.912581       -24.8326 
 149   0.0000      -0.910989       -24.7893 
 150   0.0000      -0.907722       -24.7004 
 151   0.0000      -0.902434       -24.5565 
 152   0.0000      -0.894637       -24.3443 
 153   0.0000      -0.891387       -24.2559 
 154   0.0000      -0.888560       -24.1789 
 155   0.0000      -0.879908       -23.9435 
 156   0.0000      -0.874641       -23.8002 
 157   0.0000      -0.866324       -23.5739 
 158   0.0000      -0.865909       -23.5626 
 159   0.0000      -0.856704       -23.3121 
 160   0.0000      -0.853905       -23.2359 
 161   0.0000      -0.850199       -23.1351 
 162   0.0000      -0.844557       -22.9816 
 163   0.0000      -0.842117       -22.9152 
 164   0.0000      -0.838382       -22.8135 
 165   0.0000      -0.836220       -22.7547 
 166   0.0000      -0.832439       -22.6518 
 167   0.0000      -0.825706       -22.4686 
 168   0.0000      -0.819716       -22.3056 
 169   0.0000      -0.815812       -22.1994 
 170   0.0000      -0.811467       -22.0811 
 171   0.0000      -0.805015       -21.9056 
 172   0.0000      -0.797925       -21.7127 
 173   0.0000      -0.795838       -21.6559 
 174   0.0000      -0.786427       -21.3998 
 175   0.0000      -0.784370       -21.3438 
 176   0.0000      -0.780251       -21.2317 
 177   0.0000      -0.767798       -20.8928 
 178   0.0000      -0.764071       -20.7914 
 179   0.0000      -0.759016       -20.6539 
 180   0.0000      -0.750389       -20.4191 
 181   0.0000      -0.746197       -20.3051 
 182   0.0000      -0.734581       -19.9890 
 183   0.0000      -0.721768       -19.6403 
 184   0.0000      -0.715379       -19.4665 
 185   0.0000      -0.701055       -19.0767 
 186   0.0000      -0.698395       -19.0043 
 187   0.0000      -0.690033       -18.7768 
 188   0.0000      -0.686581       -18.6828 
 189   0.0000      -0.681314       -18.5395 
 190   0.0000      -0.676024       -18.3955 
 191   0.0000      -0.673629       -18.3304 
 192   0.0000      -0.656907       -17.8754 
 193   0.0000      -0.652849       -17.7649 
 194   0.0000      -0.638150       -17.3649 
 195   0.0000      -0.634125       -17.2554 
 196   0.0000      -0.629776       -17.1371 
 197   0.0000      -0.616630       -16.7794 
 198   0.0000      -0.608479       -16.5575 
 199   0.0000      -0.608000       -16.5445 
 200   0.0000      -0.599625       -16.3166 
 201   0.0000      -0.595857       -16.2141 
 202   0.0000      -0.583534       -15.8788 
 203   0.0000      -0.576568       -15.6892 
 204   0.0000      -0.568391       -15.4667 
 205   0.0000      -0.563320       -15.3287 
 206   0.0000      -0.559619       -15.2280 
 207   0.0000      -0.558149       -15.1880 
 208   0.0000      -0.547030       -14.8854 
 209   0.0000      -0.543894       -14.8001 
 210   0.0000      -0.540980       -14.7208 
 211   0.0000      -0.528468       -14.3804 
 212   0.0000      -0.525657       -14.3039 
 213   0.0000      -0.519813       -14.1448 
 214   0.0000      -0.513565       -13.9748 
 215   0.0000      -0.498130       -13.5548 
 216   0.0000      -0.493088       -13.4176 
 217   0.0000      -0.490427       -13.3452 
 218   0.0000      -0.478004       -13.0071 
 219   0.0000      -0.475804       -12.9473 
 220   0.0000      -0.462095       -12.5742 
 221   0.0000      -0.455108       -12.3841 
 222   0.0000      -0.448282       -12.1984 
 223   0.0000      -0.438691       -11.9374 
 224   0.0000      -0.424053       -11.5391 
 225   0.0000      -0.421994       -11.4830 
 226   0.0000      -0.418903       -11.3989 
 227   0.0000      -0.411482       -11.1970 
 228   0.0000      -0.406124       -11.0512 
 229   0.0000      -0.403679       -10.9847 
 230   0.0000      -0.391649       -10.6573 
 231   0.0000      -0.382420       -10.4062 
 232   0.0000      -0.373172       -10.1545 
 233   0.0000      -0.368651       -10.0315 
 234   0.0000      -0.365741        -9.9523 
 235   0.0000      -0.348739        -9.4897 
 236   0.0000      -0.340151        -9.2560 
 237   0.0000      -0.325707        -8.8629 
 238   0.0000      -0.321566        -8.7503 
 239   0.0000      -0.313023        -8.5178 
 240   0.0000      -0.311235        -8.4691 
 241   0.0000      -0.306075        -8.3287 
 242   0.0000      -0.297548        -8.0967 
 243   0.0000      -0.289688        -7.8828 
 244   0.0000      -0.287459        -7.8221 
 245   0.0000      -0.279421        -7.6034 
 246   0.0000      -0.279325        -7.6008 
 247   0.0000      -0.263835        -7.1793 
 248   0.0000      -0.253089        -6.8869 
 249   0.0000      -0.250410        -6.8140 
 250   0.0000      -0.245468        -6.6795 
 251   0.0000      -0.243428        -6.6240 
 252   0.0000      -0.231317        -6.2945 
 253   0.0000      -0.228278        -6.2118 
 254   0.0000      -0.223097        -6.0708 
 255   0.0000      -0.213605        -5.8125 
 256   0.0000      -0.206930        -5.6308 
 257   0.0000      -0.197477        -5.3736 
 258   0.0000      -0.178255        -4.8506 
 259   0.0000      -0.175752        -4.7825 
 260   0.0000      -0.167226        -4.5505 
 261   0.0000      -0.154578        -4.2063 
 262   0.0000      -0.152666        -4.1543 
 263   0.0000      -0.143661        -3.9092 
 264   0.0000      -0.134748        -3.6667 
 265   0.0000      -0.122730        -3.3396 
 266   0.0000      -0.117533        -3.1982 
 267   0.0000      -0.112077        -3.0498 
 268   0.0000      -0.104960        -2.8561 
 269   0.0000      -0.095796        -2.6067 
 270   0.0000      -0.091543        -2.4910 
 271   0.0000      -0.083509        -2.2724 
 272   0.0000      -0.078192        -2.1277 
 273   0.0000      -0.061968        -1.6862 
 274   0.0000      -0.047751        -1.2994 
 275   0.0000      -0.041857        -1.1390 
 276   0.0000      -0.034193        -0.9304 
 277   0.0000      -0.025637        -0.6976 
 278   0.0000      -0.021358        -0.5812 
 279   0.0000      -0.017428        -0.4742 
 280   0.0000      -0.005886        -0.1602 
 281   0.0000       0.005052         0.1375 
 282   0.0000       0.008569         0.2332 
 283   0.0000       0.012931         0.3519 
 284   0.0000       0.014703         0.4001 
 285   0.0000       0.023650         0.6435 
 286   0.0000       0.032679         0.8892 
 287   0.0000       0.034500         0.9388 
 288   0.0000       0.036515         0.9936 
 289   0.0000       0.043834         1.1928 
 290   0.0000       0.059798         1.6272 
 291   0.0000       0.069372         1.8877 
 292   0.0000       0.074519         2.0278 
 293   0.0000       0.085333         2.3220 
 294   0.0000       0.094357         2.5676 
 295   0.0000       0.100805         2.7431 
 296   0.0000       0.106435         2.8962 
 297   0.0000       0.111785         3.0418 
 298   0.0000       0.119389         3.2487 
 299   0.0000       0.121684         3.3112 
 300   0.0000       0.134260         3.6534 
 301   0.0000       0.136015         3.7011 
 302   0.0000       0.145360         3.9554 
 303   0.0000       0.154371         4.2006 
 304   0.0000       0.156937         4.2705 
 305   0.0000       0.164460         4.4752 
 306   0.0000       0.170592         4.6420 
 307   0.0000       0.183852         5.0029 
 308   0.0000       0.185357         5.0438 
 309   0.0000       0.199711         5.4344 
 310   0.0000       0.203254         5.5308 
 311   0.0000       0.209431         5.6989 
 312   0.0000       0.228414         6.2155 
 313   0.0000       0.233391         6.3509 
 314   0.0000       0.243945         6.6381 
 315   0.0000       0.253672         6.9028 
 316   0.0000       0.261529         7.1166 
 317   0.0000       0.273943         7.4544 
 318   0.0000       0.283092         7.7033 
 319   0.0000       0.291368         7.9285 
 320   0.0000       0.299217         8.1421 
 321   0.0000       0.301653         8.2084 
 322   0.0000       0.323100         8.7920 
 323   0.0000       0.324678         8.8349 
 324   0.0000       0.351516         9.5652 
 325   0.0000       0.358237         9.7481 
 326   0.0000       0.365054         9.9336 
 327   0.0000       0.371861        10.1189 
 328   0.0000       0.389428        10.5969 
 329   0.0000       0.396080        10.7779 
 330   0.0000       0.403332        10.9752 
 331   0.0000       0.413368        11.2483 
 332   0.0000       0.417295        11.3552 
 333   0.0000       0.435414        11.8482 
 334   0.0000       0.442425        12.0390 
 335   0.0000       0.448664        12.2088 
 336   0.0000       0.457603        12.4520 
 337   0.0000       0.464970        12.6525 
 338   0.0000       0.477323        12.9886 
 339   0.0000       0.487795        13.2736 
 340   0.0000       0.498429        13.5629 
 341   0.0000       0.514907        14.0113 
 342   0.0000       0.521396        14.1879 
 343   0.0000       0.540707        14.7134 
 344   0.0000       0.559791        15.2327 
 345   0.0000       0.591351        16.0915 
 346   0.0000       0.594530        16.1780 
 347   0.0000       0.629317        17.1246 
 348   0.0000       0.634871        17.2757 
 349   0.0000       0.641975        17.4690 
 350   0.0000       0.661989        18.0136 
 351   0.0000       0.669221        18.2104 
 352   0.0000       0.682031        18.5590 
 353   0.0000       0.694844        18.9077 
 354   0.0000       0.705989        19.2109 
 355   0.0000       0.717799        19.5323 
 356   0.0000       0.727824        19.8051 
 357   0.0000       0.740774        20.1575 
 358   0.0000       0.754197        20.5227 
 359   0.0000       0.778018        21.1709 
 360   0.0000       0.783912        21.3313 
 361   0.0000       0.787745        21.4356 
 362   0.0000       0.798294        21.7227 
 363   0.0000       0.810239        22.0477 
 364   0.0000       0.827097        22.5065 
 365   0.0000       0.840514        22.8715 
 366   0.0000       0.852638        23.2015 
 367   0.0000       0.857030        23.3210 
 368   0.0000       0.883343        24.0370 
 369   0.0000       0.888931        24.1891 
 370   0.0000       0.895997        24.3813 
 371   0.0000       0.923399        25.1270 
 372   0.0000       0.938275        25.5318 
 373   0.0000       0.954181        25.9646 
 374   0.0000       0.972881        26.4734 
 375   0.0000       0.980524        26.6814 
 376   0.0000       0.984136        26.7797 
 377   0.0000       0.998476        27.1699 
 378   0.0000       1.008292        27.4370 
 379   0.0000       1.034375        28.1468 
 380   0.0000       1.042026        28.3550 
 381   0.0000       1.076891        29.3037 
 382   0.0000       1.082012        29.4430 
 383   0.0000       1.084396        29.5079 
 384   0.0000       1.101304        29.9680 
 385   0.0000       1.112931        30.2844 
 386   0.0000       1.119140        30.4533 
 387   0.0000       1.131649        30.7937 
 388   0.0000       1.143821        31.1250 
 389   0.0000       1.163408        31.6579 
 390   0.0000       1.167021        31.7563 
 391   0.0000       1.178555        32.0701 
 392   0.0000       1.197024        32.5727 
 393   0.0000       1.202749        32.7285 
 394   0.0000       1.210003        32.9259 
 395   0.0000       1.214970        33.0610 
 396   0.0000       1.218540        33.1582 
 397   0.0000       1.220423        33.2094 
 398   0.0000       1.242244        33.8032 
 399   0.0000       1.252657        34.0865 
 400   0.0000       1.260140        34.2902 
 401   0.0000       1.269695        34.5502 
 402   0.0000       1.281191        34.8630 
 403   0.0000       1.299577        35.3633 
 404   0.0000       1.306393        35.5488 
 405   0.0000       1.313042        35.7297 
 406   0.0000       1.317585        35.8533 
 407   0.0000       1.319287        35.8996 
 408   0.0000       1.325668        36.0732 
 409   0.0000       1.345587        36.6153 
 410   0.0000       1.354017        36.8447 
 411   0.0000       1.366395        37.1815 
 412   0.0000       1.377540        37.4848 
 413   0.0000       1.386843        37.7379 
 414   0.0000       1.399726        38.0885 
 415   0.0000       1.407629        38.3035 
 416   0.0000       1.415218        38.5100 
 417   0.0000       1.426853        38.8267 
 418   0.0000       1.433987        39.0208 
 419   0.0000       1.443772        39.2870 
 420   0.0000       1.446754        39.3682 
 421   0.0000       1.466835        39.9146 
 422   0.0000       1.474783        40.1309 
 423   0.0000       1.486090        40.4386 
 424   0.0000       1.486540        40.4508 
 425   0.0000       1.489693        40.5366 
 426   0.0000       1.499209        40.7956 
 427   0.0000       1.503314        40.9073 
 428   0.0000       1.522236        41.4221 
 429   0.0000       1.525227        41.5035 
 430   0.0000       1.533540        41.7297 
 431   0.0000       1.545813        42.0637 
 432   0.0000       1.554877        42.3104 
 433   0.0000       1.563389        42.5420 
 434   0.0000       1.569924        42.7198 
 435   0.0000       1.580590        43.0100 
 436   0.0000       1.585284        43.1378 
 437   0.0000       1.592908        43.3452 
 438   0.0000       1.598050        43.4852 
 439   0.0000       1.604526        43.6614 
 440   0.0000       1.616570        43.9891 
 441   0.0000       1.617260        44.0079 
 442   0.0000       1.624241        44.1979 
 443   0.0000       1.634452        44.4757 
 444   0.0000       1.642570        44.6966 
 445   0.0000       1.645849        44.7858 
 446   0.0000       1.655945        45.0606 
 447   0.0000       1.659735        45.1637 
 448   0.0000       1.667518        45.3755 
 449   0.0000       1.678217        45.6666 
 450   0.0000       1.681490        45.7557 
 451   0.0000       1.693992        46.0959 
 452   0.0000       1.701433        46.2984 
 453   0.0000       1.706691        46.4414 
 454   0.0000       1.712570        46.6014 
 455   0.0000       1.719836        46.7991 
 456   0.0000       1.728674        47.0396 
 457   0.0000       1.738926        47.3186 
 458   0.0000       1.739776        47.3417 
 459   0.0000       1.744298        47.4648 
 460   0.0000       1.752080        47.6765 
 461   0.0000       1.760199        47.8974 
 462   0.0000       1.765862        48.0515 
 463   0.0000       1.773461        48.2583 
 464   0.0000       1.777804        48.3765 
 465   0.0000       1.779831        48.4317 
 466   0.0000       1.795651        48.8622 
 467   0.0000       1.800029        48.9813 
 468   0.0000       1.802858        49.0583 
 469   0.0000       1.811785        49.3012 
 470   0.0000       1.820229        49.5309 
 471   0.0000       1.826260        49.6951 
 472   0.0000       1.837116        49.9905 
 473   0.0000       1.845073        50.2070 
 474   0.0000       1.848003        50.2867 
 475   0.0000       1.852832        50.4181 
 476   0.0000       1.859930        50.6113 
 477   0.0000       1.864635        50.7393 
 478   0.0000       1.867851        50.8268 
 479   0.0000       1.875987        51.0482 
 480   0.0000       1.878712        51.1224 
 481   0.0000       1.884045        51.2675 
 482   0.0000       1.888558        51.3903 
 483   0.0000       1.902726        51.7758 
 484   0.0000       1.905048        51.8390 
 485   0.0000       1.910716        51.9932 
 486   0.0000       1.912470        52.0410 
 487   0.0000       1.916993        52.1640 
 488   0.0000       1.925445        52.3940 
 489   0.0000       1.931529        52.5596 
 490   0.0000       1.940821        52.8124 
 491   0.0000       1.948358        53.0175 
 492   0.0000       1.949425        53.0465 
 493   0.0000       1.953558        53.1590 
 494   0.0000       1.963009        53.4162 
 495   0.0000       1.970606        53.6229 
 496   0.0000       1.975349        53.7520 
 497   0.0000       1.985371        54.0247 
 498   0.0000       1.992260        54.2122 
 499   0.0000       2.003055        54.5059 
 500   0.0000       2.005808        54.5808 
 501   0.0000       2.007771        54.6342 
 502   0.0000       2.020256        54.9740 
 503   0.0000       2.023503        55.0623 
 504   0.0000       2.029283        55.2196 
 505   0.0000       2.044058        55.6216 
 506   0.0000       2.050966        55.8096 
 507   0.0000       2.061778        56.1038 
 508   0.0000       2.069646        56.3179 
 509   0.0000       2.077493        56.5315 
 510   0.0000       2.082912        56.6789 
 511   0.0000       2.085331        56.7447 
 512   0.0000       2.089485        56.8578 
 513   0.0000       2.097234        57.0686 
 514   0.0000       2.109216        57.3947 
 515   0.0000       2.112732        57.4904 
 516   0.0000       2.120260        57.6952 
 517   0.0000       2.131518        58.0015 
 518   0.0000       2.138939        58.2035 
 519   0.0000       2.144559        58.3564 
 520   0.0000       2.146088        58.3980 
 521   0.0000       2.157290        58.7028 
 522   0.0000       2.160969        58.8030 
 523   0.0000       2.163858        58.8816 
 524   0.0000       2.167158        58.9714 
 525   0.0000       2.172953        59.1290 
 526   0.0000       2.182039        59.3763 
 527   0.0000       2.188838        59.5613 
 528   0.0000       2.193208        59.6802 
 529   0.0000       2.199650        59.8555 
 530   0.0000       2.208526        60.0970 
 531   0.0000       2.210502        60.1508 
 532   0.0000       2.218514        60.3688 
 533   0.0000       2.231221        60.7146 
 534   0.0000       2.233283        60.7707 
 535   0.0000       2.247451        61.1563 
 536   0.0000       2.256409        61.4000 
 537   0.0000       2.261044        61.5261 
 538   0.0000       2.266266        61.6682 
 539   0.0000       2.271567        61.8125 
 540   0.0000       2.275777        61.9270 
 541   0.0000       2.284422        62.1623 
 542   0.0000       2.286223        62.2113 
 543   0.0000       2.292371        62.3786 
 544   0.0000       2.297760        62.5252 
 545   0.0000       2.311023        62.8861 
 546   0.0000       2.313601        62.9563 
 547   0.0000       2.321041        63.1587 
 548   0.0000       2.326693        63.3125 
 549   0.0000       2.338684        63.6388 
 550   0.0000       2.346231        63.8442 
 551   0.0000       2.355146        64.0868 
 552   0.0000       2.364935        64.3532 
 553   0.0000       2.372426        64.5570 
 554   0.0000       2.383592        64.8608 
 555   0.0000       2.384601        64.8883 
 556   0.0000       2.391862        65.0859 
 557   0.0000       2.400153        65.3115 
 558   0.0000       2.407855        65.5211 
 559   0.0000       2.416187        65.7478 
 560   0.0000       2.436392        66.2976 
 561   0.0000       2.443000        66.4774 
 562   0.0000       2.453934        66.7749 
 563   0.0000       2.460755        66.9605 
 564   0.0000       2.464087        67.0512 
 565   0.0000       2.475503        67.3619 
 566   0.0000       2.490572        67.7719 
 567   0.0000       2.498023        67.9747 
 568   0.0000       2.504554        68.1524 
 569   0.0000       2.511520        68.3419 
 570   0.0000       2.523600        68.6707 
 571   0.0000       2.531184        68.8770 
 572   0.0000       2.533164        68.9309 
 573   0.0000       2.542267        69.1786 
 574   0.0000       2.549234        69.3682 
 575   0.0000       2.557602        69.5959 
 576   0.0000       2.565992        69.8242 
 577   0.0000       2.581501        70.2462 
 578   0.0000       2.589605        70.4667 
 579   0.0000       2.600774        70.7706 
 580   0.0000       2.601600        70.7931 
 581   0.0000       2.612979        71.1028 
 582   0.0000       2.617003        71.2123 
 583   0.0000       2.623609        71.3920 
 584   0.0000       2.630658        71.5838 
 585   0.0000       2.647774        72.0496 
 586   0.0000       2.650266        72.1174 
 587   0.0000       2.657200        72.3061 
 588   0.0000       2.671274        72.6891 
 589   0.0000       2.676908        72.8424 
 590   0.0000       2.678961        72.8982 
 591   0.0000       2.688657        73.1621 
 592   0.0000       2.697554        73.4042 
 593   0.0000       2.702125        73.5286 
 594   0.0000       2.711597        73.7863 
 595   0.0000       2.724212        74.1296 
 596   0.0000       2.728231        74.2389 
 597   0.0000       2.733836        74.3915 
 598   0.0000       2.736114        74.4534 
 599   0.0000       2.743778        74.6620 
 600   0.0000       2.752093        74.8883 
 601   0.0000       2.755548        74.9823 
 602   0.0000       2.769085        75.3506 
 603   0.0000       2.769990        75.3752 
 604   0.0000       2.776141        75.5427 
 605   0.0000       2.788000        75.8653 
 606   0.0000       2.791048        75.9483 
 607   0.0000       2.802092        76.2488 
 608   0.0000       2.813971        76.5720 
 609   0.0000       2.823009        76.8180 
 610   0.0000       2.827471        76.9394 
 611   0.0000       2.841370        77.3176 
 612   0.0000       2.843111        77.3650 
 613   0.0000       2.844875        77.4130 
 614   0.0000       2.850351        77.5620 
 615   0.0000       2.857775        77.7640 
 616   0.0000       2.869897        78.0939 
 617   0.0000       2.874409        78.2167 
 618   0.0000       2.889625        78.6307 
 619   0.0000       2.911257        79.2193 
 620   0.0000       2.911888        79.2365 
 621   0.0000       2.926695        79.6394 
 622   0.0000       2.932907        79.8085 
 623   0.0000       2.938608        79.9636 
 624   0.0000       2.949568        80.2618 
 625   0.0000       2.957232        80.4704 
 626   0.0000       2.966132        80.7126 
 627   0.0000       2.971389        80.8556 
 628   0.0000       2.978834        81.0582 
 629   0.0000       2.981730        81.1370 
 630   0.0000       2.995255        81.5050 
 631   0.0000       3.000252        81.6410 
 632   0.0000       3.014868        82.0387 
 633   0.0000       3.021670        82.2238 
 634   0.0000       3.027404        82.3799 
 635   0.0000       3.036451        82.6260 
 636   0.0000       3.048944        82.9660 
 637   0.0000       3.053359        83.0861 
 638   0.0000       3.063534        83.3630 
 639   0.0000       3.067370        83.4674 
 640   0.0000       3.074285        83.6555 
 641   0.0000       3.092936        84.1631 
 642   0.0000       3.096991        84.2734 
 643   0.0000       3.102675        84.4281 
 644   0.0000       3.107537        84.5604 
 645   0.0000       3.115622        84.7804 
 646   0.0000       3.130756        85.1922 
 647   0.0000       3.135980        85.3344 
 648   0.0000       3.148226        85.6676 
 649   0.0000       3.157999        85.9335 
 650   0.0000       3.161215        86.0210 
 651   0.0000       3.164012        86.0971 
 652   0.0000       3.170742        86.2803 
 653   0.0000       3.172022        86.3151 
 654   0.0000       3.195357        86.9501 
 655   0.0000       3.201804        87.1255 
 656   0.0000       3.212134        87.4066 
 657   0.0000       3.218608        87.5828 
 658   0.0000       3.235396        88.0396 
 659   0.0000       3.250809        88.4590 
 660   0.0000       3.259479        88.6949 
 661   0.0000       3.262697        88.7825 
 662   0.0000       3.266462        88.8849 
 663   0.0000       3.279601        89.2425 
 664   0.0000       3.290403        89.5364 
 665   0.0000       3.299528        89.7847 
 666   0.0000       3.326048        90.5064 
 667   0.0000       3.341082        90.9155 
 668   0.0000       3.370421        91.7138 
 669   0.0000       3.381931        92.0270 
 670   0.0000       3.395959        92.4087 
 671   0.0000       3.416313        92.9626 
 672   0.0000       3.448353        93.8345 
 673   0.0000       3.453508        93.9747 
 674   0.0000       3.469481        94.4094 
 675   0.0000       3.491857        95.0183 
 676   0.0000       3.498329        95.1944 
 677   0.0000       3.498616        95.2022 
 678   0.0000       3.516091        95.6777 
 679   0.0000       3.531938        96.1089 
 680   0.0000       3.542078        96.3848 
 681   0.0000       3.544258        96.4442 
 682   0.0000       3.551358        96.6374 
 683   0.0000       3.560651        96.8902 
 684   0.0000       3.610768        98.2540 
 685   0.0000       3.621830        98.5550 
 686   0.0000       3.634504        98.8999 
 687   0.0000       3.639936        99.0477 
 688   0.0000       3.644157        99.1625 
 689   0.0000       3.653746        99.4235 
 690   0.0000       3.654507        99.4442 
 691   0.0000       3.667276        99.7917 
 692   0.0000       3.680170       100.1425 
 693   0.0000       3.695537       100.5607 
 694   0.0000       3.704277       100.7985 
 695   0.0000       3.720369       101.2364 
 696   0.0000       3.732010       101.5532 
 697   0.0000       3.744294       101.8874 
 698   0.0000       3.747733       101.9810 
 699   0.0000       3.751249       102.0767 
 700   0.0000       3.757526       102.2475 
 701   0.0000       3.783037       102.9417 
 702   0.0000       3.802438       103.4696 
 703   0.0000       3.806556       103.5817 
 704   0.0000       3.819937       103.9458 
 705   0.0000       3.826138       104.1145 
 706   0.0000       3.843143       104.5772 
 707   0.0000       3.853484       104.8586 
 708   0.0000       3.879105       105.5558 
 709   0.0000       3.887483       105.7838 
 710   0.0000       3.900978       106.1510 
 711   0.0000       3.932607       107.0117 
 712   0.0000       3.953173       107.5713 
 713   0.0000       3.959047       107.7311 
 714   0.0000       3.966518       107.9344 
 715   0.0000       3.978236       108.2533 
 716   0.0000       3.984054       108.4116 
 717   0.0000       4.000202       108.8510 
 718   0.0000       4.006150       109.0129 
 719   0.0000       4.015219       109.2597 
 720   0.0000       4.023165       109.4759 
 721   0.0000       4.049577       110.1946 
 722   0.0000       4.062525       110.5469 
 723   0.0000       4.066448       110.6537 
 724   0.0000       4.077496       110.9543 
 725   0.0000       4.095839       111.4534 
 726   0.0000       4.107634       111.7744 
 727   0.0000       4.126448       112.2864 
 728   0.0000       4.138012       112.6010 
 729   0.0000       4.139563       112.6432 
 730   0.0000       4.155253       113.0702 
 731   0.0000       4.162609       113.2704 
 732   0.0000       4.174651       113.5980 
 733   0.0000       4.180963       113.7698 
 734   0.0000       4.191263       114.0501 
 735   0.0000       4.194540       114.1392 
 736   0.0000       4.237973       115.3211 
 737   0.0000       4.241791       115.4250 
 738   0.0000       4.254159       115.7615 
 739   0.0000       4.267291       116.1189 
 740   0.0000       4.281822       116.5143 
 741   0.0000       4.296275       116.9076 
 742   0.0000       4.303946       117.1163 
 743   0.0000       4.328171       117.7755 
 744   0.0000       4.333877       117.9308 
 745   0.0000       4.350260       118.3766 
 746   0.0000       4.364394       118.7612 
 747   0.0000       4.386338       119.3583 
 748   0.0000       4.406430       119.9050 
 749   0.0000       4.409114       119.9781 
 750   0.0000       4.434501       120.6689 
 751   0.0000       4.444352       120.9370 
 752   0.0000       4.479626       121.8968 
 753   0.0000       4.496387       122.3529 
 754   0.0000       4.516207       122.8923 
 755   0.0000       4.524575       123.1199 
 756   0.0000       4.534890       123.4006 
 757   0.0000       4.562892       124.1626 
 758   0.0000       4.584067       124.7388 
 759   0.0000       4.610765       125.4653 
 760   0.0000       4.631048       126.0172 
 761   0.0000       4.666376       126.9785 
 762   0.0000       4.679379       127.3324 
 763   0.0000       4.729454       128.6950 
 764   0.0000       4.745409       129.1291 
 765   0.0000       4.770295       129.8063 
 766   0.0000       4.799856       130.6107 
 767   0.0000       4.801568       130.6573 
 768   0.0000       4.825404       131.3059 
 769   0.0000       4.838614       131.6654 
 770   0.0000       4.845816       131.8613 
 771   0.0000       4.860831       132.2699 
 772   0.0000       4.873100       132.6038 
 773   0.0000       4.909169       133.5853 
 774   0.0000       4.917217       133.8043 
 775   0.0000       4.996042       135.9492 
 776   0.0000       5.008618       136.2914 
 777   0.0000       5.014713       136.4573 
 778   0.0000       5.059492       137.6758 
 779   0.0000       5.117074       139.2427 
 780   0.0000       5.167902       140.6258 
 781   0.0000       5.194360       141.3457 
 782   0.0000       5.206592       141.6786 
 783   0.0000       5.259122       143.1080 
 784   0.0000       5.281514       143.7173 
 785   0.0000       5.317713       144.7023 
 786   0.0000       5.392750       146.7442 
 787   0.0000       5.394724       146.7979 
 788   0.0000       5.401965       146.9949 
 789   0.0000       5.498091       149.6107 
 790   0.0000       5.544262       150.8670 
 791   0.0000       5.554080       151.1342 
 792   0.0000       5.595684       152.2663 
 793   0.0000       5.636649       153.3810 
 794   0.0000       5.673407       154.3813 
 795   0.0000       5.727221       155.8456 
 796   0.0000       5.758311       156.6916 
 797   0.0000       5.777276       157.2077 
 798   0.0000       5.819289       158.3509 
 799   0.0000       5.833591       158.7401 
 800   0.0000       5.931904       161.4153 
 801   0.0000       6.006288       163.4394 
 802   0.0000       6.038533       164.3168 
 803   0.0000       6.074266       165.2892 
 804   0.0000       6.181902       168.2181 
 805   0.0000       6.281140       170.9185 
 806   0.0000       6.369840       173.3322 
 807   0.0000       6.409083       174.4000 
 808   0.0000       6.477566       176.2635 
 809   0.0000       7.807878       212.4632 
 810   0.0000       8.243364       224.3133 
 811   0.0000       9.491906       258.2879 
 812   0.0000       9.953035       270.8358 
 813   0.0000      10.533091       286.6200 
 814   0.0000      10.566748       287.5358 
 815   0.0000      11.069410       301.2140 
 816   0.0000      11.511384       313.2407 
 817   0.0000      11.556038       314.4558 
 818   0.0000      11.676775       317.7412 
 819   0.0000      11.699968       318.3723 
 820   0.0000      12.084425       328.8339 
 821   0.0000      12.243536       333.1635 
 822   0.0000      12.411567       337.7359 
 823   0.0000      12.521611       340.7304 
 824   0.0000      12.565675       341.9294 
 825   0.0000      13.286720       361.5500 
 826   0.0000      13.701584       372.8390 
 827   0.0000      13.852348       376.9415 

                    ********************************
                    * MULLIKEN POPULATION ANALYSIS *
                    ********************************

-----------------------
MULLIKEN ATOMIC CHARGES
-----------------------
   0 C :   -0.293539
   1 C :    0.050679
   2 O :   -0.305509
   3 C :    0.512168
   4 O :   -0.592664
   5 C :   -0.176951
   6 C :    0.124252
   7 C :   -0.285495
   8 N :   -0.079055
   9 C :    0.375814
  10 S :   -0.780158
  11 N :   -0.242189
  12 C :    0.100065
  13 C :   -0.032432
  14 C :   -0.262603
  15 C :   -0.180478
  16 C :   -0.268783
  17 C :    0.331623
  18 O :   -0.443362
  19 C :   -0.264616
  20 H :    0.105945
  21 H :    0.107076
  22 H :    0.111008
  23 H :    0.102801
  24 H :    0.109197
  25 H :    0.138975
  26 H :    0.118934
  27 H :    0.139255
  28 H :    0.261762
  29 H :    0.267199
  30 H :    0.165944
  31 H :    0.202411
  32 H :    0.210235
  33 H :    0.167595
  34 H :    0.328089
  35 H :    0.176806
Sum of atomic charges:   -0.0000000

--------------------------------
MULLIKEN REDUCED ORBITAL CHARGES
--------------------------------
  0 C s       :     3.264324  s :     3.264324
      pz      :     0.916204  p :     2.946652
      px      :     1.012916
      py      :     1.017532
      dz2     :     0.012614  d :     0.077836
      dxz     :     0.017904
      dyz     :     0.015917
      dx2y2   :     0.010763
      dxy     :     0.020638
      f0      :     0.001061  f :     0.004727
      f+1     :     0.001424
      f-1     :     0.000511
      f+2     :     0.000193
      f-2     :     0.000455
      f+3     :     0.000521
      f-3     :     0.000563
  1 C s       :     3.165896  s :     3.165896
      pz      :     0.770189  p :     2.621887
      px      :     0.862902
      py      :     0.988797
      dz2     :     0.039976  d :     0.149930
      dxz     :     0.038535
      dyz     :     0.024786
      dx2y2   :     0.022432
      dxy     :     0.024201
      f0      :     0.001842  f :     0.011607
      f+1     :     0.003033
      f-1     :     0.000994
      f+2     :     0.001846
      f-2     :     0.001836
      f+3     :     0.000764
      f-3     :     0.001293
  2 O s       :     3.706508  s :     3.706508
      pz      :     1.202589  p :     4.560863
      px      :     1.599138
      py      :     1.759135
      dz2     :     0.010593  d :     0.035821
      dxz     :     0.012785
      dyz     :     0.005607
      dx2y2   :     0.003501
      dxy     :     0.003336
      f0      :     0.000724  f :     0.002317
      f+1     :     0.000631
[...]
 15 C s       :     2.710263  s :     2.710263
      pz      :     0.905158  p :     2.802980
      px      :     0.909999
      py      :     0.987823
      dz2     :     0.065500  d :     0.411117
      dxz     :     0.051036
      dyz     :     0.103314
      dx2y2   :     0.083528
      dxy     :     0.107740
      f0      :     0.006464  f :     0.040573
      f+1     :     0.003742
      f-1     :     0.004828
      f+2     :     0.007682
      f-2     :     0.004307
      f+3     :     0.007549
      f-3     :     0.006001
 16 C s       :     2.706497  s :     2.706497
      pz      :     0.956951  p :     2.857883
      px      :     0.932724
      py      :     0.968208
      dz2     :     0.086105  d :     0.387438
      dxz     :     0.066376
      dyz     :     0.087144
      dx2y2   :     0.091073
      dxy     :     0.056741
      f0      :     0.004439  f :     0.039759
      f+1     :     0.005691
      f-1     :     0.006289
      f+2     :     0.007786
      f-2     :     0.006651
      f+3     :     0.004409
      f-3     :     0.004494
 17 C s       :     2.702007  s :     2.702007
      pz      :     0.847917  p :     2.685101
      px      :     0.845339
      py      :     0.991845
      dz2     :     0.173618  d :     0.714041
      dxz     :     0.115967
      dyz     :     0.169687
      dx2y2   :     0.129630
      dxy     :     0.125140
      f0      :     0.017961  f :     0.099913
      f+1     :     0.013985
      f-1     :     0.015784
      f+2     :     0.019777
      f-2     :     0.011744
      f+3     :     0.011839
      f-3     :     0.008822
 18 O s       :     3.185868  s :     3.185868
      pz      :     1.493175  p :     4.375774
      px      :     1.599032
      py      :     1.283567
      dz2     :     0.017328  d :     0.071840
      dxz     :     0.013248
      dyz     :     0.018105
      dx2y2   :     0.015781
      dxy     :     0.007378
      f0      :     0.000854  f :     0.005555
      f+1     :     0.000770
      f-1     :     0.001058
      f+2     :     0.001157
      f-2     :     0.000882
      f+3     :     0.000369
      f-3     :     0.000465
 19 C s       :     2.703405  s :     2.703405
      pz      :     0.949470  p :     2.855786
      px      :     0.921774
      py      :     0.984542
      dz2     :     0.068282  d :     0.388941
      dxz     :     0.056353
      dyz     :     0.111696
      dx2y2   :     0.072136
      dxy     :     0.080475
      f0      :     0.006301  f :     0.039699
      f+1     :     0.003887
      f-1     :     0.006090
      f+2     :     0.007388
      f-2     :     0.004202
      f+3     :     0.006328
      f-3     :     0.005503
 20 H s       :     0.824243  s :     0.824243
      pz      :     0.053556  p :     0.155741
      px      :     0.058421
      py      :     0.043764
      dz2     :     0.007797  d :     0.028771
      dxz     :     0.006379
      dyz     :     0.003986
      dx2y2   :     0.005174
      dxy     :     0.005435
 21 H s       :     0.846326  s :     0.846326
      pz      :     0.039840  p :     0.149476
      px      :     0.042667
      py      :     0.066968
      dz2     :     0.003135  d :     0.027224
      dxz     :     0.001444
      dyz     :     0.007549
      dx2y2   :     0.006778
      dxy     :     0.008317
 22 H s       :     0.837974  s :     0.837974
      pz      :     0.040467  p :     0.153867
      px      :     0.059552
      py      :     0.053848
      dz2     :     0.003157  d :     0.027921
      dxz     :     0.005099
      dyz     :     0.004015
      dx2y2   :     0.009330
      dxy     :     0.006320
 23 H s       :     0.844289  s :     0.844289
      pz      :     0.032822  p :     0.147339
      px      :     0.036540
      py      :     0.077977
      dz2     :     0.003088  d :     0.027731
      dxz     :     0.001176
      dyz     :     0.006910
      dx2y2   :     0.007615
      dxy     :     0.008942
 24 H s       :     0.844526  s :     0.844526
      pz      :     0.029587  p :     0.145876
      px      :     0.069177
      py      :     0.047112
      dz2     :     0.002757  d :     0.027030
      dxz     :     0.006224
      dyz     :     0.001331
      dx2y2   :     0.009280
      dxy     :     0.007437
 25 H s       :     0.821744  s :     0.821744
      pz      :     0.043784  p :     0.151939
      px      :     0.053524
      py      :     0.054632
      dz2     :     0.004556  d :     0.027860
      dxz     :     0.004585
      dyz     :     0.004901
      dx2y2   :     0.007877
      dxy     :     0.005942
 26 H s       :     0.831497  s :     0.831497
      pz      :     0.034459  p :     0.151341
      px      :     0.067571
      py      :     0.049312
      dz2     :     0.002440  d :     0.028049
      dxz     :     0.006886
      dyz     :     0.002146
      dx2y2   :     0.008617
      dxy     :     0.007960
 27 H s       :     0.828103  s :     0.828103
      pz      :     0.050075  p :     0.151741
      px      :     0.040156
      py      :     0.061510
      dz2     :     0.006349  d :     0.027629
      dxz     :     0.003283
      dyz     :     0.007222
      dx2y2   :     0.004356
      dxy     :     0.006419
 28 H s       :     0.697620  s :     0.697620
      pz      :     0.050191  p :     0.243463
      px      :     0.099468
      py      :     0.093804
      dz2     :     0.007720  d :     0.059661
      dxz     :     0.011450
      dyz     :     0.006980
      dx2y2   :     0.018969
      dxy     :     0.014542
 29 H s       :     0.721126  s :     0.721126
      pz      :     0.123189  p :     0.251330
      px      :     0.063851
      py      :     0.064290
      dz2     :     0.020453  d :     0.060583
      dxz     :     0.018772
      dyz     :     0.018747
      dx2y2   :     0.001565
      dxy     :     0.001046
 30 H s       :     0.822421  s :     0.822421
      pz      :     0.040107  p :     0.154601
      px      :     0.075462
      py      :     0.039032
      dz2     :     0.004335  d :     0.029598
      dxz     :     0.008349
      dyz     :     0.001173
      dx2y2   :     0.007691
      dxy     :     0.008050
 31 H s       :     0.839299  s :     0.839299
      pz      :     0.063438  p :     0.163669
      px      :     0.056498
      py      :     0.043733
      dz2     :     0.006686  d :     0.027910
      dxz     :     0.006512
      dyz     :     0.005218
      dx2y2   :     0.004874
      dxy     :     0.004621
 32 H s       :     0.831522  s :     0.831522
      pz      :     0.047881  p :     0.152017
      px      :     0.059913
      py      :     0.044223
      dz2     :     0.004463  d :     0.026597
      dxz     :     0.005950
      dyz     :     0.003766
      dx2y2   :     0.006128
      dxy     :     0.006290
 33 H s       :     0.832846  s :     0.832846
      pz      :     0.040161  p :     0.159547
      px      :     0.041080
      py      :     0.078305
      dz2     :     0.003144  d :     0.027960
      dxz     :     0.000662
      dyz     :     0.008577
      dx2y2   :     0.007196
      dxy     :     0.008380
 34 H s       :     0.662607  s :     0.662607
      pz      :     0.096986  p :     0.349637
      px      :     0.094550
      py      :     0.158100
      dz2     :     0.010605  d :     0.101303
      dxz     :     0.002992
      dyz     :     0.032714
      dx2y2   :     0.022237
      dxy     :     0.032755
 35 H s       :     0.836794  s :     0.836794
      pz      :     0.055367  p :     0.157624
      px      :     0.057924
      py      :     0.044333
      dz2     :     0.006391  d :     0.027871
      dxz     :     0.006013
      dyz     :     0.005512
      dx2y2   :     0.005209
      dxy     :     0.004746


                      *****************************
                      * MAYER POPULATION ANALYSIS *
                      *****************************

  NA   - Mulliken gross atomic population
  ZA   - Total nuclear charge
  QA   - Mulliken gross atomic charge
  VA   - Mayer's total valence
  BVA  - Mayer's bonded valence
  FA   - Mayer's free valence

  ATOM       NA         ZA         QA         VA         BVA        FA
  0 C      6.2935     6.0000    -0.2935     3.8993     3.8993     0.0000
  1 C      5.9493     6.0000     0.0507     3.8399     3.8399     0.0000
  2 O      8.3055     8.0000    -0.3055     2.1259     2.1259    -0.0000
  3 C      5.4878     6.0000     0.5122     4.2659     4.2659    -0.0000
  4 O      8.5927     8.0000    -0.5927     1.9625     1.9625    -0.0000
  5 C      6.1770     6.0000    -0.1770     3.5993     3.5993    -0.0000
  6 C      5.8757     6.0000     0.1243     3.8253     3.8253    -0.0000
  7 C      6.2855     6.0000    -0.2855     3.8765     3.8765     0.0000
  8 N      7.0791     7.0000    -0.0791     3.4696     3.4696    -0.0000
  9 C      5.6242     6.0000     0.3758     3.9973     3.9973    -0.0000
 10 S     16.7802    16.0000    -0.7802     1.3255     1.3255    -0.0000
 11 N      7.2422     7.0000    -0.2422     3.3071     3.3071     0.0000
 12 C      5.8999     6.0000     0.1001     3.8857     3.8857    -0.0000
 13 C      6.0324     6.0000    -0.0324     3.7562     3.7562    -0.0000
 14 C      6.2626     6.0000    -0.2626     3.7923     3.7923    -0.0000
 15 C      6.1805     6.0000    -0.1805     3.7685     3.7685    -0.0000
 16 C      6.2688     6.0000    -0.2688     3.7878     3.7878    -0.0000
 17 C      5.6684     6.0000     0.3316     3.8560     3.8560     0.0000
 18 O      8.4434     8.0000    -0.4434     2.0615     2.0615    -0.0000
 19 C      6.2646     6.0000    -0.2646     3.8390     3.8390     0.0000
 20 H      0.8941     1.0000     0.1059     0.9782     0.9782    -0.0000
 21 H      0.8929     1.0000     0.1071     0.9836     0.9836     0.0000
 22 H      0.8890     1.0000     0.1110     0.9792     0.9792     0.0000
 23 H      0.8972     1.0000     0.1028     0.9788     0.9788     0.0000
 24 H      0.8908     1.0000     0.1092     0.9775     0.9775    -0.0000
 25 H      0.8610     1.0000     0.1390     0.9760     0.9760     0.0000
 26 H      0.8811     1.0000     0.1189     0.9877     0.9877     0.0000
 27 H      0.8607     1.0000     0.1393     0.9768     0.9768     0.0000
 28 H      0.7382     1.0000     0.2618     0.9604     0.9604     0.0000
 29 H      0.7328     1.0000     0.2672     0.9614     0.9614    -0.0000
 30 H      0.8341     1.0000     0.1659     0.9908     0.9908    -0.0000
 31 H      0.7976     1.0000     0.2024     0.9600     0.9600     0.0000
 32 H      0.7898     1.0000     0.2102     0.9595     0.9595     0.0000
 33 H      0.8324     1.0000     0.1676     0.9806     0.9806    -0.0000
 34 H      0.6719     1.0000     0.3281     0.9382     0.9382     0.0000
 35 H      0.8232     1.0000     0.1768     0.9821     0.9821     0.0000

  Mayer bond orders larger than 0.100000
B(  0-C ,  1-C ) :   0.9835 B(  0-C , 20-H ) :   0.9728 B(  0-C , 21-H ) :   0.9765 
B(  0-C , 22-H ) :   0.9764 B(  1-C ,  2-O ) :   0.8753 B(  1-C , 23-H ) :   0.9758 
B(  1-C , 24-H ) :   0.9727 B(  2-O ,  3-C ) :   1.2676 B(  3-C ,  4-O ) :   1.8975 
B(  3-C ,  5-C ) :   1.0746 B(  5-C ,  6-C ) :   1.6095 B(  5-C , 12-C ) :   0.9830 
B(  6-C ,  7-C ) :   0.9530 B(  6-C ,  8-N ) :   1.1519 B(  7-C , 25-H ) :   0.9593 
B(  7-C , 26-H ) :   0.9920 B(  7-C , 27-H ) :   0.9580 B(  8-N ,  9-C ) :   1.3337 
B(  8-N , 28-H ) :   0.9130 B(  9-C , 10-S ) :   1.1779 B(  9-C , 11-N ) :   1.4037 
B( 11-N , 12-C ) :   0.9276 B( 11-N , 29-H ) :   0.9173 B( 12-C , 13-C ) :   0.9491 
B( 12-C , 30-H ) :   1.0014 B( 13-C , 14-C ) :   1.3317 B( 13-C , 19-C ) :   1.3988 
B( 14-C , 15-C ) :   1.3999 B( 14-C , 31-H ) :   0.9546 B( 15-C , 16-C ) :   1.3351 
B( 15-C , 32-H ) :   0.9515 B( 16-C , 17-C ) :   1.3561 B( 16-C , 33-H ) :   0.9734 
B( 17-C , 18-O ) :   1.0966 B( 17-C , 19-C ) :   1.3401 B( 18-O , 34-H ) :   0.9204 
B( 19-C , 35-H ) :   0.9512 

-------
TIMINGS
-------

Total SCF time: 0 days 1 hours 59 min 55 sec 

Total time                  ....    7195.270 sec
Sum of individual times     ....    7186.290 sec  ( 99.9%)

Fock matrix formation       ....    7169.445 sec  ( 99.6%)
Diagonalization             ....       1.723 sec  (  0.0%)
Density matrix formation    ....       0.217 sec  (  0.0%)
Population analysis         ....       0.632 sec  (  0.0%)
Initial guess               ....       6.478 sec  (  0.1%)
Orbital Transformation      ....       0.000 sec  (  0.0%)
Orbital Orthonormalization  ....       0.000 sec  (  0.0%)
DIIS solution               ....       3.746 sec  (  0.1%)
SOSCF solution              ....       2.457 sec  (  0.0%)

Maximum memory used throughout the entire SCF-calculation: 713.5 MB

------------------------------------------------------------------------------
                                ORCA  MP2 
------------------------------------------------------------------------------

Freezing NCore=48 chemical core electrons

-------------
RI-MP2 ENERGY
-------------
Dimension of the basis                    ...  828
Memory devoted to MP2                     ...  256 MB   
Data format for buffers                   ... DOUBLE
Compression type for matrix containers    ... UNCOMPRESSED
Overall scaling of the MP2 energy         ...   1.000e+00
Calculating two index integrals           ... done (    0.046 sec)
Cholesky decomposition of V**-1           ... done (    0.594 sec)

-----------------
RI-TRANSFORMATION (AUX index driven)
-----------------

Dimension of the orbital-basis         ... 828
Dimension of the aux-basis             ... 2141
Transformation of internal/external MOs...   24-  76 to   77- 827
Number Format for Storage              ... Double (8 Byte)
Integral mode                          ... Direct

First Phase: integral generation and transformation of MO indices
  Aux angular momentum 0               ... done (    5.300 sec)
  Aux angular momentum 1               ... done (    8.350 sec)
  Aux angular momentum 2               ... done (    9.256 sec)
  Aux angular momentum 3               ... done (    8.342 sec)
  Aux angular momentum 4               ... done (    2.857 sec)
Closing buffer VIA ( 0.63 GB; CompressionRatio= 1.00)
  Phase 1 completed in    34.637 sec
Second Phase: sorting and transformation of aux index

IA-Transformation
Memory available                       ... 158 MB 
Max. # MO pairs treated in a batch     ... 11    
# of internal orbitals                 ... 53
# batches for internal orbitals        ... 5
Closing buffer IAV ( 0.63 GB; CompressionRatio= 1.00)
(ia|v) transformation done in    26.705 sec

  Phase 2 completed in    26.713 sec
RI-Integral transformation completed in    61.401 sec
Opening buffers                              ... done

Starting loop over batches of integrals:

Operator 0  - window                       ... ( 24- 76)x( 77-827)
Operator 0  - Memory available             ...   256 MB
Operator 0  - Memory needed per MO         ...  12.3 MB
Operator 0  - Number of orbitals per batch ... 13
Operator 0  - Number of batches            ... 5

OPERATOR  0   PASS   0:  MOs    24 ...   36
  Reading integrals       ... ok
  Internal MO  26
  Internal MO  29
  Internal MO  32
  Internal MO  35
OPERATOR  0   PASS   1:  MOs    37 ...   49
  Reading integrals       ... ok
  Internal MO  38
  Internal MO  41
  Internal MO  44
  Internal MO  47
OPERATOR  0   PASS   2:  MOs    50 ...   62
  Reading integrals       ... ok
  Internal MO  50
  Internal MO  53
  Internal MO  56
  Internal MO  59
  Internal MO  62
OPERATOR  0   PASS   3:  MOs    63 ...   75
  Reading integrals       ... ok
  Internal MO  65
  Internal MO  68
  Internal MO  71
  Internal MO  74
OPERATOR  0   PASS   4:  MOs    76 ...   76
  Reading integrals       ... ok
Time spent in pair loops =    98.746 sec
Deleting buffer (Ka|jb)[aa] ...done

-----------------------------------------------
 RI-MP2 CORRELATION ENERGY:     -3.522860703 Eh
-----------------------------------------------


-------
TIMINGS
-------

Total time                :  160.882 sec
Integral trafo            :   61.421 sec ( 38.2%)
I/O of integrals          :    4.343 sec (  2.7%)
K(i,j) Operators          :   65.179 sec ( 40.5%)
T(i,j) pair energies      :    9.027 sec (  5.6%)
V-calculation             :    0.046 sec (  0.0%)
V**(-1/2)                 :    0.594 sec (  0.4%)
Gamma(ia|P)               :    0.000 sec (  0.0%)
Gamma-Trafo               :    0.000 sec (  0.0%)
D(virtual)                :    0.000 sec (  0.0%)
D(internal)               :    0.000 sec (  0.0%)
W(virtual)                :    0.000 sec (  0.0%)
W(internal)               :    0.000 sec (  0.0%)
L(virtual)                :    0.000 sec (  0.0%)
L(internal)               :    0.000 sec (  0.0%)
G(D)                      :    0.000 sec (  0.0%)
G(Z)                      :    0.000 sec (  0.0%)
Z-Vector Solution         :    0.000 sec (  0.0%)
3-Index Derivative        :    0.000 sec (  0.0%)
2-Index Derivative        :    0.000 sec (  0.0%)
Separable Gradient        :    0.000 sec (  0.0%)


---------------------------------------
MP2 TOTAL ENERGY:    -1274.448294699 Eh
---------------------------------------

Maximum memory used throughout the entire MP2-calculation: 302.5 MB

-------------------------   --------------------
FINAL SINGLE POINT ENERGY     -1274.448294699500
-------------------------   --------------------


                            ***************************************
                            *     ORCA property calculations      *
                            ***************************************


  WARNING: The energy has been calculated at the MP2 level but the densities
           used in the property calculations are still SCF densities
           MP2 response densities have not been calculated 
           use %mp2 Density relaxed end
           or  %mp2 Density unrelaxed end

                                    ---------------------
                                    Active property flags
                                    ---------------------
   (+) Dipole Moment


------------------------------------------------------------------------------
                       ORCA ELECTRIC PROPERTIES CALCULATION
------------------------------------------------------------------------------

Dipole Moment Calculation                       ... on
Quadrupole Moment Calculation                   ... off
Polarizability Calculation                      ... off
GBWName                                         ... qm_input.solv.gbw
Electron density file                           ... qm_input.solv.scfp
The origin for moment calculation is the CENTER OF MASS  = (-12.659628, -23.116600  9.095508)

-------------
DIPOLE MOMENT
-------------
                                X             Y             Z
Electronic contribution:      2.69698      -3.21673      17.17812
Nuclear contribution   :     -2.58512       4.78144     -21.32320
                        -----------------------------------------
Total Dipole Moment    :      0.11186       1.56471      -4.14508
                        -----------------------------------------
Magnitude (a.u.)       :      4.43199
Magnitude (Debye)      :     11.26523



--------------------
Rotational spectrum 
--------------------
 
Rotational constants in cm-1:     0.010125     0.008609     0.005285 
Rotational constants in MHz :   303.539678   258.099789   158.433401 

 Dipole components along the rotational axes: 
x,y,z [a.u.] :    -2.647806     2.936600    -2.002012 
x,y,z [Debye]:    -6.730187     7.464245    -5.088711 

 

Timings for individual modules:

Sum of individual times         ...     7594.721 sec (= 126.579 min)
GTO integral calculation        ...      236.817 sec (=   3.947 min)   3.1 %
SCF iterations                  ...     7195.498 sec (= 119.925 min)  94.7 %
MP2 module                      ...      162.407 sec (=   2.707 min)   2.1 %
                             ****ORCA TERMINATED NORMALLY****
TOTAL RUN TIME: 0 days 2 hours 6 minutes 37 seconds 569 msec
