
                                        *****************
                                        * O   R   C   A *
                                        *****************

                                            #,                                       
                                            ###                                      
                                            ####                                     
                                            #####                                    
                                            ######                                   
                                           ########,                                 
                                     ,,################,,,,,                         
                               ,,#################################,,                 
                          ,,##########################################,,             
                       ,#########################################, ''#####,          
                    ,#############################################,,   '####,        
                  ,##################################################,,,,####,       
                ,###########''''           ''''###############################       
              ,#####''   ,,,,##########,,,,          '''####'''          '####       
            ,##' ,,,,###########################,,,                        '##       
           ' ,,###''''                  '''############,,,                           
         ,,##''                                '''############,,,,        ,,,,,,###''
      ,#''                                            '''#######################'''  
     '                                                          ''''####''''         
             ,#######,   #######,   ,#######,      ##                                
            ,#'     '#,  ##    ##  ,#'     '#,    #''#        ######   ,####,        
            ##       ##  ##   ,#'  ##            #'  '#       #        #'  '#        
            ##       ##  #######   ##           ,######,      #####,   #    #        
            '#,     ,#'  ##    ##  '#,     ,#' ,#      #,         ##   #,  ,#        
             '#######'   ##     ##  '#######'  #'      '#     #####' # '####'        



                  #######################################################
                  #                        -***-                        #
                  #          Department of theory and spectroscopy      #
                  #    Directorship and core code : Frank Neese         #
                  #        Max Planck Institute fuer Kohlenforschung    #
                  #                Kaiser Wilhelm Platz 1               #
                  #                 D-45470 Muelheim/Ruhr               #
                  #                      Germany                        #
                  #                                                     #
                  #                  All rights reserved                #
                  #                        -***-                        #
                  #######################################################


                         Program Version 5.0.0 -  RELEASE  -
                                (SVN: $Rev: 19529$)
                ($Date: 2021-06-28 11:36:33 +0200 (Mo, 28 Jun 2021) $)


 With contributions from (in alphabetic order):
   Daniel Aravena         : Magnetic Suceptibility
   Michael Atanasov       : Ab Initio Ligand Field Theory (pilot matlab implementation)
   Alexander A. Auer      : GIAO ZORA, VPT2 properties, NMR spectrum
   Ute Becker             : Parallelization
   Giovanni Bistoni       : ED, misc. LED, open-shell LED, HFLD
   Martin Brehm           : Molecular dynamics
   Dmytro Bykov           : SCF Hessian
   Vijay G. Chilkuri      : MRCI spin determinant printing, contributions to CSF-ICE
   Dipayan Datta          : RHF DLPNO-CCSD density
   Achintya Kumar Dutta   : EOM-CC, STEOM-CC
   Dmitry Ganyushin       : Spin-Orbit,Spin-Spin,Magnetic field MRCI
   Miquel Garcia          : C-PCM Hessian, Gaussian charge scheme
   Yang Guo               : DLPNO-NEVPT2, F12-NEVPT2, CIM, IAO-localization
   Andreas Hansen         : Spin unrestricted coupled pair/coupled cluster methods
   Benjamin Helmich-Paris : MC-RPA, TRAH-SCF, COSX integrals
   Lee Huntington         : MR-EOM, pCC
   Robert Izsak           : Overlap fitted RIJCOSX, COSX-SCS-MP3, EOM
   Marcus Kettner         : VPT2
   Christian Kollmar      : KDIIS, OOCD, Brueckner-CCSD(T), CCSD density, CASPT2, CASPT2-K
   Simone Kossmann        : Meta GGA functionals, TD-DFT gradient, OOMP2, MP2 Hessian
   Martin Krupicka        : Initial AUTO-CI
   Lucas Lang             : DCDCAS
   Marvin Lechner         : AUTO-CI (C++ implementation), FIC-MRCC
   Dagmar Lenk            : GEPOL surface, SMD
   Dimitrios Liakos       : Extrapolation schemes; Compound Job, initial MDCI parallelization
   Dimitrios Manganas     : Further ROCIS development; embedding schemes
   Dimitrios Pantazis     : SARC Basis sets
   Anastasios Papadopoulos: AUTO-CI, single reference methods and gradients
   Taras Petrenko         : DFT Hessian,TD-DFT gradient, ASA, ECA, R-Raman, ABS, FL, XAS/XES, NRVS
   Peter Pinski           : DLPNO-MP2, DLPNO-MP2 Gradient
   Christoph Reimann      : Effective Core Potentials
   Marius Retegan         : Local ZFS, SOC
   Christoph Riplinger    : Optimizer, TS searches, QM/MM, DLPNO-CCSD(T), (RO)-DLPNO pert. Triples
   Tobias Risthaus        : Range-separated hybrids, TD-DFT gradient, RPA, STAB
   Michael Roemelt        : Original ROCIS implementation
   Masaaki Saitow         : Open-shell DLPNO-CCSD energy and density
   Barbara Sandhoefer     : DKH picture change effects
   Avijit Sen             : IP-ROCIS
   Kantharuban Sivalingam : CASSCF convergence, NEVPT2, FIC-MRCI
   Bernardo de Souza      : ESD, SOC TD-DFT
   Georgi Stoychev        : AutoAux, RI-MP2 NMR
   Willem Van den Heuvel  : Paramagnetic NMR
   Boris Wezisla          : Elementary symmetry handling
   Frank Wennmohs         : Technical directorship


 We gratefully acknowledge several colleagues who have allowed us to
 interface, adapt or use parts of their codes:
   Stefan Grimme, W. Hujo, H. Kruse, P. Pracht,  : VdW corrections, initial TS optimization,
                  C. Bannwarth, S. Ehlert          DFT functionals, gCP, sTDA/sTD-DF
   Ed Valeev, F. Pavosevic, A. Kumar             : LibInt (2-el integral package), F12 methods
   Garnet Chan, S. Sharma, J. Yang, R. Olivares  : DMRG
   Ulf Ekstrom                                   : XCFun DFT Library
   Mihaly Kallay                                 : mrcc  (arbitrary order and MRCC methods)
   Jiri Pittner, Ondrej Demel                    : Mk-CCSD
   Frank Weinhold                                : gennbo (NPA and NBO analysis)
   Christopher J. Cramer and Donald G. Truhlar   : smd solvation model
   Lars Goerigk                                  : TD-DFT with DH, B97 family of functionals
   V. Asgeirsson, H. Jonsson                     : NEB implementation
   FAccTs GmbH                                   : IRC, NEB, NEB-TS, DLPNO-Multilevel, CI-OPT
                                                   MM, QMMM, 2- and 3-layer-ONIOM, Crystal-QMMM,
                                                   LR-CPCM, SF, NACMEs, symmetry and pop. for TD-DFT,
                                                   nearIR, NL-DFT gradient (VV10), updates on ESD,
                                                   ML-optimized integration grids
   S Lehtola, MJT Oliveira, MAL Marques          : LibXC Library
   Liviu Ungur et al                             : ANISO software


 Your calculation uses the libint2 library for the computation of 2-el integrals
 For citations please refer to: http://libint.valeyev.net

 Your ORCA version has been built with support for libXC version: 5.1.0
 For citations please refer to: https://tddft.org/programs/libxc/

 This ORCA versions uses:
   CBLAS   interface :  Fast vector & matrix operations
   LAPACKE interface :  Fast linear algebra routines
   SCALAPACK package :  Parallel linear algebra routines
   Shared memory     :  Shared parallel matrices
   BLAS/LAPACK       :  OpenBLAS 0.3.15  USE64BITINT DYNAMIC_ARCH NO_AFFINITY SkylakeX SINGLE_THREADED
        Core in use  :  SkylakeX
   Copyright (c) 2011-2014, The OpenBLAS Project


================================================================================

----- Orbital basis set information -----
Your calculation utilizes the basis: cc-pVTZ 
       H, B-Ne : Obtained from the ccRepo (grant-hill.group.shef.ac.uk/ccrepo) Feb. 2017
                 T. H. Dunning, Jr., J. Chem. Phys. 90, 1007 (1989)
            He : Obtained from the ccRepo (grant-hill.group.shef.ac.uk/ccrepo) Feb. 2017
                 D. E. Woon, T. H. Dunning, Jr., J. Chem. Phys. 100, 2975 (1994)
  Li-Be, Na-Mg : Obtained from the ccRepo (grant-hill.group.shef.ac.uk/ccrepo) Feb. 2017
                 B. P. Prascher, D. E. Woon, K. A. Peterson, T. H. Dunning, Jr., A. K. Wilson, Theor. Chem. Acc. 128, 69 (2011)
         Al-Ar : Obtained from the ccRepo (grant-hill.group.shef.ac.uk/ccrepo) Feb. 2017
                 D. E. Woon, T. H. Dunning, Jr., J. Chem. Phys. 98, 1358 (1993)
            Ca : Obtained from the Peterson Research Group Website (tyr0.chem.wsu.edu/~kipeters) Feb. 2017
                 J. Koput, K. A. Peterson, J. Phys. Chem. 106, 9595 (2002)
         Sc-Zn : Obtained from the ccRepo (grant-hill.group.shef.ac.uk/ccrepo) Feb. 2017
                 N. B. Balabanov, K. A. Peterson, J. Chem. Phys. 123, 064107 (2005)
                 N. B. Balabanov, K. A. Peterson, J. Chem. Phys. 125, 074110 (2006)
         Ga-Kr : Obtained from the ccRepo (grant-hill.group.shef.ac.uk/ccrepo) Feb. 2017
                 A. K. Wilson, D. E. Woon, K. A. Peterson, T. H. Dunning, Jr., J. Chem. Phys. 110, 7667 (1999)
             Y : Obtained from the ccRepo (grant-hill.group.shef.ac.uk/ccrepo) Feb. 2017
                 K. A. Peterson, D. Figgen, M. Dolg, H. Stoll, J. Chem. Phys. 126, 124101 (2007)
        Ag, Au : Obtained from the Peterson Research Group Website (tyr0.chem.wsu.edu/~kipeters) Feb. 2017
                 K. A. Peterson, C. Puzzarini, Theor. Chem. Acc. 114, 283 (2005)

----- AuxC basis set information -----
Your calculation utilizes the auxiliary basis: cc-pVTZ/C 
  Obtained from the EMSL Basis Set Exchange (bse.pnl.gov) Feb. 2017
  H-He, B-F, Al-Ar, Ga-Kr : F. Weigend, A. Kohn, C. Hattig, J. Chem. Phys. 116, 3175 (2002)
             Li-Be, Na-Mg : C. Haettig, Phys. Chem. Chem. Phys. 7, 59 (2005)
                       Ne : C. Haettig, Phys. Chem. Chem. Phys. 7, 59 (2005)
                            F. Weigend, A. Kohn, C. Hattig, J. Chem. Phys. 116, 3175 (2002)
                    Sc-Zn : J. G. Hill, J. A. Platts, J. Chem. Phys. 128, 044104 (2008)

================================================================================
                                        WARNINGS
                       Please study these warnings very carefully!
================================================================================


WARNING: No MP2 level density has been requested!
         To caclulate MP2 level properties use
         %mp2 Density relaxed end
         or
         %mp2 Density unrelaxed end

WARNING: Post HF methods need fully converged wavefunctions
  ===> : Setting SCFConvForced true
         You can overwrite this default with %scf ConvForced false 


INFO   : the flag for use of the SHARK integral package has been found!

================================================================================
                                       INPUT FILE
================================================================================
NAME = qm_input.solv
|  1> ! RI-MP2 cc-pVTZ cc-pVTZ/c TightSCF KeepDens NoKeepInts
|  2> 
|  3> %pointcharges "srfp_output"
|  4> 
|  5> *xyz  0  1
|  6>     C     5.1488347    1.9362183  -18.9327749
|  7>     C     4.3929959    0.6878907  -18.4304656
|  8>     O     3.8793165   -0.1250248  -19.5202086
|  9>     C     3.4495119   -1.3492777  -19.2209892
| 10>     O     3.5582271   -1.8991178  -18.0932229
| 11>     C     2.6443393   -2.0437524  -20.2404581
| 12>     C     2.3517395   -1.5257998  -21.4586287
| 13>     C     2.8167385   -0.2772190  -22.0247312
| 14>     N     1.4689873   -2.1514419  -22.2887671
| 15>     C     0.7955234   -3.3488387  -22.0165728
| 16>     S    -0.2337944   -3.9767343  -23.1201376
| 17>     N     1.1812132   -3.9062238  -20.8604264
| 18>     C     2.0284879   -3.3548130  -19.7766381
| 19>     C     2.9257236   -4.5117745  -19.2729206
| 20>     C     4.1954914   -4.6808495  -19.7264281
| 21>     C     4.9460920   -5.8373884  -19.3806999
| 22>     C     4.3413769   -6.8360192  -18.6022513
| 23>     C     3.0325179   -6.6648699  -18.1535029
| 24>     O     2.3094372   -7.6130447  -17.4815068
| 25>     C     2.2902143   -5.5224446  -18.5078604
| 26>     H     4.5157153    2.4391340  -19.6740083
| 27>     H     5.9789456    1.6675411  -19.5975443
| 28>     H     5.5602889    2.6725045  -18.2315063
| 29>     H     5.1266574    0.0607094  -17.9093375
| 30>     H     3.6481412    0.9936447  -17.6855526
| 31>     H     3.9075006   -0.1809688  -22.0892253
| 32>     H     2.3377092    0.5868248  -21.5481295
| 33>     H     2.5528919   -0.0903566  -23.0728996
| 34>     H     1.0980217   -1.6094417  -23.0598616
| 35>     H     0.9435467   -4.8857765  -20.7606381
| 36>     H     1.3588267   -3.0352912  -18.9687709
| 37>     H     4.6211650   -4.0115675  -20.4682247
| 38>     H     5.9994754   -5.9471207  -19.6209878
| 39>     H     4.8717352   -7.7679172  -18.4299662
| 40>     H     3.0151856   -8.0865350  -17.0077392
| 41>     H     1.2895136   -5.3687872  -18.1149437
| 42> *
| 43> 
| 44>                          ****END OF INPUT****
================================================================================

                       ****************************
                       * Single Point Calculation *
                       ****************************

---------------------------------
CARTESIAN COORDINATES (ANGSTROEM)
---------------------------------
  C      5.148835    1.936218  -18.932775
  C      4.392996    0.687891  -18.430466
  O      3.879316   -0.125025  -19.520209
  C      3.449512   -1.349278  -19.220989
  O      3.558227   -1.899118  -18.093223
  C      2.644339   -2.043752  -20.240458
  C      2.351739   -1.525800  -21.458629
  C      2.816739   -0.277219  -22.024731
  N      1.468987   -2.151442  -22.288767
  C      0.795523   -3.348839  -22.016573
  S     -0.233794   -3.976734  -23.120138
  N      1.181213   -3.906224  -20.860426
  C      2.028488   -3.354813  -19.776638
  C      2.925724   -4.511774  -19.272921
  C      4.195491   -4.680849  -19.726428
  C      4.946092   -5.837388  -19.380700
  C      4.341377   -6.836019  -18.602251
  C      3.032518   -6.664870  -18.153503
  O      2.309437   -7.613045  -17.481507
  C      2.290214   -5.522445  -18.507860
  H      4.515715    2.439134  -19.674008
  H      5.978946    1.667541  -19.597544
  H      5.560289    2.672504  -18.231506
  H      5.126657    0.060709  -17.909337
  H      3.648141    0.993645  -17.685553
  H      3.907501   -0.180969  -22.089225
  H      2.337709    0.586825  -21.548129
  H      2.552892   -0.090357  -23.072900
  H      1.098022   -1.609442  -23.059862
  H      0.943547   -4.885777  -20.760638
  H      1.358827   -3.035291  -18.968771
  H      4.621165   -4.011567  -20.468225
  H      5.999475   -5.947121  -19.620988
  H      4.871735   -7.767917  -18.429966
  H      3.015186   -8.086535  -17.007739
  H      1.289514   -5.368787  -18.114944

----------------------------
CARTESIAN COORDINATES (A.U.)
----------------------------
  NO LB      ZA    FRAG     MASS         X           Y           Z
   0 C     6.0000    0    12.011    9.729887    3.658922  -35.777760
   1 C     6.0000    0    12.011    8.301559    1.299925  -34.828533
   2 O     8.0000    0    15.999    7.330846   -0.236263  -36.887848
   3 C     6.0000    0    12.011    6.518633   -2.549765  -36.322406
   4 O     8.0000    0    15.999    6.724075   -3.588813  -34.191236
   5 C     6.0000    0    12.011    4.997077   -3.862132  -38.248923
   6 C     6.0000    0    12.011    4.444144   -2.883344  -40.550931
   7 C     6.0000    0    12.011    5.322864   -0.523868  -41.620710
   8 N     7.0000    0    14.007    2.775984   -4.065636  -42.119666
   9 C     6.0000    0    12.011    1.503321   -6.328388  -41.605293
  10 S    16.0000    0    32.060   -0.441807   -7.514939  -43.690728
  11 N     7.0000    0    14.007    2.232169   -7.381693  -39.420493
  12 C     6.0000    0    12.011    3.833287   -6.339678  -37.372430
  13 C     6.0000    0    12.011    5.528816   -8.526018  -36.420542
  14 C     6.0000    0    12.011    7.928330   -8.845524  -37.277547
  15 C     6.0000    0    12.011    9.346759  -11.031065  -36.624215
  16 C     6.0000    0    12.011    8.204013  -12.918204  -35.153160
  17 C     6.0000    0    12.011    5.730628  -12.594779  -34.305149
  18 O     8.0000    0    15.999    4.364204  -14.386570  -33.035260
  19 C     6.0000    0    12.011    4.327878  -10.435908  -34.974787
  20 H     1.0000    0     1.008    8.533465    4.609295  -37.178488
  21 H     1.0000    0     1.008   11.298570    3.151196  -37.033992
  22 H     1.0000    0     1.008   10.507423    5.050302  -34.452554
  23 H     1.0000    0     1.008    9.687978    0.114724  -33.843743
  24 H     1.0000    0     1.008    6.893988    1.877716  -33.420851
  25 H     1.0000    0     1.008    7.384106   -0.341981  -41.742586
  26 H     1.0000    0     1.008    4.417630    1.108938  -40.720063
  27 H     1.0000    0     1.008    4.824267   -0.170749  -43.601461
  28 H     1.0000    0     1.008    2.074960   -3.041404  -43.576823
  29 H     1.0000    0     1.008    1.783045   -9.232780  -39.231920
  30 H     1.0000    0     1.008    2.567810   -5.735869  -35.845782
  31 H     1.0000    0     1.008    8.732736   -7.580764  -38.679339
  32 H     1.0000    0     1.008   11.337365  -11.238429  -37.078293
  33 H     1.0000    0     1.008    9.206245  -14.679236  -34.827589
  34 H     1.0000    0     1.008    5.697875  -15.281337  -32.139969
  35 H     1.0000    0     1.008    2.436828  -10.145537  -34.232283

--------------------------------
INTERNAL COORDINATES (ANGSTROEM)
--------------------------------
 C      0   0   0     0.000000000000     0.00000000     0.00000000
 C      1   0   0     1.543349837650     0.00000000     0.00000000
 O      2   1   0     1.453354031946   112.42492135     0.00000000
 C      3   2   1     1.331562768583   117.37766846   166.89071511
 O      4   3   2     1.259364902518   125.08441724   353.56963275
 C      4   3   2     1.473063088533   117.02436841   165.80169645
 C      6   4   3     1.355665574362   124.03731023     1.73558690
 C      7   6   4     1.447636047021   127.70473543     4.17038189
 N      7   6   4     1.363748234482   120.75788272   188.03294759
 C      9   7   6     1.400500788363   125.81687366   359.37629406
 S     10   9   7     1.634503987666   120.00296108   180.12964240
 N     10   9   7     1.340190012558   112.63509545   355.21842331
 C     12  10   9     1.482067935971   129.83888650    10.23176814
 C     13  12  10     1.548329142541   106.92830071   218.90244011
 C     14  13  12     1.358883981103   121.72760759    96.40178443
 C     15  14  13     1.421446965669   120.89630695   187.82312456
 C     16  15  14     1.403184253660   119.10546669     2.43860438
 C     17  16  15     1.394194782401   119.72116241   358.38371795
 O     18  17  16     1.368743916327   124.67570977   174.56142285
 C     18  17  16     1.407735571213   120.90588737     2.16195039
 H      1   2   3     1.096900783680   107.94521936    49.44467839
 H      1   2   3     1.096900131860   111.70029841   302.77925950
 H      1   2   3     1.096899984663   121.23552084   177.42105180
 H      2   1   3     1.096900212536   106.83052115   115.66925012
 H      2   1   3     1.096899908924   109.15510837   230.93617012
 H      8   7   6     1.096898148750   114.71408799    57.70684375
 H      8   7   6     1.096900149977   111.66697708   287.49353643
 H      8   7   6     1.096899986154   116.31759441   173.43122579
 H      9   7   6     1.012900005486   117.06389740   163.80424863
 H     12  10   9     1.012900075090   114.81372658   197.88128598
 H     13  12  10     1.096900048453   107.33401204   101.62062029
 H     15  14  13     1.086001199370   121.16732172   359.40690067
 H     16  15  14     1.086000018391   122.72387491   187.82488336
 H     17  16  15     1.085999983639   119.22552749   173.20801004
 H     19  18  17     0.973000311977   101.12674513    30.71309633
 H     20  18  17     1.086000009528   120.63962644   183.14550310

---------------------------
INTERNAL COORDINATES (A.U.)
---------------------------
 C      0   0   0     0.000000000000     0.00000000     0.00000000
 C      1   0   0     2.916508521990     0.00000000     0.00000000
 O      2   1   0     2.746441096008   112.42492135     0.00000000
 C      3   2   1     2.516288962747   117.37766846   166.89071511
 O      4   3   2     2.379854768432   125.08441724   353.56963275
 C      4   3   2     2.783685815315   117.02436841   165.80169645
 C      6   4   3     2.561836664730   124.03731023     1.73558690
 C      7   6   4     2.735635670463   127.70473543     4.17038189
 N      7   6   4     2.577110678789   120.75788272   188.03294759
 C      9   7   6     2.646562940347   125.81687366   359.37629406
 S     10   9   7     3.088764901490   120.00296108   180.12964240
 N     10   9   7     2.532592091150   112.63509545   355.21842331
 C     12  10   9     2.800702510851   129.83888650    10.23176814
 C     13  12  10     2.925918044572   106.92830071   218.90244011
 C     14  13  12     2.567918572057   121.72760759    96.40178443
 C     15  14  13     2.686145479007   120.89630695   187.82312456
 C     16  15  14     2.651633954848   119.10546669     2.43860438
 C     17  16  15     2.634646316080   119.72116241   358.38371795
 O     18  17  16     2.586551149329   124.67570977   174.56142285
 C     18  17  16     2.660234698572   120.90588737     2.16195039
 H      1   2   3     2.072842077239   107.94521936    49.44467839
 H      1   2   3     2.072840845478   111.70029841   302.77925950
 H      1   2   3     2.072840567316   121.23552084   177.42105180
 H      2   1   3     2.072840997933   106.83052115   115.66925012
 H      2   1   3     2.072840424189   109.15510837   230.93617012
 H      8   7   6     2.072837097943   114.71408799    57.70684375
 H      8   7   6     2.072840879714   111.66697708   287.49353643
 H      8   7   6     2.072840570132   116.31759441   173.43122579
 H      9   7   6     1.914103611416   117.06389740   163.80424863
 H     12  10   9     1.914103742948   114.81372658   197.88128598
 H     13  12  10     2.072840687861   107.33401204   101.62062029
 H     15  14  13     2.052244847919   121.16732172   359.40690067
 H     16  15  14     2.052242616192   122.72387491   187.82488336
 H     17  16  15     2.052242550522   119.22552749   173.20801004
 H     19  18  17     1.838704117856   101.12674513    30.71309633
 H     20  18  17     2.052242599443   120.63962644   183.14550310

---------------------
BASIS SET INFORMATION
---------------------
There are 5 groups of distinct atoms

 Group   1 Type C   : 18s5p2d1f contracted to 4s3p2d1f pattern {8811/311/11/1}
 Group   2 Type O   : 18s5p2d1f contracted to 4s3p2d1f pattern {8811/311/11/1}
 Group   3 Type N   : 18s5p2d1f contracted to 4s3p2d1f pattern {8811/311/11/1}
 Group   4 Type S   : 41s16p2d1f contracted to 5s4p2d1f pattern {13131311/7711/11/1}
 Group   5 Type H   : 5s2p1d contracted to 3s2p1d pattern {311/11/1}

Atom   0C    basis set group =>   1
Atom   1C    basis set group =>   1
Atom   2O    basis set group =>   2
Atom   3C    basis set group =>   1
Atom   4O    basis set group =>   2
Atom   5C    basis set group =>   1
Atom   6C    basis set group =>   1
Atom   7C    basis set group =>   1
Atom   8N    basis set group =>   3
Atom   9C    basis set group =>   1
Atom  10S    basis set group =>   4
Atom  11N    basis set group =>   3
Atom  12C    basis set group =>   1
Atom  13C    basis set group =>   1
Atom  14C    basis set group =>   1
Atom  15C    basis set group =>   1
Atom  16C    basis set group =>   1
Atom  17C    basis set group =>   1
Atom  18O    basis set group =>   2
Atom  19C    basis set group =>   1
Atom  20H    basis set group =>   5
Atom  21H    basis set group =>   5
Atom  22H    basis set group =>   5
Atom  23H    basis set group =>   5
Atom  24H    basis set group =>   5
Atom  25H    basis set group =>   5
Atom  26H    basis set group =>   5
Atom  27H    basis set group =>   5
Atom  28H    basis set group =>   5
Atom  29H    basis set group =>   5
Atom  30H    basis set group =>   5
Atom  31H    basis set group =>   5
Atom  32H    basis set group =>   5
Atom  33H    basis set group =>   5
Atom  34H    basis set group =>   5
Atom  35H    basis set group =>   5
---------------------------------
AUXILIARY/C BASIS SET INFORMATION
---------------------------------
There are 5 groups of distinct atoms

 Group   1 Type C   : 8s6p5d3f1g contracted to 8s6p5d3f1g pattern {11111111/111111/11111/111/1}
 Group   2 Type O   : 8s6p5d3f1g contracted to 8s6p5d3f1g pattern {11111111/111111/11111/111/1}
 Group   3 Type N   : 8s6p5d3f1g contracted to 8s6p5d3f1g pattern {11111111/111111/11111/111/1}
 Group   4 Type S   : 10s8p7d5f2g contracted to 10s8p7d5f2g pattern {1111111111/11111111/1111111/11111/11}
 Group   5 Type H   : 4s3p2d1f contracted to 4s3p2d1f pattern {1111/111/11/1}

Atom   0C    basis set group =>   1
Atom   1C    basis set group =>   1
Atom   2O    basis set group =>   2
Atom   3C    basis set group =>   1
Atom   4O    basis set group =>   2
Atom   5C    basis set group =>   1
Atom   6C    basis set group =>   1
Atom   7C    basis set group =>   1
Atom   8N    basis set group =>   3
Atom   9C    basis set group =>   1
Atom  10S    basis set group =>   4
Atom  11N    basis set group =>   3
Atom  12C    basis set group =>   1
Atom  13C    basis set group =>   1
Atom  14C    basis set group =>   1
Atom  15C    basis set group =>   1
Atom  16C    basis set group =>   1
Atom  17C    basis set group =>   1
Atom  18O    basis set group =>   2
Atom  19C    basis set group =>   1
Atom  20H    basis set group =>   5
Atom  21H    basis set group =>   5
Atom  22H    basis set group =>   5
Atom  23H    basis set group =>   5
Atom  24H    basis set group =>   5
Atom  25H    basis set group =>   5
Atom  26H    basis set group =>   5
Atom  27H    basis set group =>   5
Atom  28H    basis set group =>   5
Atom  29H    basis set group =>   5
Atom  30H    basis set group =>   5
Atom  31H    basis set group =>   5
Atom  32H    basis set group =>   5
Atom  33H    basis set group =>   5
Atom  34H    basis set group =>   5
Atom  35H    basis set group =>   5
------------------------------------------------------------------------------
                           ORCA GTO INTEGRAL CALCULATION
------------------------------------------------------------------------------
------------------------------------------------------------------------------
                   ___                                                        
                  /   \      - P O W E R E D   B Y -                         
                 /     \                                                     
                 |  |  |   _    _      __       _____    __    __             
                 |  |  |  | |  | |    /  \     |  _  \  |  |  /  |          
                  \  \/   | |  | |   /    \    | | | |  |  | /  /          
                 / \  \   | |__| |  /  /\  \   | |_| |  |  |/  /          
                |  |  |   |  __  | /  /__\  \  |    /   |      \           
                |  |  |   | |  | | |   __   |  |    \   |  |\   \          
                \     /   | |  | | |  |  |  |  | |\  \  |  | \   \       
                 \___/    |_|  |_| |__|  |__|  |_| \__\ |__|  \__/        
                                                                              
                      - O R C A' S   B I G   F R I E N D -                    
                                      &                                       
                       - I N T E G R A L  F E E D E R -                       
                                                                              
 v1 FN, 2020, v2 2021                                                         
------------------------------------------------------------------------------


Reading SHARK input file qm_input.solv.SHARKINP.tmp ... ok
----------------------
SHARK INTEGRAL PACKAGE
----------------------

Number of atoms                             ...     36
Number of basis functions                   ...    828
Number of shells                            ...    298
Maximum angular momentum                    ...      3
Integral batch strategy                     ... SHARK/LIBINT Hybrid
RI-J (if used) integral strategy            ... SPLIT-RIJ (Revised 2003 algorithm where possible)
Printlevel                                  ...      1
Contraction scheme used                     ... SEGMENTED contraction
Coulomb Range Separation                    ... NOT USED
Exchange Range Separation                   ... NOT USED
Finite Nucleus Model                        ... NOT USED
Auxiliary Coulomb fitting basis             ... NOT available
Auxiliary J/K fitting basis                 ... NOT available
Auxiliary Correlation fitting basis         ... AVAILABLE
   # of basis functions in Aux-C            ...   2141
   # of shells in Aux-C                     ...    629
   Maximum angular momentum in Aux-C        ...      4
Auxiliary 'external' fitting basis          ... NOT available
Integral threshold                          ...     2.500000e-11
Primitive cut-off                           ...     2.500000e-12
Primitive pair pre-selection threshold      ...     2.500000e-12

Calculating pre-screening integrals         ... done (  0.6 sec) Dimension = 298
Organizing shell pair data                  ... done (  0.4 sec)
Shell pair information
Total number of shell pairs                 ...     44551
Shell pairs after pre-screening             ...     31194
Total number of primitive shell pairs       ...    234348
Primitive shell pairs kept                  ...     90975
          la=0 lb=0:   6237 shell pairs
          la=1 lb=0:   8709 shell pairs
          la=1 lb=1:   3090 shell pairs
          la=2 lb=0:   4942 shell pairs
          la=2 lb=1:   3404 shell pairs
          la=2 lb=2:    950 shell pairs
          la=3 lb=0:   1805 shell pairs
          la=3 lb=1:   1235 shell pairs
          la=3 lb=2:    686 shell pairs
          la=3 lb=3:    136 shell pairs

Reading point charge file                   ... ok (45326 point charges)
Calculating one electron integrals          ... done (223.1 sec)
Calculating RI/C V-Matrix + Cholesky decomp.... done (  0.4 sec)
Calculating Nuclear repulsion               ... (+Point charges) done (  0.0 sec) ENN=   2055.172525421975 Eh

SHARK setup successfully completed in 224.6 seconds

Maximum memory used throughout the entire GTOINT-calculation: 465.0 MB
ENUC WAS=  0.000000000
ENUC IS =  0.000000000
-------------------------------------------------------------------------------
                                 ORCA SCF
-------------------------------------------------------------------------------

------------
SCF SETTINGS
------------
Hamiltonian:
 Ab initio Hamiltonian  Method          .... Hartree-Fock(GTOs)


General Settings:
 Integral files         IntName         .... qm_input.solv
 Hartree-Fock type      HFTyp           .... RHF
 Total Charge           Charge          ....    0
 Multiplicity           Mult            ....    1
 Number of Electrons    NEL             ....  154
 Basis Dimension        Dim             ....  828
 Nuclear Repulsion      ENuc            ....   2055.1725254220 Eh

Convergence Acceleration:
 DIIS                   CNVDIIS         .... on
   Start iteration      DIISMaxIt       ....    12
   Startup error        DIISStart       ....  0.200000
   # of expansion vecs  DIISMaxEq       ....     5
   Bias factor          DIISBfac        ....   1.050
   Max. coefficient     DIISMaxC        ....  10.000
 Trust-Rad. Augm. Hess. CNVTRAH         .... auto
   Auto Start mean grad. ratio tolernc. ....  1.125000
   Auto Start start iteration           ....    20
   Auto Start num. interpolation iter.  ....    10
   Max. Number of Micro iterations      ....    16
   Max. Number of Macro iterations      .... Maxiter - #DIIS iter
   Number of Davidson start vectors     ....     2
   Converg. threshold I  (grad. norm)   ....   1.000e-05
   Converg. threshold II (energy diff.) ....   1.000e-08
   Grad. Scal. Fac. for Micro threshold ....   0.100
   Minimum threshold for Micro iter.    ....   0.010
   NR start threshold (gradient norm)   ....   0.001
   Initial trust radius                 ....   0.400
   Minimum AH scaling param. (alpha)    ....   1.000
   Maximum AH scaling param. (alpha)    .... 1000.000
   Orbital update algorithm             .... Taylor
   White noise on init. David. guess    .... on
   Maximum white noise                  ....   0.010
   Quad. conv. algorithm                .... NR
 SOSCF                  CNVSOSCF        .... on
   Start iteration      SOSCFMaxIt      ....   150
   Startup grad/error   SOSCFStart      ....  0.003300
 Level Shifting         CNVShift        .... on
   Level shift para.    LevelShift      ....    0.2500
   Turn off err/grad.   ShiftErr        ....    0.0010
 Zerner damping         CNVZerner       .... off
 Static damping         CNVDamp         .... on
   Fraction old density DampFac         ....    0.7000
   Max. Damping (<1)    DampMax         ....    0.9800
   Min. Damping (>=0)   DampMin         ....    0.0000
   Turn off err/grad.   DampErr         ....    0.1000
 Fernandez-Rico         CNVRico         .... off

SCF Procedure:
 Maximum # iterations   MaxIter         ....   125
 SCF integral mode      SCFMode         .... Direct
   Integral package                     .... SHARK and LIBINT hybrid scheme
 Reset frequency        DirectResetFreq ....    20
 Integral Threshold     Thresh          ....  2.500e-11 Eh
 Primitive CutOff       TCut            ....  2.500e-12 Eh

Convergence Tolerance:
 Convergence Check Mode ConvCheckMode   .... Total+1el-Energy
 Convergence forced     ConvForced      .... 1
 Energy Change          TolE            ....  1.000e-08 Eh
 1-El. energy change                    ....  1.000e-05 Eh
 Orbital Gradient       TolG            ....  1.000e-05
 Orbital Rotation angle TolX            ....  1.000e-05
 DIIS Error             TolErr          ....  5.000e-07


Diagonalization of the overlap matrix:
Smallest eigenvalue                        ... 4.058e-05
Time for diagonalization                   ...    0.135 sec
Threshold for overlap eigenvalues          ... 1.000e-08
Number of eigenvalues below threshold      ... 0
Time for construction of square roots      ...    0.062 sec
Total time needed                          ...    0.200 sec

Time for model grid setup =    1.377 sec

------------------------------
INITIAL GUESS: MODEL POTENTIAL
------------------------------
Loading Hartree-Fock densities                     ... done
Calculating cut-offs                               ... done
Initializing the effective Hamiltonian             ... done
Setting up the integral package (SHARK)            ... done
Starting the Coulomb interaction                   ... done (   3.9 sec)
Reading the grid                                   ... done
Mapping shells                                     ... done
Starting the XC term evaluation                    ... done (   1.4 sec)
Transforming the Hamiltonian                       ... done (   0.1 sec)
Diagonalizing the Hamiltonian                      ... done (   0.1 sec)
Back transforming the eigenvectors                 ... done (   0.0 sec)
Now organizing SCF variables                       ... done
                      ------------------
                      INITIAL GUESS DONE (   6.9 sec)
                      ------------------
--------------
SCF ITERATIONS
--------------
ITER       Energy         Delta-E        Max-DP      RMS-DP      [F,P]     Damp
               ***  Starting incremental Fock matrix formation  ***
  0  -1270.0449254055   0.000000000000 0.04804409  0.00052693  0.3868321 0.7000
  1  -1270.3405241061  -0.295598700586 0.03569874  0.00042911  0.2201256 0.7000
                               ***Turning on DIIS***
  2  -1270.5224327424  -0.181908636284 0.02591484  0.00027096  0.1120234 0.7000
  3  -1272.6410604097  -2.118627667280 0.06462629  0.00054568  0.0850592 0.0000
  4  -1270.8699827569   1.771077652787 0.01127490  0.00013125  0.0074079 0.0000
  5  -1270.9243062919  -0.054323534978 0.00569483  0.00006617  0.0046936 0.0000
  6  -1270.8982576039   0.026048688002 0.00307669  0.00002950  0.0035656 0.0000
                      *** Initiating the SOSCF procedure ***
                           *** Shutting down DIIS ***
                      *** Re-Reading the Fockian *** 
                      *** Removing any level shift *** 
ITER      Energy       Delta-E        Grad      Rot      Max-DP    RMS-DP
  7  -1270.91373926  -0.0154816522  0.001294  0.001294  0.001860  0.000017
               *** Restarting incremental Fock matrix formation ***
  8  -1270.91561385  -0.0018745899  0.000584  0.001203  0.000744  0.000008
  9  -1270.91562733  -0.0000134849  0.000243  0.001218  0.000872  0.000010
 10  -1270.91563238  -0.0000050495  0.000076  0.000175  0.000163  0.000002
 11  -1270.91563284  -0.0000004599  0.000033  0.000077  0.000071  0.000001
 12  -1270.91563293  -0.0000000850  0.000017  0.000071  0.000025  0.000000
 13  -1270.91563294  -0.0000000141  0.000009  0.000050  0.000014  0.000000
                  ***Gradient check signals convergence***
              ***Rediagonalizing the Fockian in SOSCF/NRSCF***

               *****************************************************
               *                     SUCCESS                       *
               *           SCF CONVERGED AFTER  14 CYCLES          *
               *****************************************************


----------------
TOTAL SCF ENERGY
----------------

Total Energy       :        -1270.91563294 Eh          -34583.37256 eV

Components:
Nuclear Repulsion  :         2055.17252542 Eh           55924.08754 eV
Electronic Energy  :        -3326.08815836 Eh          -90507.46010 eV
One Electron Energy:        -5440.20301975 Eh         -148035.45014 eV
Two Electron Energy:         2114.11486139 Eh           57527.99004 eV

Virial components:
Potential Energy   :        -2540.15399243 Eh          -69121.10418 eV
Kinetic Energy     :         1269.23835949 Eh           34537.73163 eV
Virial Ratio       :            2.00132148


---------------
SCF CONVERGENCE
---------------

  Last Energy change         ...   -3.4042e-09  Tolerance :   1.0000e-08
  Last MAX-Density change    ...    4.6880e-06  Tolerance :   1.0000e-07
  Last RMS-Density change    ...    4.2117e-08  Tolerance :   5.0000e-09
  Last Orbital Gradient      ...    1.6547e-06  Tolerance :   1.0000e-05
  Last Orbital Rotation      ...    4.2837e-06  Tolerance :   1.0000e-05

             **** THE GBW FILE WAS UPDATED (qm_input.solv.gbw) ****
             **** DENSITY qm_input.solv.scfp WAS UPDATED ****
             **** ENERGY FILE WAS UPDATED (qm_input.solv.en.tmp) ****
             **** THE GBW FILE WAS UPDATED (qm_input.solv.gbw) ****
             **** DENSITY qm_input.solv.scfp WAS UPDATED ****
----------------
ORBITAL ENERGIES
----------------

  NO   OCC          E(Eh)            E(eV) 
   0   2.0000     -94.465860     -2570.5467 
   1   2.0000     -23.153741      -630.0453 
   2   2.0000     -23.130041      -629.4004 
   3   2.0000     -23.088371      -628.2665 
   4   2.0000     -18.161601      -494.2023 
   5   2.0000     -18.158127      -494.1077 
   6   2.0000     -13.945433      -379.4745 
   7   2.0000     -13.944388      -379.4461 
   8   2.0000     -13.866689      -377.3318 
   9   2.0000     -13.848171      -376.8279 
  10   2.0000     -13.846517      -376.7829 
  11   2.0000     -13.829699      -376.3252 
  12   2.0000     -13.796811      -375.4303 
  13   2.0000     -13.790999      -375.2722 
  14   2.0000     -13.785404      -375.1199 
  15   2.0000     -13.777600      -374.9076 
  16   2.0000     -13.776174      -374.8687 
  17   2.0000     -13.771191      -374.7332 
  18   2.0000     -13.767174      -374.6238 
  19   2.0000     -13.754868      -374.2890 
  20   2.0000     -11.473260      -312.2033 
  21   2.0000      -9.155368      -249.1302 
  22   2.0000      -9.153219      -249.0717 
  23   2.0000      -9.152778      -249.0597 
  24   2.0000      -4.000367      -108.8555 
  25   2.0000      -3.948170      -107.4352 
  26   2.0000      -3.893388      -105.9445 
  27   2.0000      -3.888667      -105.8160 
  28   2.0000      -3.786689      -103.0411 
  29   2.0000      -3.699374      -100.6651 
  30   2.0000      -3.665177       -99.7345 
  31   2.0000      -3.584256       -97.5326 
  32   2.0000      -3.573453       -97.2386 
  33   2.0000      -3.549733       -96.5932 
  34   2.0000      -3.545884       -96.4884 
  35   2.0000      -3.538885       -96.2980 
  36   2.0000      -3.467249       -94.3486 
  37   2.0000      -3.424696       -93.1907 
  38   2.0000      -3.393654       -92.3460 
  39   2.0000      -3.379627       -91.9643 
  40   2.0000      -3.361342       -91.4668 
  41   2.0000      -3.355029       -91.2950 
  42   2.0000      -3.303496       -89.8927 
  43   2.0000      -3.284759       -89.3828 
  44   2.0000      -3.261609       -88.7529 
  45   2.0000      -3.233328       -87.9833 
  46   2.0000      -3.229621       -87.8824 
  47   2.0000      -3.217442       -87.5511 
  48   2.0000      -3.206986       -87.2665 
  49   2.0000      -3.206139       -87.2435 
  50   2.0000      -3.189000       -86.7771 
  51   2.0000      -3.184734       -86.6610 
  52   2.0000      -3.175024       -86.3968 
  53   2.0000      -3.157455       -85.9187 
  54   2.0000      -3.143371       -85.5355 
  55   2.0000      -3.131447       -85.2110 
  56   2.0000      -3.127206       -85.0956 
  57   2.0000      -3.110268       -84.6347 
  58   2.0000      -3.106098       -84.5212 
  59   2.0000      -3.102320       -84.4184 
  60   2.0000      -3.097635       -84.2909 
  61   2.0000      -3.094384       -84.2025 
  62   2.0000      -3.071138       -83.5699 
  63   2.0000      -3.061782       -83.3153 
  64   2.0000      -3.055014       -83.1312 
  65   2.0000      -3.041638       -82.7672 
  66   2.0000      -3.039055       -82.6969 
  67   2.0000      -3.027715       -82.3883 
  68   2.0000      -3.020831       -82.2010 
  69   2.0000      -3.010660       -81.9242 
  70   2.0000      -3.003002       -81.7158 
  71   2.0000      -2.994682       -81.4894 
  72   2.0000      -2.913756       -79.2873 
  73   2.0000      -2.912010       -79.2398 
  74   2.0000      -2.884448       -78.4898 
  75   2.0000      -2.875866       -78.2563 
  76   2.0000      -2.863521       -77.9204 
  77   0.0000      -2.469842       -67.2078 
  78   0.0000      -2.431706       -66.1701 
  79   0.0000      -2.406194       -65.4759 
  80   0.0000      -2.395649       -65.1889 
  81   0.0000      -2.390324       -65.0440 
  82   0.0000      -2.371469       -64.5309 
  83   0.0000      -2.365038       -64.3560 
  84   0.0000      -2.360783       -64.2402 
  85   0.0000      -2.358490       -64.1778 
  86   0.0000      -2.345470       -63.8235 
  87   0.0000      -2.340560       -63.6899 
  88   0.0000      -2.328720       -63.3677 
  89   0.0000      -2.324732       -63.2592 
  90   0.0000      -2.321851       -63.1808 
  91   0.0000      -2.314993       -62.9942 
  92   0.0000      -2.314119       -62.9704 
  93   0.0000      -2.301544       -62.6282 
  94   0.0000      -2.289349       -62.2963 
  95   0.0000      -2.284334       -62.1599 
  96   0.0000      -2.279650       -62.0324 
  97   0.0000      -2.276687       -61.9518 
  98   0.0000      -2.261457       -61.5374 
  99   0.0000      -2.258590       -61.4594 
 100   0.0000      -2.241920       -61.0057 
 101   0.0000      -2.223228       -60.4971 
 102   0.0000      -2.212269       -60.1989 
 103   0.0000      -2.208024       -60.0834 
 104   0.0000      -2.204554       -59.9890 
 105   0.0000      -2.199109       -59.8408 
 106   0.0000      -2.190968       -59.6193 
 107   0.0000      -2.177943       -59.2648 
 108   0.0000      -2.175859       -59.2081 
 109   0.0000      -2.167441       -58.9791 
 110   0.0000      -2.151536       -58.5463 
 111   0.0000      -2.148028       -58.4508 
 112   0.0000      -2.141870       -58.2832 
 113   0.0000      -2.135748       -58.1166 
 114   0.0000      -2.129105       -57.9359 
 115   0.0000      -2.121506       -57.7291 
 116   0.0000      -2.120987       -57.7150 
 117   0.0000      -2.115424       -57.5636 
 118   0.0000      -2.109699       -57.4078 
 119   0.0000      -2.107440       -57.3463 
 120   0.0000      -2.106061       -57.3088 
 121   0.0000      -2.098332       -57.0985 
 122   0.0000      -2.091949       -56.9248 
 123   0.0000      -2.080975       -56.6262 
 124   0.0000      -2.076559       -56.5060 
 125   0.0000      -2.072896       -56.4064 
 126   0.0000      -2.069274       -56.3078 
 127   0.0000      -2.061928       -56.1079 
 128   0.0000      -2.057328       -55.9827 
 129   0.0000      -2.049513       -55.7701 
 130   0.0000      -2.046832       -55.6971 
 131   0.0000      -2.032424       -55.3051 
 132   0.0000      -2.029329       -55.2209 
 133   0.0000      -2.021398       -55.0050 
 134   0.0000      -2.017066       -54.8871 
 135   0.0000      -2.015288       -54.8388 
 136   0.0000      -2.005038       -54.5599 
 137   0.0000      -2.000652       -54.4405 
 138   0.0000      -1.996064       -54.3157 
 139   0.0000      -1.986562       -54.0571 
 140   0.0000      -1.984419       -53.9988 
 141   0.0000      -1.978369       -53.8341 
 142   0.0000      -1.970997       -53.6336 
 143   0.0000      -1.963025       -53.4166 
 144   0.0000      -1.958457       -53.2923 
 145   0.0000      -1.955080       -53.2004 
 146   0.0000      -1.952948       -53.1424 
 147   0.0000      -1.946068       -52.9552 
 148   0.0000      -1.940436       -52.8019 
 149   0.0000      -1.933531       -52.6141 
 150   0.0000      -1.927094       -52.4389 
 151   0.0000      -1.920761       -52.2666 
 152   0.0000      -1.916072       -52.1390 
 153   0.0000      -1.913098       -52.0581 
 154   0.0000      -1.911581       -52.0168 
 155   0.0000      -1.907361       -51.9019 
 156   0.0000      -1.902466       -51.7687 
 157   0.0000      -1.901930       -51.7542 
 158   0.0000      -1.895035       -51.5665 
 159   0.0000      -1.887199       -51.3533 
 160   0.0000      -1.883523       -51.2533 
 161   0.0000      -1.880565       -51.1728 
 162   0.0000      -1.876178       -51.0534 
 163   0.0000      -1.872617       -50.9565 
 164   0.0000      -1.867893       -50.8280 
 165   0.0000      -1.860300       -50.6213 
 166   0.0000      -1.855745       -50.4974 
 167   0.0000      -1.854720       -50.4695 
 168   0.0000      -1.850941       -50.3667 
 169   0.0000      -1.843849       -50.1737 
 170   0.0000      -1.840970       -50.0953 
 171   0.0000      -1.827214       -49.7210 
 172   0.0000      -1.822189       -49.5843 
 173   0.0000      -1.819434       -49.5093 
 174   0.0000      -1.810876       -49.2764 
 175   0.0000      -1.804582       -49.1052 
 176   0.0000      -1.798418       -48.9374 
 177   0.0000      -1.796843       -48.8946 
 178   0.0000      -1.789763       -48.7019 
 179   0.0000      -1.785069       -48.5742 
 180   0.0000      -1.779470       -48.4218 
 181   0.0000      -1.774394       -48.2837 
 182   0.0000      -1.765963       -48.0543 
 183   0.0000      -1.755511       -47.7699 
 184   0.0000      -1.745083       -47.4861 
 185   0.0000      -1.738766       -47.3142 
 186   0.0000      -1.734967       -47.2108 
 187   0.0000      -1.719117       -46.7796 
 188   0.0000      -1.712870       -46.6096 
 189   0.0000      -1.705881       -46.4194 
 190   0.0000      -1.697224       -46.1838 
 191   0.0000      -1.685341       -45.8605 
 192   0.0000      -1.683601       -45.8131 
 193   0.0000      -1.668525       -45.4029 
 194   0.0000      -1.664675       -45.2981 
 195   0.0000      -1.654970       -45.0340 
 196   0.0000      -1.647666       -44.8353 
 197   0.0000      -1.646378       -44.8002 
 198   0.0000      -1.641010       -44.6542 
 199   0.0000      -1.637874       -44.5688 
 200   0.0000      -1.626615       -44.2625 
 201   0.0000      -1.617548       -44.0157 
 202   0.0000      -1.607943       -43.7544 
 203   0.0000      -1.607049       -43.7300 
 204   0.0000      -1.603387       -43.6304 
 205   0.0000      -1.592758       -43.3412 
 206   0.0000      -1.585895       -43.1544 
 207   0.0000      -1.584538       -43.1175 
 208   0.0000      -1.572661       -42.7943 
 209   0.0000      -1.565429       -42.5975 
 210   0.0000      -1.554148       -42.2905 
 211   0.0000      -1.549079       -42.1526 
 212   0.0000      -1.548650       -42.1409 
 213   0.0000      -1.543781       -42.0084 
 214   0.0000      -1.532050       -41.6892 
 215   0.0000      -1.530172       -41.6381 
 216   0.0000      -1.519652       -41.3518 
 217   0.0000      -1.508856       -41.0581 
 218   0.0000      -1.501432       -40.8560 
 219   0.0000      -1.491804       -40.5940 
 220   0.0000      -1.476205       -40.1696 
 221   0.0000      -1.475905       -40.1614 
 222   0.0000      -1.471860       -40.0513 
 223   0.0000      -1.460008       -39.7288 
 224   0.0000      -1.457142       -39.6509 
 225   0.0000      -1.448081       -39.4043 
 226   0.0000      -1.437171       -39.1074 
 227   0.0000      -1.434128       -39.0246 
 228   0.0000      -1.424120       -38.7523 
 229   0.0000      -1.419005       -38.6131 
 230   0.0000      -1.414751       -38.4973 
 231   0.0000      -1.408512       -38.3276 
 232   0.0000      -1.404657       -38.2227 
 233   0.0000      -1.400066       -38.0977 
 234   0.0000      -1.388920       -37.7944 
 235   0.0000      -1.379532       -37.5390 
 236   0.0000      -1.368913       -37.2500 
 237   0.0000      -1.362357       -37.0716 
 238   0.0000      -1.353754       -36.8375 
 239   0.0000      -1.347004       -36.6539 
 240   0.0000      -1.338016       -36.4093 
 241   0.0000      -1.331738       -36.2384 
 242   0.0000      -1.329844       -36.1869 
 243   0.0000      -1.315487       -35.7962 
 244   0.0000      -1.310527       -35.6613 
 245   0.0000      -1.303784       -35.4778 
 246   0.0000      -1.291188       -35.1350 
 247   0.0000      -1.281410       -34.8689 
 248   0.0000      -1.278873       -34.7999 
 249   0.0000      -1.272214       -34.6187 
 250   0.0000      -1.261559       -34.3288 
 251   0.0000      -1.258974       -34.2584 
 252   0.0000      -1.258127       -34.2354 
 253   0.0000      -1.250743       -34.0345 
 254   0.0000      -1.239616       -33.7317 
 255   0.0000      -1.235764       -33.6269 
 256   0.0000      -1.225498       -33.3475 
 257   0.0000      -1.224276       -33.3142 
 258   0.0000      -1.214930       -33.0599 
 259   0.0000      -1.210212       -32.9315 
 260   0.0000      -1.197703       -32.5911 
 261   0.0000      -1.183229       -32.1973 
 262   0.0000      -1.178281       -32.0627 
 263   0.0000      -1.168667       -31.8011 
 264   0.0000      -1.162019       -31.6201 
 265   0.0000      -1.147905       -31.2361 
 266   0.0000      -1.143518       -31.1167 
 267   0.0000      -1.139164       -30.9982 
 268   0.0000      -1.135058       -30.8865 
 269   0.0000      -1.126881       -30.6640 
 270   0.0000      -1.104557       -30.0565 
 271   0.0000      -1.101459       -29.9722 
 272   0.0000      -1.098218       -29.8840 
 273   0.0000      -1.095665       -29.8146 
 274   0.0000      -1.084409       -29.5083 
 275   0.0000      -1.078280       -29.3415 
 276   0.0000      -1.061837       -28.8940 
 277   0.0000      -1.048188       -28.5227 
 278   0.0000      -1.040232       -28.3062 
 279   0.0000      -1.037867       -28.2418 
 280   0.0000      -1.034415       -28.1479 
 281   0.0000      -1.027590       -27.9622 
 282   0.0000      -1.022341       -27.8193 
 283   0.0000      -1.021739       -27.8029 
 284   0.0000      -1.008517       -27.4432 
 285   0.0000      -1.001113       -27.2417 
 286   0.0000      -0.997530       -27.1442 
 287   0.0000      -0.996613       -27.1192 
 288   0.0000      -0.985329       -26.8122 
 289   0.0000      -0.982479       -26.7346 
 290   0.0000      -0.975023       -26.5317 
 291   0.0000      -0.971899       -26.4467 
 292   0.0000      -0.968277       -26.3481 
 293   0.0000      -0.953787       -25.9539 
 294   0.0000      -0.951160       -25.8824 
 295   0.0000      -0.942966       -25.6594 
 296   0.0000      -0.934752       -25.4359 
 297   0.0000      -0.923375       -25.1263 
 298   0.0000      -0.914572       -24.8868 
 299   0.0000      -0.910502       -24.7760 
 300   0.0000      -0.905817       -24.6485 
 301   0.0000      -0.889214       -24.1967 
 302   0.0000      -0.884092       -24.0574 
 303   0.0000      -0.881442       -23.9853 
 304   0.0000      -0.880047       -23.9473 
 305   0.0000      -0.868429       -23.6312 
 306   0.0000      -0.860817       -23.4240 
 307   0.0000      -0.855744       -23.2860 
 308   0.0000      -0.844051       -22.9678 
 309   0.0000      -0.834442       -22.7063 
 310   0.0000      -0.825279       -22.4570 
 311   0.0000      -0.816543       -22.2193 
 312   0.0000      -0.813494       -22.1363 
 313   0.0000      -0.792027       -21.5522 
 314   0.0000      -0.782680       -21.2978 
 315   0.0000      -0.775630       -21.1060 
 316   0.0000      -0.756334       -20.5809 
 317   0.0000      -0.748537       -20.3687 
 318   0.0000      -0.741383       -20.1741 
 319   0.0000      -0.730431       -19.8760 
 320   0.0000      -0.727794       -19.8043 
 321   0.0000      -0.701984       -19.1020 
 322   0.0000      -0.689273       -18.7561 
 323   0.0000      -0.683718       -18.6049 
 324   0.0000      -0.677650       -18.4398 
 325   0.0000      -0.662844       -18.0369 
 326   0.0000      -0.646739       -17.5987 
 327   0.0000      -0.642916       -17.4946 
 328   0.0000      -0.634058       -17.2536 
 329   0.0000      -0.631713       -17.1898 
 330   0.0000      -0.624486       -16.9931 
 331   0.0000      -0.606758       -16.5107 
 332   0.0000      -0.598764       -16.2932 
 333   0.0000      -0.585217       -15.9246 
 334   0.0000      -0.576682       -15.6923 
 335   0.0000      -0.568995       -15.4831 
 336   0.0000      -0.563483       -15.3331 
 337   0.0000      -0.551876       -15.0173 
 338   0.0000      -0.537941       -14.6381 
 339   0.0000      -0.535345       -14.5675 
 340   0.0000      -0.522252       -14.2112 
 341   0.0000      -0.515221       -14.0199 
 342   0.0000      -0.502927       -13.6853 
 343   0.0000      -0.486227       -13.2309 
 344   0.0000      -0.453501       -12.3404 
 345   0.0000      -0.443018       -12.0551 
 346   0.0000      -0.428038       -11.6475 
 347   0.0000      -0.412812       -11.2332 
 348   0.0000      -0.395472       -10.7613 
 349   0.0000      -0.373048       -10.1512 
 350   0.0000      -0.370951       -10.0941 
 351   0.0000      -0.331978        -9.0336 
 352   0.0000      -0.323022        -8.7899 
 353   0.0000      -0.319098        -8.6831 
 354   0.0000      -0.310602        -8.4519 
 355   0.0000      -0.302086        -8.2202 
 356   0.0000      -0.292499        -7.9593 
 357   0.0000      -0.281287        -7.6542 
 358   0.0000      -0.269530        -7.3343 
 359   0.0000      -0.249345        -6.7850 
 360   0.0000      -0.244188        -6.6447 
 361   0.0000      -0.225938        -6.1481 
 362   0.0000      -0.221068        -6.0156 
 363   0.0000      -0.205229        -5.5846 
 364   0.0000      -0.200070        -5.4442 
 365   0.0000      -0.187722        -5.1082 
 366   0.0000      -0.178065        -4.8454 
 367   0.0000      -0.148340        -4.0365 
 368   0.0000      -0.130343        -3.5468 
 369   0.0000      -0.115031        -3.1302 
 370   0.0000      -0.110206        -2.9988 
 371   0.0000      -0.091749        -2.4966 
 372   0.0000      -0.074516        -2.0277 
 373   0.0000      -0.053757        -1.4628 
 374   0.0000      -0.038800        -1.0558 
 375   0.0000      -0.038093        -1.0366 
 376   0.0000      -0.027034        -0.7356 
 377   0.0000      -0.015540        -0.4229 
 378   0.0000      -0.000222        -0.0060 
 379   0.0000       0.004399         0.1197 
 380   0.0000       0.024890         0.6773 
 381   0.0000       0.029105         0.7920 
 382   0.0000       0.056869         1.5475 
 383   0.0000       0.060415         1.6440 
 384   0.0000       0.066121         1.7992 
 385   0.0000       0.081088         2.2065 
 386   0.0000       0.089249         2.4286 
 387   0.0000       0.102809         2.7976 
 388   0.0000       0.120293         3.2733 
 389   0.0000       0.124649         3.3919 
 390   0.0000       0.135014         3.6739 
 391   0.0000       0.135627         3.6906 
 392   0.0000       0.156371         4.2551 
 393   0.0000       0.164972         4.4891 
 394   0.0000       0.178533         4.8581 
 395   0.0000       0.190740         5.1903 
 396   0.0000       0.199529         5.4295 
 397   0.0000       0.204457         5.5636 
 398   0.0000       0.221616         6.0305 
 399   0.0000       0.227903         6.2015 
 400   0.0000       0.235875         6.4185 
 401   0.0000       0.248709         6.7677 
 402   0.0000       0.252399         6.8681 
 403   0.0000       0.255599         6.9552 
 404   0.0000       0.275658         7.5010 
 405   0.0000       0.281740         7.6665 
 406   0.0000       0.287168         7.8143 
 407   0.0000       0.298387         8.1195 
 408   0.0000       0.304970         8.2987 
 409   0.0000       0.320800         8.7294 
 410   0.0000       0.329075         8.9546 
 411   0.0000       0.346401         9.4260 
 412   0.0000       0.353647         9.6232 
 413   0.0000       0.355056         9.6616 
 414   0.0000       0.368920        10.0388 
 415   0.0000       0.384071        10.4511 
 416   0.0000       0.396442        10.7877 
 417   0.0000       0.399221        10.8634 
 418   0.0000       0.403957        10.9922 
 419   0.0000       0.416614        11.3367 
 420   0.0000       0.422501        11.4968 
 421   0.0000       0.432524        11.7696 
 422   0.0000       0.442372        12.0376 
 423   0.0000       0.451630        12.2895 
 424   0.0000       0.460390        12.5278 
 425   0.0000       0.478990        13.0340 
 426   0.0000       0.488996        13.3063 
 427   0.0000       0.493423        13.4267 
 428   0.0000       0.502425        13.6717 
 429   0.0000       0.510916        13.9027 
 430   0.0000       0.513148        13.9635 
 431   0.0000       0.518378        14.1058 
 432   0.0000       0.532875        14.5003 
 433   0.0000       0.540254        14.7011 
 434   0.0000       0.547839        14.9075 
 435   0.0000       0.557196        15.1621 
 436   0.0000       0.561744        15.2858 
 437   0.0000       0.562681        15.3113 
 438   0.0000       0.574878        15.6432 
 439   0.0000       0.584018        15.8919 
 440   0.0000       0.590509        16.0686 
 441   0.0000       0.594989        16.1905 
 442   0.0000       0.601004        16.3541 
 443   0.0000       0.611986        16.6530 
 444   0.0000       0.619191        16.8490 
 445   0.0000       0.620920        16.8961 
 446   0.0000       0.630582        17.1590 
 447   0.0000       0.641371        17.4526 
 448   0.0000       0.645169        17.5559 
 449   0.0000       0.653716        17.7885 
 450   0.0000       0.660851        17.9827 
 451   0.0000       0.672069        18.2879 
 452   0.0000       0.681170        18.5356 
 453   0.0000       0.684130        18.6161 
 454   0.0000       0.693164        18.8619 
 455   0.0000       0.701190        19.0804 
 456   0.0000       0.707830        19.2610 
 457   0.0000       0.711970        19.3737 
 458   0.0000       0.717565        19.5259 
 459   0.0000       0.723875        19.6976 
 460   0.0000       0.728581        19.8257 
 461   0.0000       0.742226        20.1970 
 462   0.0000       0.747178        20.3318 
 463   0.0000       0.756478        20.5848 
 464   0.0000       0.766445        20.8560 
 465   0.0000       0.767924        20.8963 
 466   0.0000       0.773562        21.0497 
 467   0.0000       0.776983        21.1428 
 468   0.0000       0.787531        21.4298 
 469   0.0000       0.798316        21.7233 
 470   0.0000       0.803920        21.8758 
 471   0.0000       0.807853        21.9828 
 472   0.0000       0.812745        22.1159 
 473   0.0000       0.822121        22.3710 
 474   0.0000       0.832394        22.6506 
 475   0.0000       0.833505        22.6808 
 476   0.0000       0.835487        22.7348 
 477   0.0000       0.837134        22.7796 
 478   0.0000       0.838620        22.8200 
 479   0.0000       0.848847        23.0983 
 480   0.0000       0.855355        23.2754 
 481   0.0000       0.860556        23.4169 
 482   0.0000       0.864609        23.5272 
 483   0.0000       0.868352        23.6291 
 484   0.0000       0.872150        23.7324 
 485   0.0000       0.879579        23.9346 
 486   0.0000       0.886275        24.1168 
 487   0.0000       0.889835        24.2136 
 488   0.0000       0.895056        24.3557 
 489   0.0000       0.898335        24.4449 
 490   0.0000       0.907781        24.7020 
 491   0.0000       0.916471        24.9384 
 492   0.0000       0.920679        25.0529 
 493   0.0000       0.929369        25.2894 
 494   0.0000       0.935742        25.4628 
 495   0.0000       0.942479        25.6462 
 496   0.0000       0.948109        25.7993 
 497   0.0000       0.952728        25.9250 
 498   0.0000       0.960377        26.1332 
 499   0.0000       0.967907        26.3381 
 500   0.0000       0.972443        26.4615 
 501   0.0000       0.979081        26.6421 
 502   0.0000       0.989112        26.9151 
 503   0.0000       0.995136        27.0790 
 504   0.0000       1.000946        27.2371 
 505   0.0000       1.010367        27.4935 
 506   0.0000       1.013910        27.5899 
 507   0.0000       1.033526        28.1237 
 508   0.0000       1.037620        28.2351 
 509   0.0000       1.041534        28.3416 
 510   0.0000       1.053249        28.6604 
 511   0.0000       1.055086        28.7104 
 512   0.0000       1.060835        28.8668 
 513   0.0000       1.073080        29.2000 
 514   0.0000       1.077262        29.3138 
 515   0.0000       1.085256        29.5313 
 516   0.0000       1.090907        29.6851 
 517   0.0000       1.100663        29.9506 
 518   0.0000       1.108233        30.1566 
 519   0.0000       1.114104        30.3163 
 520   0.0000       1.119150        30.4536 
 521   0.0000       1.127261        30.6743 
 522   0.0000       1.132291        30.8112 
 523   0.0000       1.139229        31.0000 
 524   0.0000       1.145884        31.1811 
 525   0.0000       1.150752        31.3136 
 526   0.0000       1.156988        31.4832 
 527   0.0000       1.165513        31.7152 
 528   0.0000       1.167001        31.7557 
 529   0.0000       1.170764        31.8581 
 530   0.0000       1.181523        32.1509 
 531   0.0000       1.194668        32.5086 
 532   0.0000       1.196912        32.5696 
 533   0.0000       1.208428        32.8830 
 534   0.0000       1.209063        32.9003 
 535   0.0000       1.217647        33.1339 
 536   0.0000       1.230003        33.4701 
 537   0.0000       1.232842        33.5473 
 538   0.0000       1.233538        33.5663 
 539   0.0000       1.241619        33.7862 
 540   0.0000       1.246931        33.9307 
 541   0.0000       1.257065        34.2065 
 542   0.0000       1.265028        34.4232 
 543   0.0000       1.268381        34.5144 
 544   0.0000       1.271354        34.5953 
 545   0.0000       1.282997        34.9121 
 546   0.0000       1.288256        35.0552 
 547   0.0000       1.297820        35.3155 
 548   0.0000       1.304481        35.4967 
 549   0.0000       1.311132        35.6777 
 550   0.0000       1.319824        35.9142 
 551   0.0000       1.328698        36.1557 
 552   0.0000       1.335694        36.3461 
 553   0.0000       1.339975        36.4626 
 554   0.0000       1.342025        36.5184 
 555   0.0000       1.363226        37.0953 
 556   0.0000       1.368250        37.2320 
 557   0.0000       1.376625        37.4599 
 558   0.0000       1.390672        37.8421 
 559   0.0000       1.407912        38.3112 
 560   0.0000       1.410404        38.3790 
 561   0.0000       1.416928        38.5566 
 562   0.0000       1.432246        38.9734 
 563   0.0000       1.437718        39.1223 
 564   0.0000       1.441921        39.2367 
 565   0.0000       1.449854        39.4525 
 566   0.0000       1.459510        39.7153 
 567   0.0000       1.468175        39.9511 
 568   0.0000       1.470464        40.0134 
 569   0.0000       1.479156        40.2499 
 570   0.0000       1.489528        40.5321 
 571   0.0000       1.497147        40.7394 
 572   0.0000       1.509255        41.0689 
 573   0.0000       1.513157        41.1751 
 574   0.0000       1.520548        41.3762 
 575   0.0000       1.529894        41.6305 
 576   0.0000       1.534330        41.7512 
 577   0.0000       1.547491        42.1094 
 578   0.0000       1.557463        42.3807 
 579   0.0000       1.564187        42.5637 
 580   0.0000       1.575749        42.8783 
 581   0.0000       1.593010        43.3480 
 582   0.0000       1.598547        43.4987 
 583   0.0000       1.602475        43.6056 
 584   0.0000       1.613509        43.9058 
 585   0.0000       1.617786        44.0222 
 586   0.0000       1.621923        44.1348 
 587   0.0000       1.633639        44.4536 
 588   0.0000       1.636585        44.5337 
 589   0.0000       1.642232        44.6874 
 590   0.0000       1.650204        44.9043 
 591   0.0000       1.661913        45.2229 
 592   0.0000       1.668997        45.4157 
 593   0.0000       1.675014        45.5794 
 594   0.0000       1.679457        45.7004 
 595   0.0000       1.690486        46.0005 
 596   0.0000       1.695069        46.1252 
 597   0.0000       1.699006        46.2323 
 598   0.0000       1.704878        46.3921 
 599   0.0000       1.720927        46.8288 
 600   0.0000       1.724063        46.9141 
 601   0.0000       1.732582        47.1460 
 602   0.0000       1.745046        47.4851 
 603   0.0000       1.752249        47.6811 
 604   0.0000       1.757950        47.8363 
 605   0.0000       1.769953        48.1629 
 606   0.0000       1.771498        48.2049 
 607   0.0000       1.781990        48.4904 
 608   0.0000       1.792527        48.7771 
 609   0.0000       1.806864        49.1673 
 610   0.0000       1.808901        49.2227 
 611   0.0000       1.818039        49.4714 
 612   0.0000       1.824057        49.6351 
 613   0.0000       1.825770        49.6817 
 614   0.0000       1.840539        50.0836 
 615   0.0000       1.853035        50.4236 
 616   0.0000       1.854668        50.4681 
 617   0.0000       1.868270        50.8382 
 618   0.0000       1.878577        51.1187 
 619   0.0000       1.889016        51.4027 
 620   0.0000       1.893675        51.5295 
 621   0.0000       1.904864        51.8340 
 622   0.0000       1.907822        51.9145 
 623   0.0000       1.918498        52.2050 
 624   0.0000       1.924250        52.3615 
 625   0.0000       1.932418        52.5838 
 626   0.0000       1.937688        52.7272 
 627   0.0000       1.948760        53.0284 
 628   0.0000       1.956828        53.2480 
 629   0.0000       1.958586        53.2958 
 630   0.0000       1.979604        53.8678 
 631   0.0000       1.982124        53.9363 
 632   0.0000       1.990538        54.1653 
 633   0.0000       1.997887        54.3653 
 634   0.0000       2.011830        54.7447 
 635   0.0000       2.016300        54.8663 
 636   0.0000       2.019694        54.9587 
 637   0.0000       2.028376        55.1949 
 638   0.0000       2.042664        55.5837 
 639   0.0000       2.054455        55.9046 
 640   0.0000       2.056409        55.9577 
 641   0.0000       2.075314        56.4722 
 642   0.0000       2.076856        56.5141 
 643   0.0000       2.091518        56.9131 
 644   0.0000       2.095794        57.0295 
 645   0.0000       2.097934        57.0877 
 646   0.0000       2.107374        57.3445 
 647   0.0000       2.110182        57.4210 
 648   0.0000       2.112200        57.4759 
 649   0.0000       2.123992        57.7968 
 650   0.0000       2.134586        58.0850 
 651   0.0000       2.141555        58.2747 
 652   0.0000       2.152053        58.5603 
 653   0.0000       2.154094        58.6159 
 654   0.0000       2.171309        59.0843 
 655   0.0000       2.176311        59.2204 
 656   0.0000       2.190064        59.5947 
 657   0.0000       2.197233        59.7897 
 658   0.0000       2.202408        59.9306 
 659   0.0000       2.215208        60.2789 
 660   0.0000       2.222948        60.4895 
 661   0.0000       2.238686        60.9178 
 662   0.0000       2.261364        61.5348 
 663   0.0000       2.277559        61.9755 
 664   0.0000       2.292699        62.3875 
 665   0.0000       2.312817        62.9349 
 666   0.0000       2.313999        62.9671 
 667   0.0000       2.334443        63.5234 
 668   0.0000       2.353446        64.0405 
 669   0.0000       2.386474        64.9393 
 670   0.0000       2.390330        65.0442 
 671   0.0000       2.402891        65.3860 
 672   0.0000       2.419799        65.8461 
 673   0.0000       2.430480        66.1367 
 674   0.0000       2.441214        66.4288 
 675   0.0000       2.460043        66.9412 
 676   0.0000       2.464544        67.0637 
 677   0.0000       2.481960        67.5376 
 678   0.0000       2.486907        67.6722 
 679   0.0000       2.511289        68.3357 
 680   0.0000       2.524742        68.7017 
 681   0.0000       2.532377        68.9095 
 682   0.0000       2.540550        69.1319 
 683   0.0000       2.541812        69.1662 
 684   0.0000       2.547565        69.3228 
 685   0.0000       2.577588        70.1397 
 686   0.0000       2.579905        70.2028 
 687   0.0000       2.597022        70.6686 
 688   0.0000       2.613563        71.1187 
 689   0.0000       2.622804        71.3701 
 690   0.0000       2.626284        71.4648 
 691   0.0000       2.635217        71.7079 
 692   0.0000       2.663654        72.4817 
 693   0.0000       2.671824        72.7040 
 694   0.0000       2.683125        73.0115 
 695   0.0000       2.699647        73.4611 
 696   0.0000       2.704147        73.5836 
 697   0.0000       2.709301        73.7238 
 698   0.0000       2.713402        73.8354 
 699   0.0000       2.729090        74.2623 
 700   0.0000       2.742633        74.6308 
 701   0.0000       2.767878        75.3178 
 702   0.0000       2.786667        75.8291 
 703   0.0000       2.794314        76.0371 
 704   0.0000       2.796193        76.0883 
 705   0.0000       2.802759        76.2669 
 706   0.0000       2.823112        76.8208 
 707   0.0000       2.834923        77.1422 
 708   0.0000       2.851528        77.5940 
 709   0.0000       2.861499        77.8653 
 710   0.0000       2.870967        78.1230 
 711   0.0000       2.887542        78.5740 
 712   0.0000       2.900811        78.9351 
 713   0.0000       2.918041        79.4039 
 714   0.0000       2.931130        79.7601 
 715   0.0000       2.943280        80.0907 
 716   0.0000       2.962861        80.6235 
 717   0.0000       2.975839        80.9767 
 718   0.0000       2.979901        81.0872 
 719   0.0000       2.989130        81.3384 
 720   0.0000       3.018872        82.1477 
 721   0.0000       3.025002        82.3145 
 722   0.0000       3.043518        82.8183 
 723   0.0000       3.056520        83.1721 
 724   0.0000       3.066034        83.4310 
 725   0.0000       3.085886        83.9712 
 726   0.0000       3.095081        84.2214 
 727   0.0000       3.106269        84.5259 
 728   0.0000       3.122004        84.9541 
 729   0.0000       3.146203        85.6125 
 730   0.0000       3.156487        85.8924 
 731   0.0000       3.167689        86.1972 
 732   0.0000       3.176940        86.4489 
 733   0.0000       3.190932        86.8297 
 734   0.0000       3.205794        87.2341 
 735   0.0000       3.216749        87.5322 
 736   0.0000       3.223267        87.7096 
 737   0.0000       3.233865        87.9980 
 738   0.0000       3.241843        88.2150 
 739   0.0000       3.259549        88.6968 
 740   0.0000       3.260045        88.7103 
 741   0.0000       3.285955        89.4154 
 742   0.0000       3.290440        89.5374 
 743   0.0000       3.306646        89.9784 
 744   0.0000       3.315073        90.2077 
 745   0.0000       3.321102        90.3718 
 746   0.0000       3.345533        91.0366 
 747   0.0000       3.351159        91.1897 
 748   0.0000       3.358414        91.3871 
 749   0.0000       3.384758        92.1039 
 750   0.0000       3.396028        92.4106 
 751   0.0000       3.432670        93.4077 
 752   0.0000       3.451938        93.9320 
 753   0.0000       3.471464        94.4633 
 754   0.0000       3.483571        94.7928 
 755   0.0000       3.493809        95.0714 
 756   0.0000       3.517446        95.7146 
 757   0.0000       3.532604        96.1270 
 758   0.0000       3.564929        97.0067 
 759   0.0000       3.586660        97.5980 
 760   0.0000       3.614399        98.3528 
 761   0.0000       3.650054        99.3230 
 762   0.0000       3.662367        99.6581 
 763   0.0000       3.695226       100.5522 
 764   0.0000       3.720122       101.2297 
 765   0.0000       3.728774       101.4651 
 766   0.0000       3.736916       101.6867 
 767   0.0000       3.790539       103.1458 
 768   0.0000       3.801302       103.4387 
 769   0.0000       3.830758       104.2402 
 770   0.0000       3.833151       104.3053 
 771   0.0000       3.893554       105.9490 
 772   0.0000       3.909171       106.3739 
 773   0.0000       3.912401       106.4618 
 774   0.0000       3.939791       107.2072 
 775   0.0000       3.949263       107.4649 
 776   0.0000       3.980579       108.3171 
 777   0.0000       4.004259       108.9614 
 778   0.0000       4.010638       109.1350 
 779   0.0000       4.082403       111.0878 
 780   0.0000       4.100030       111.5675 
 781   0.0000       4.131680       112.4287 
 782   0.0000       4.159133       113.1758 
 783   0.0000       4.194459       114.1370 
 784   0.0000       4.270385       116.2031 
 785   0.0000       4.289640       116.7270 
 786   0.0000       4.367542       118.8469 
 787   0.0000       4.390573       119.4736 
 788   0.0000       4.423427       120.3676 
 789   0.0000       4.493352       122.2703 
 790   0.0000       4.505453       122.5996 
 791   0.0000       4.560011       124.0842 
 792   0.0000       4.576603       124.5357 
 793   0.0000       4.608872       125.4138 
 794   0.0000       4.685071       127.4873 
 795   0.0000       4.691803       127.6704 
 796   0.0000       4.724464       128.5592 
 797   0.0000       4.727429       128.6399 
 798   0.0000       4.792197       130.4023 
 799   0.0000       4.820564       131.1742 
 800   0.0000       4.902150       133.3943 
 801   0.0000       4.937755       134.3632 
 802   0.0000       4.988287       135.7382 
 803   0.0000       5.004583       136.1816 
 804   0.0000       5.150276       140.1461 
 805   0.0000       5.193350       141.3183 
 806   0.0000       5.327674       144.9734 
 807   0.0000       5.361977       145.9068 
 808   0.0000       5.463803       148.6776 
 809   0.0000       6.744352       183.5231 
 810   0.0000       7.322368       199.2518 
 811   0.0000       8.257960       224.7105 
 812   0.0000       9.203909       250.4511 
 813   0.0000       9.525939       259.2140 
 814   0.0000       9.869018       268.5496 
 815   0.0000      10.358667       281.8737 
 816   0.0000      10.474866       285.0356 
 817   0.0000      10.524520       286.3867 
 818   0.0000      10.655314       289.9458 
 819   0.0000      10.955895       298.1251 
 820   0.0000      11.107301       302.2450 
 821   0.0000      11.143405       303.2275 
 822   0.0000      11.260098       306.4028 
 823   0.0000      11.441336       311.3346 
 824   0.0000      11.698447       318.3309 
 825   0.0000      12.212420       332.3168 
 826   0.0000      12.576088       342.2128 
 827   0.0000      13.441058       365.7498 

                    ********************************
                    * MULLIKEN POPULATION ANALYSIS *
                    ********************************

-----------------------
MULLIKEN ATOMIC CHARGES
-----------------------
   0 C :   -0.285229
   1 C :    0.046313
   2 O :   -0.291901
   3 C :    0.546028
   4 O :   -0.632522
   5 C :   -0.253295
   6 C :    0.226440
   7 C :   -0.335714
   8 N :   -0.142304
   9 C :    0.348866
  10 S :   -0.697807
  11 N :   -0.214589
  12 C :    0.103480
  13 C :    0.079327
  14 C :   -0.310098
  15 C :   -0.148455
  16 C :   -0.276756
  17 C :    0.303211
  18 O :   -0.461454
  19 C :   -0.264027
  20 H :    0.092839
  21 H :    0.097109
  22 H :    0.124942
  23 H :    0.095896
  24 H :    0.109882
  25 H :    0.136872
  26 H :    0.135167
  27 H :    0.128424
  28 H :    0.246592
  29 H :    0.253602
  30 H :    0.159363
  31 H :    0.191508
  32 H :    0.198364
  33 H :    0.181669
  34 H :    0.327505
  35 H :    0.180752
Sum of atomic charges:   -0.0000000

--------------------------------
MULLIKEN REDUCED ORBITAL CHARGES
--------------------------------
  0 C s       :     3.262203  s :     3.262203
      pz      :     1.011750  p :     2.947210
      px      :     0.991010
      py      :     0.944450
      dz2     :     0.003990  d :     0.071421
      dxz     :     0.022564
      dyz     :     0.016233
      dx2y2   :     0.013497
      dxy     :     0.015137
      f0      :     0.000276  f :     0.004395
      f+1     :     0.000177
      f-1     :     0.000422
      f+2     :     0.000719
      f-2     :     0.001546
      f+3     :     0.000830
      f-3     :     0.000426
  1 C s       :     3.167029  s :     3.167029
      pz      :     0.796384  p :     2.628161
      px      :     0.954337
      py      :     0.877440
      dz2     :     0.022143  d :     0.147374
      dxz     :     0.033218
      dyz     :     0.036227
      dx2y2   :     0.022789
      dxy     :     0.032998
      f0      :     0.001415  f :     0.011123
      f+1     :     0.001150
      f-1     :     0.001891
      f+2     :     0.001990
      f-2     :     0.002642
      f+3     :     0.001142
      f-3     :     0.000894
  2 O s       :     3.707834  s :     3.707834
      pz      :     1.570547  p :     4.545516
      px      :     1.689133
      py      :     1.285836
      dz2     :     0.007877  d :     0.036224
      dxz     :     0.005097
      dyz     :     0.010189
      dx2y2   :     0.006889
      dxy     :     0.006173
      f0      :     0.000168  f :     0.002327
      f+1     :     0.000141
      f-1     :     0.000349
      f+2     :     0.000313
      f-2     :     0.000333
[...]
 15 C s       :     2.708402  s :     2.708402
      pz      :     0.865297  p :     2.789922
      px      :     0.966525
      py      :     0.958099
      dz2     :     0.059771  d :     0.408896
      dxz     :     0.047235
      dyz     :     0.076476
      dx2y2   :     0.133344
      dxy     :     0.092070
      f0      :     0.003553  f :     0.040232
      f+1     :     0.003752
      f-1     :     0.004470
      f+2     :     0.005517
      f-2     :     0.006264
      f+3     :     0.006688
      f-3     :     0.009987
 16 C s       :     2.702681  s :     2.702681
      pz      :     0.918345  p :     2.857938
      px      :     0.974588
      py      :     0.965005
      dz2     :     0.056392  d :     0.390980
      dxz     :     0.073797
      dyz     :     0.044878
      dx2y2   :     0.106710
      dxy     :     0.109203
      f0      :     0.003363  f :     0.040661
      f+1     :     0.004255
      f-1     :     0.004100
      f+2     :     0.007891
      f-2     :     0.005081
      f+3     :     0.007375
      f-3     :     0.008595
 17 C s       :     2.704438  s :     2.704438
      pz      :     0.812024  p :     2.689211
      px      :     0.995372
      py      :     0.881815
      dz2     :     0.099959  d :     0.701923
      dxz     :     0.130816
      dyz     :     0.107618
      dx2y2   :     0.168931
      dxy     :     0.194600
      f0      :     0.007035  f :     0.097603
      f+1     :     0.011067
      f-1     :     0.011633
      f+2     :     0.013799
      f-2     :     0.015498
      f+3     :     0.014901
      f-3     :     0.023669
 18 O s       :     3.190044  s :     3.190044
      pz      :     1.489428  p :     4.393657
      px      :     1.505611
      py      :     1.398618
      dz2     :     0.007575  d :     0.070187
      dxz     :     0.015403
      dyz     :     0.015047
      dx2y2   :     0.011388
      dxy     :     0.020774
      f0      :     0.000513  f :     0.005184
      f+1     :     0.000411
      f-1     :     0.000582
      f+2     :     0.000679
      f-2     :     0.001075
      f+3     :     0.000884
      f-3     :     0.001038
 19 C s       :     2.701562  s :     2.701562
      pz      :     0.915657  p :     2.840919
      px      :     0.961888
      py      :     0.963374
      dz2     :     0.049085  d :     0.382823
      dxz     :     0.053807
      dyz     :     0.073646
      dx2y2   :     0.113364
      dxy     :     0.092921
      f0      :     0.003935  f :     0.039867
      f+1     :     0.003167
      f-1     :     0.004288
      f+2     :     0.006110
      f-2     :     0.006442
      f+3     :     0.006933
      f-3     :     0.008991
 20 H s       :     0.839972  s :     0.839972
      pz      :     0.057532  p :     0.158475
      px      :     0.053284
      py      :     0.047658
      dz2     :     0.007441  d :     0.028586
      dxz     :     0.005748
      dyz     :     0.005769
      dx2y2   :     0.004801
      dxy     :     0.004826
 21 H s       :     0.839095  s :     0.839095
      pz      :     0.055098  p :     0.157124
      px      :     0.061159
      py      :     0.040867
      dz2     :     0.006617  d :     0.028506
      dxz     :     0.007156
      dyz     :     0.003852
      dx2y2   :     0.005102
      dxy     :     0.005779
 22 H s       :     0.839290  s :     0.839290
      pz      :     0.050932  p :     0.151093
      px      :     0.045735
      py      :     0.054426
      dz2     :     0.005526  d :     0.027125
      dxz     :     0.005291
      dyz     :     0.006420
      dx2y2   :     0.004880
      dxy     :     0.005008
 23 H s       :     0.850306  s :     0.850306
      pz      :     0.042936  p :     0.151109
      px      :     0.057297
      py      :     0.050876
      dz2     :     0.004192  d :     0.028071
      dxz     :     0.005712
      dyz     :     0.005276
      dx2y2   :     0.006744
      dxy     :     0.006147
 24 H s       :     0.848669  s :     0.848669
      pz      :     0.054315  p :     0.147893
      px      :     0.053608
      py      :     0.039970
      dz2     :     0.006316  d :     0.027112
      dxz     :     0.007521
      dyz     :     0.004554
      dx2y2   :     0.003112
      dxy     :     0.005608
 25 H s       :     0.819912  s :     0.819912
      pz      :     0.042407  p :     0.151316
      px      :     0.074050
      py      :     0.034859
      dz2     :     0.002441  d :     0.028111
      dxz     :     0.010216
      dyz     :     0.000163
      dx2y2   :     0.006928
      dxy     :     0.008362
 26 H s       :     0.816644  s :     0.816644
      pz      :     0.049031  p :     0.152914
      px      :     0.044243
      py      :     0.059640
      dz2     :     0.005939  d :     0.028337
      dxz     :     0.002533
      dyz     :     0.006446
      dx2y2   :     0.007247
      dxy     :     0.006173
 27 H s       :     0.817677  s :     0.817677
      pz      :     0.071890  p :     0.154585
      px      :     0.045553
      py      :     0.037142
      dz2     :     0.009290  d :     0.028723
      dxz     :     0.008699
      dyz     :     0.008935
      dx2y2   :     0.001205
      dxy     :     0.000595
 28 H s       :     0.714802  s :     0.714802
      pz      :     0.103683  p :     0.250635
      px      :     0.072586
      py      :     0.074366
      dz2     :     0.019577  d :     0.060852
      dxz     :     0.011741
      dyz     :     0.013721
      dx2y2   :     0.006200
      dxy     :     0.009613
 29 H s       :     0.721148  s :     0.721148
      pz      :     0.053578  p :     0.253703
      px      :     0.074936
      py      :     0.125188
      dz2     :     0.005897  d :     0.060997
      dxz     :     0.001683
      dyz     :     0.016365
      dx2y2   :     0.016914
      dxy     :     0.020138
 30 H s       :     0.824257  s :     0.824257
      pz      :     0.060996  p :     0.153770
      px      :     0.051101
      py      :     0.041673
      dz2     :     0.006866  d :     0.028959
      dxz     :     0.008049
      dyz     :     0.006162
      dx2y2   :     0.002976
      dxy     :     0.004905
 31 H s       :     0.833259  s :     0.833259
      pz      :     0.061347  p :     0.158974
      px      :     0.041114
      py      :     0.056513
      dz2     :     0.006829  d :     0.027687
      dxz     :     0.005047
      dyz     :     0.006504
      dx2y2   :     0.004733
      dxy     :     0.004574
 32 H s       :     0.833264  s :     0.833264
      pz      :     0.040355  p :     0.152949
      px      :     0.078445
      py      :     0.034148
      dz2     :     0.003034  d :     0.026758
      dxz     :     0.007517
      dyz     :     0.000517
      dx2y2   :     0.007743
      dxy     :     0.007947
 33 H s       :     0.832191  s :     0.832191
      pz      :     0.042270  p :     0.156883
      px      :     0.045495
      py      :     0.069118
      dz2     :     0.002820  d :     0.027539
      dxz     :     0.002196
      dyz     :     0.006305
      dx2y2   :     0.008324
      dxy     :     0.007894
 34 H s       :     0.666227  s :     0.666227
      pz      :     0.106144  p :     0.348635
      px      :     0.141177
      py      :     0.101314
      dz2     :     0.019698  d :     0.099774
      dxz     :     0.022462
      dyz     :     0.012677
      dx2y2   :     0.023307
      dxy     :     0.021630
 35 H s       :     0.834732  s :     0.834732
      pz      :     0.047362  p :     0.156515
      px      :     0.075224
      py      :     0.033928
      dz2     :     0.003801  d :     0.027784
      dxz     :     0.008134
      dyz     :     0.001318
      dx2y2   :     0.007005
      dxy     :     0.007527


                      *****************************
                      * MAYER POPULATION ANALYSIS *
                      *****************************

  NA   - Mulliken gross atomic population
  ZA   - Total nuclear charge
  QA   - Mulliken gross atomic charge
  VA   - Mayer's total valence
  BVA  - Mayer's bonded valence
  FA   - Mayer's free valence

  ATOM       NA         ZA         QA         VA         BVA        FA
  0 C      6.2852     6.0000    -0.2852     3.8896     3.8896     0.0000
  1 C      5.9537     6.0000     0.0463     3.8355     3.8355    -0.0000
  2 O      8.2919     8.0000    -0.2919     2.1563     2.1563     0.0000
  3 C      5.4540     6.0000     0.5460     4.2256     4.2256    -0.0000
  4 O      8.6325     8.0000    -0.6325     1.8978     1.8978     0.0000
  5 C      6.2533     6.0000    -0.2533     3.6668     3.6668     0.0000
  6 C      5.7736     6.0000     0.2264     3.8408     3.8408     0.0000
  7 C      6.3357     6.0000    -0.3357     3.8918     3.8918     0.0000
  8 N      7.1423     7.0000    -0.1423     3.3578     3.3578     0.0000
  9 C      5.6511     6.0000     0.3489     4.0520     4.0520    -0.0000
 10 S     16.6978    16.0000    -0.6978     1.4605     1.4605     0.0000
 11 N      7.2146     7.0000    -0.2146     3.3619     3.3619    -0.0000
 12 C      5.8965     6.0000     0.1035     3.9270     3.9270    -0.0000
 13 C      5.9207     6.0000     0.0793     3.6892     3.6892    -0.0000
 14 C      6.3101     6.0000    -0.3101     3.8102     3.8102    -0.0000
 15 C      6.1485     6.0000    -0.1485     3.7562     3.7562    -0.0000
 16 C      6.2768     6.0000    -0.2768     3.7793     3.7793    -0.0000
 17 C      5.6968     6.0000     0.3032     3.8458     3.8458    -0.0000
 18 O      8.4615     8.0000    -0.4615     2.0287     2.0287    -0.0000
 19 C      6.2640     6.0000    -0.2640     3.8373     3.8373    -0.0000
 20 H      0.9072     1.0000     0.0928     0.9805     0.9805     0.0000
 21 H      0.9029     1.0000     0.0971     0.9784     0.9784     0.0000
 22 H      0.8751     1.0000     0.1249     0.9810     0.9810     0.0000
 23 H      0.9041     1.0000     0.0959     0.9848     0.9848    -0.0000
 24 H      0.8901     1.0000     0.1099     0.9807     0.9807    -0.0000
 25 H      0.8631     1.0000     0.1369     0.9784     0.9784    -0.0000
 26 H      0.8648     1.0000     0.1352     0.9765     0.9765    -0.0000
 27 H      0.8716     1.0000     0.1284     0.9795     0.9795     0.0000
 28 H      0.7534     1.0000     0.2466     0.9709     0.9709     0.0000
 29 H      0.7464     1.0000     0.2536     0.9646     0.9646    -0.0000
 30 H      0.8406     1.0000     0.1594     0.9795     0.9795     0.0000
 31 H      0.8085     1.0000     0.1915     0.9692     0.9692     0.0000
 32 H      0.8016     1.0000     0.1984     0.9637     0.9637    -0.0000
 33 H      0.8183     1.0000     0.1817     0.9733     0.9733     0.0000
 34 H      0.6725     1.0000     0.3275     0.9360     0.9360    -0.0000
 35 H      0.8192     1.0000     0.1808     0.9843     0.9843    -0.0000

  Mayer bond orders larger than 0.100000
B(  0-C ,  1-C ) :   0.9718 B(  0-C , 20-H ) :   0.9776 B(  0-C , 21-H ) :   0.9769 
B(  0-C , 22-H ) :   0.9724 B(  1-C ,  2-O ) :   0.8855 B(  1-C , 23-H ) :   0.9782 
B(  1-C , 24-H ) :   0.9739 B(  2-O ,  3-C ) :   1.2587 B(  3-C ,  4-O ) :   1.8212 
B(  3-C ,  5-C ) :   1.1061 B(  5-C ,  6-C ) :   1.5952 B(  5-C , 12-C ) :   1.0021 
B(  6-C ,  7-C ) :   0.9557 B(  6-C ,  8-N ) :   1.1858 B(  7-C , 25-H ) :   0.9640 
B(  7-C , 26-H ) :   0.9568 B(  7-C , 27-H ) :   0.9889 B(  8-N ,  9-C ) :   1.1939 
B(  8-N , 28-H ) :   0.9290 B(  9-C , 10-S ) :   1.3247 B(  9-C , 11-N ) :   1.4667 
B( 11-N , 12-C ) :   0.9096 B( 11-N , 29-H ) :   0.9229 B( 12-C , 13-C ) :   0.9916 
B( 12-C , 30-H ) :   0.9821 B( 13-C , 14-C ) :   1.3492 B( 13-C , 19-C ) :   1.3528 
B( 14-C , 15-C ) :   1.3587 B( 14-C , 31-H ) :   0.9618 B( 15-C , 16-C ) :   1.3689 
B( 15-C , 32-H ) :   0.9598 B( 16-C , 17-C ) :   1.3381 B( 16-C , 33-H ) :   0.9639 
B( 17-C , 18-O ) :   1.0736 B( 17-C , 19-C ) :   1.3770 B( 18-O , 34-H ) :   0.9198 
B( 19-C , 35-H ) :   0.9521 

-------
TIMINGS
-------

Total SCF time: 0 days 1 hours 45 min 24 sec 

Total time                  ....    6324.765 sec
Sum of individual times     ....    6321.304 sec  ( 99.9%)

Fock matrix formation       ....    6309.275 sec  ( 99.8%)
Diagonalization             ....       1.586 sec  (  0.0%)
Density matrix formation    ....       0.188 sec  (  0.0%)
Population analysis         ....       0.224 sec  (  0.0%)
Initial guess               ....       5.531 sec  (  0.1%)
Orbital Transformation      ....       0.000 sec  (  0.0%)
Orbital Orthonormalization  ....       0.000 sec  (  0.0%)
DIIS solution               ....       1.603 sec  (  0.0%)
SOSCF solution              ....       1.522 sec  (  0.0%)

Maximum memory used throughout the entire SCF-calculation: 707.3 MB

------------------------------------------------------------------------------
                                ORCA  MP2 
------------------------------------------------------------------------------

Freezing NCore=48 chemical core electrons

-------------
RI-MP2 ENERGY
-------------
Dimension of the basis                    ...  828
Memory devoted to MP2                     ...  256 MB   
Data format for buffers                   ... DOUBLE
Compression type for matrix containers    ... UNCOMPRESSED
Overall scaling of the MP2 energy         ...   1.000e+00
Calculating two index integrals           ... done (    0.043 sec)
Cholesky decomposition of V**-1           ... done (    0.562 sec)

-----------------
RI-TRANSFORMATION (AUX index driven)
-----------------

Dimension of the orbital-basis         ... 828
Dimension of the aux-basis             ... 2141
Transformation of internal/external MOs...   24-  76 to   77- 827
Number Format for Storage              ... Double (8 Byte)
Integral mode                          ... Direct

First Phase: integral generation and transformation of MO indices
  Aux angular momentum 0               ... done (    4.736 sec)
  Aux angular momentum 1               ... done (    8.136 sec)
  Aux angular momentum 2               ... done (   10.557 sec)
  Aux angular momentum 3               ... done (    8.444 sec)
  Aux angular momentum 4               ... done (    2.905 sec)
Closing buffer VIA ( 0.63 GB; CompressionRatio= 1.00)
  Phase 1 completed in    34.945 sec
Second Phase: sorting and transformation of aux index

IA-Transformation
Memory available                       ... 158 MB 
Max. # MO pairs treated in a batch     ... 11    
# of internal orbitals                 ... 53
# batches for internal orbitals        ... 5
Closing buffer IAV ( 0.63 GB; CompressionRatio= 1.00)
(ia|v) transformation done in    18.713 sec

  Phase 2 completed in    18.722 sec
RI-Integral transformation completed in    53.672 sec
Opening buffers                              ... done

Starting loop over batches of integrals:

Operator 0  - window                       ... ( 24- 76)x( 77-827)
Operator 0  - Memory available             ...   256 MB
Operator 0  - Memory needed per MO         ...  12.3 MB
Operator 0  - Number of orbitals per batch ... 13
Operator 0  - Number of batches            ... 5

OPERATOR  0   PASS   0:  MOs    24 ...   36
  Reading integrals       ... ok
  Internal MO  26
  Internal MO  29
  Internal MO  32
  Internal MO  35
OPERATOR  0   PASS   1:  MOs    37 ...   49
  Reading integrals       ... ok
  Internal MO  38
  Internal MO  41
  Internal MO  44
  Internal MO  47
OPERATOR  0   PASS   2:  MOs    50 ...   62
  Reading integrals       ... ok
  Internal MO  50
  Internal MO  53
  Internal MO  56
  Internal MO  59
  Internal MO  62
OPERATOR  0   PASS   3:  MOs    63 ...   75
  Reading integrals       ... ok
  Internal MO  65
  Internal MO  68
  Internal MO  71
  Internal MO  74
OPERATOR  0   PASS   4:  MOs    76 ...   76
  Reading integrals       ... ok
Time spent in pair loops =    88.380 sec
Deleting buffer (Ka|jb)[aa] ...done

-----------------------------------------------
 RI-MP2 CORRELATION ENERGY:     -3.523326526 Eh
-----------------------------------------------


-------
TIMINGS
-------

Total time                :  142.757 sec
Integral trafo            :   53.693 sec ( 37.6%)
I/O of integrals          :    0.943 sec (  0.7%)
K(i,j) Operators          :   60.479 sec ( 42.4%)
T(i,j) pair energies      :    8.833 sec (  6.2%)
V-calculation             :    0.043 sec (  0.0%)
V**(-1/2)                 :    0.562 sec (  0.4%)
Gamma(ia|P)               :    0.000 sec (  0.0%)
Gamma-Trafo               :    0.000 sec (  0.0%)
D(virtual)                :    0.000 sec (  0.0%)
D(internal)               :    0.000 sec (  0.0%)
W(virtual)                :    0.000 sec (  0.0%)
W(internal)               :    0.000 sec (  0.0%)
L(virtual)                :    0.000 sec (  0.0%)
L(internal)               :    0.000 sec (  0.0%)
G(D)                      :    0.000 sec (  0.0%)
G(Z)                      :    0.000 sec (  0.0%)
Z-Vector Solution         :    0.000 sec (  0.0%)
3-Index Derivative        :    0.000 sec (  0.0%)
2-Index Derivative        :    0.000 sec (  0.0%)
Separable Gradient        :    0.000 sec (  0.0%)


---------------------------------------
MP2 TOTAL ENERGY:    -1274.438959468 Eh
---------------------------------------

Maximum memory used throughout the entire MP2-calculation: 302.0 MB

-------------------------   --------------------
FINAL SINGLE POINT ENERGY     -1274.438959468384
-------------------------   --------------------


                            ***************************************
                            *     ORCA property calculations      *
                            ***************************************


  WARNING: The energy has been calculated at the MP2 level but the densities
           used in the property calculations are still SCF densities
           MP2 response densities have not been calculated 
           use %mp2 Density relaxed end
           or  %mp2 Density unrelaxed end

                                    ---------------------
                                    Active property flags
                                    ---------------------
   (+) Dipole Moment


------------------------------------------------------------------------------
                       ORCA ELECTRIC PROPERTIES CALCULATION
------------------------------------------------------------------------------

Dipole Moment Calculation                       ... on
Quadrupole Moment Calculation                   ... off
Polarizability Calculation                      ... off
GBWName                                         ... qm_input.solv.gbw
Electron density file                           ... qm_input.solv.scfp
The origin for moment calculation is the CENTER OF MASS  = ( 5.091328, -5.945301 -37.864124)

-------------
DIPOLE MOMENT
-------------
                                X             Y             Z
Electronic contribution:    -10.34831     -14.33621      -3.62343
Nuclear contribution   :     12.96409      16.69800       4.22754
                        -----------------------------------------
Total Dipole Moment    :      2.61578       2.36179       0.60411
                        -----------------------------------------
Magnitude (a.u.)       :      3.57565
Magnitude (Debye)      :      9.08859



--------------------
Rotational spectrum 
--------------------
 
Rotational constants in cm-1:     0.011028     0.007753     0.004978 
Rotational constants in MHz :   330.611692   232.441027   149.242588 

 Dipole components along the rotational axes: 
x,y,z [a.u.] :     2.639811    -2.156312    -1.080285 
x,y,z [Debye]:     6.709866    -5.480910    -2.745867 

 

Timings for individual modules:

Sum of individual times         ...     6692.621 sec (= 111.544 min)
GTO integral calculation        ...      224.671 sec (=   3.745 min)   3.4 %
SCF iterations                  ...     6324.843 sec (= 105.414 min)  94.5 %
MP2 module                      ...      143.107 sec (=   2.385 min)   2.1 %
                             ****ORCA TERMINATED NORMALLY****
TOTAL RUN TIME: 0 days 1 hours 51 minutes 33 seconds 538 msec
