
                                        *****************
                                        * O   R   C   A *
                                        *****************

                                            #,                                       
                                            ###                                      
                                            ####                                     
                                            #####                                    
                                            ######                                   
                                           ########,                                 
                                     ,,################,,,,,                         
                               ,,#################################,,                 
                          ,,##########################################,,             
                       ,#########################################, ''#####,          
                    ,#############################################,,   '####,        
                  ,##################################################,,,,####,       
                ,###########''''           ''''###############################       
              ,#####''   ,,,,##########,,,,          '''####'''          '####       
            ,##' ,,,,###########################,,,                        '##       
           ' ,,###''''                  '''############,,,                           
         ,,##''                                '''############,,,,        ,,,,,,###''
      ,#''                                            '''#######################'''  
     '                                                          ''''####''''         
             ,#######,   #######,   ,#######,      ##                                
            ,#'     '#,  ##    ##  ,#'     '#,    #''#        ######   ,####,        
            ##       ##  ##   ,#'  ##            #'  '#       #        #'  '#        
            ##       ##  #######   ##           ,######,      #####,   #    #        
            '#,     ,#'  ##    ##  '#,     ,#' ,#      #,         ##   #,  ,#        
             '#######'   ##     ##  '#######'  #'      '#     #####' # '####'        



                  #######################################################
                  #                        -***-                        #
                  #          Department of theory and spectroscopy      #
                  #    Directorship and core code : Frank Neese         #
                  #        Max Planck Institute fuer Kohlenforschung    #
                  #                Kaiser Wilhelm Platz 1               #
                  #                 D-45470 Muelheim/Ruhr               #
                  #                      Germany                        #
                  #                                                     #
                  #                  All rights reserved                #
                  #                        -***-                        #
                  #######################################################


                         Program Version 5.0.0 -  RELEASE  -
                                (SVN: $Rev: 19529$)
                ($Date: 2021-06-28 11:36:33 +0200 (Mo, 28 Jun 2021) $)


 With contributions from (in alphabetic order):
   Daniel Aravena         : Magnetic Suceptibility
   Michael Atanasov       : Ab Initio Ligand Field Theory (pilot matlab implementation)
   Alexander A. Auer      : GIAO ZORA, VPT2 properties, NMR spectrum
   Ute Becker             : Parallelization
   Giovanni Bistoni       : ED, misc. LED, open-shell LED, HFLD
   Martin Brehm           : Molecular dynamics
   Dmytro Bykov           : SCF Hessian
   Vijay G. Chilkuri      : MRCI spin determinant printing, contributions to CSF-ICE
   Dipayan Datta          : RHF DLPNO-CCSD density
   Achintya Kumar Dutta   : EOM-CC, STEOM-CC
   Dmitry Ganyushin       : Spin-Orbit,Spin-Spin,Magnetic field MRCI
   Miquel Garcia          : C-PCM Hessian, Gaussian charge scheme
   Yang Guo               : DLPNO-NEVPT2, F12-NEVPT2, CIM, IAO-localization
   Andreas Hansen         : Spin unrestricted coupled pair/coupled cluster methods
   Benjamin Helmich-Paris : MC-RPA, TRAH-SCF, COSX integrals
   Lee Huntington         : MR-EOM, pCC
   Robert Izsak           : Overlap fitted RIJCOSX, COSX-SCS-MP3, EOM
   Marcus Kettner         : VPT2
   Christian Kollmar      : KDIIS, OOCD, Brueckner-CCSD(T), CCSD density, CASPT2, CASPT2-K
   Simone Kossmann        : Meta GGA functionals, TD-DFT gradient, OOMP2, MP2 Hessian
   Martin Krupicka        : Initial AUTO-CI
   Lucas Lang             : DCDCAS
   Marvin Lechner         : AUTO-CI (C++ implementation), FIC-MRCC
   Dagmar Lenk            : GEPOL surface, SMD
   Dimitrios Liakos       : Extrapolation schemes; Compound Job, initial MDCI parallelization
   Dimitrios Manganas     : Further ROCIS development; embedding schemes
   Dimitrios Pantazis     : SARC Basis sets
   Anastasios Papadopoulos: AUTO-CI, single reference methods and gradients
   Taras Petrenko         : DFT Hessian,TD-DFT gradient, ASA, ECA, R-Raman, ABS, FL, XAS/XES, NRVS
   Peter Pinski           : DLPNO-MP2, DLPNO-MP2 Gradient
   Christoph Reimann      : Effective Core Potentials
   Marius Retegan         : Local ZFS, SOC
   Christoph Riplinger    : Optimizer, TS searches, QM/MM, DLPNO-CCSD(T), (RO)-DLPNO pert. Triples
   Tobias Risthaus        : Range-separated hybrids, TD-DFT gradient, RPA, STAB
   Michael Roemelt        : Original ROCIS implementation
   Masaaki Saitow         : Open-shell DLPNO-CCSD energy and density
   Barbara Sandhoefer     : DKH picture change effects
   Avijit Sen             : IP-ROCIS
   Kantharuban Sivalingam : CASSCF convergence, NEVPT2, FIC-MRCI
   Bernardo de Souza      : ESD, SOC TD-DFT
   Georgi Stoychev        : AutoAux, RI-MP2 NMR
   Willem Van den Heuvel  : Paramagnetic NMR
   Boris Wezisla          : Elementary symmetry handling
   Frank Wennmohs         : Technical directorship


 We gratefully acknowledge several colleagues who have allowed us to
 interface, adapt or use parts of their codes:
   Stefan Grimme, W. Hujo, H. Kruse, P. Pracht,  : VdW corrections, initial TS optimization,
                  C. Bannwarth, S. Ehlert          DFT functionals, gCP, sTDA/sTD-DF
   Ed Valeev, F. Pavosevic, A. Kumar             : LibInt (2-el integral package), F12 methods
   Garnet Chan, S. Sharma, J. Yang, R. Olivares  : DMRG
   Ulf Ekstrom                                   : XCFun DFT Library
   Mihaly Kallay                                 : mrcc  (arbitrary order and MRCC methods)
   Jiri Pittner, Ondrej Demel                    : Mk-CCSD
   Frank Weinhold                                : gennbo (NPA and NBO analysis)
   Christopher J. Cramer and Donald G. Truhlar   : smd solvation model
   Lars Goerigk                                  : TD-DFT with DH, B97 family of functionals
   V. Asgeirsson, H. Jonsson                     : NEB implementation
   FAccTs GmbH                                   : IRC, NEB, NEB-TS, DLPNO-Multilevel, CI-OPT
                                                   MM, QMMM, 2- and 3-layer-ONIOM, Crystal-QMMM,
                                                   LR-CPCM, SF, NACMEs, symmetry and pop. for TD-DFT,
                                                   nearIR, NL-DFT gradient (VV10), updates on ESD,
                                                   ML-optimized integration grids
   S Lehtola, MJT Oliveira, MAL Marques          : LibXC Library
   Liviu Ungur et al                             : ANISO software


 Your calculation uses the libint2 library for the computation of 2-el integrals
 For citations please refer to: http://libint.valeyev.net

 Your ORCA version has been built with support for libXC version: 5.1.0
 For citations please refer to: https://tddft.org/programs/libxc/

 This ORCA versions uses:
   CBLAS   interface :  Fast vector & matrix operations
   LAPACKE interface :  Fast linear algebra routines
   SCALAPACK package :  Parallel linear algebra routines
   Shared memory     :  Shared parallel matrices
   BLAS/LAPACK       :  OpenBLAS 0.3.15  USE64BITINT DYNAMIC_ARCH NO_AFFINITY SkylakeX SINGLE_THREADED
        Core in use  :  SkylakeX
   Copyright (c) 2011-2014, The OpenBLAS Project


================================================================================

----- Orbital basis set information -----
Your calculation utilizes the basis: cc-pVTZ 
       H, B-Ne : Obtained from the ccRepo (grant-hill.group.shef.ac.uk/ccrepo) Feb. 2017
                 T. H. Dunning, Jr., J. Chem. Phys. 90, 1007 (1989)
            He : Obtained from the ccRepo (grant-hill.group.shef.ac.uk/ccrepo) Feb. 2017
                 D. E. Woon, T. H. Dunning, Jr., J. Chem. Phys. 100, 2975 (1994)
  Li-Be, Na-Mg : Obtained from the ccRepo (grant-hill.group.shef.ac.uk/ccrepo) Feb. 2017
                 B. P. Prascher, D. E. Woon, K. A. Peterson, T. H. Dunning, Jr., A. K. Wilson, Theor. Chem. Acc. 128, 69 (2011)
         Al-Ar : Obtained from the ccRepo (grant-hill.group.shef.ac.uk/ccrepo) Feb. 2017
                 D. E. Woon, T. H. Dunning, Jr., J. Chem. Phys. 98, 1358 (1993)
            Ca : Obtained from the Peterson Research Group Website (tyr0.chem.wsu.edu/~kipeters) Feb. 2017
                 J. Koput, K. A. Peterson, J. Phys. Chem. 106, 9595 (2002)
         Sc-Zn : Obtained from the ccRepo (grant-hill.group.shef.ac.uk/ccrepo) Feb. 2017
                 N. B. Balabanov, K. A. Peterson, J. Chem. Phys. 123, 064107 (2005)
                 N. B. Balabanov, K. A. Peterson, J. Chem. Phys. 125, 074110 (2006)
         Ga-Kr : Obtained from the ccRepo (grant-hill.group.shef.ac.uk/ccrepo) Feb. 2017
                 A. K. Wilson, D. E. Woon, K. A. Peterson, T. H. Dunning, Jr., J. Chem. Phys. 110, 7667 (1999)
             Y : Obtained from the ccRepo (grant-hill.group.shef.ac.uk/ccrepo) Feb. 2017
                 K. A. Peterson, D. Figgen, M. Dolg, H. Stoll, J. Chem. Phys. 126, 124101 (2007)
        Ag, Au : Obtained from the Peterson Research Group Website (tyr0.chem.wsu.edu/~kipeters) Feb. 2017
                 K. A. Peterson, C. Puzzarini, Theor. Chem. Acc. 114, 283 (2005)

----- AuxC basis set information -----
Your calculation utilizes the auxiliary basis: cc-pVTZ/C 
  Obtained from the EMSL Basis Set Exchange (bse.pnl.gov) Feb. 2017
  H-He, B-F, Al-Ar, Ga-Kr : F. Weigend, A. Kohn, C. Hattig, J. Chem. Phys. 116, 3175 (2002)
             Li-Be, Na-Mg : C. Haettig, Phys. Chem. Chem. Phys. 7, 59 (2005)
                       Ne : C. Haettig, Phys. Chem. Chem. Phys. 7, 59 (2005)
                            F. Weigend, A. Kohn, C. Hattig, J. Chem. Phys. 116, 3175 (2002)
                    Sc-Zn : J. G. Hill, J. A. Platts, J. Chem. Phys. 128, 044104 (2008)

================================================================================
                                        WARNINGS
                       Please study these warnings very carefully!
================================================================================


WARNING: No MP2 level density has been requested!
         To caclulate MP2 level properties use
         %mp2 Density relaxed end
         or
         %mp2 Density unrelaxed end

WARNING: Post HF methods need fully converged wavefunctions
  ===> : Setting SCFConvForced true
         You can overwrite this default with %scf ConvForced false 


INFO   : the flag for use of the SHARK integral package has been found!

================================================================================
                                       INPUT FILE
================================================================================
NAME = qm_input.vacu
|  1> ! RI-MP2 cc-pVTZ cc-pVTZ/c TightSCF KeepDens NoKeepInts
|  2> 
|  3> *xyz  0  1
|  4>     C     0.6366931    6.6131353   -4.4638707
|  5>     C    -0.6172097    5.8015957   -3.8696090
|  6>     O    -1.2738452    6.6503934   -2.8653293
|  7>     C    -2.0228248    6.0248390   -1.8571825
|  8>     O    -2.0609221    4.7994937   -1.7514550
|  9>     C    -2.5231122    7.0149179   -0.8958418
| 10>     C    -2.5015962    8.3531400   -1.0194557
| 11>     C    -1.8817223    9.1270387   -2.0876270
| 12>     N    -3.0492963    9.1926332   -0.0350064
| 13>     C    -3.5757269    8.7318309    1.1207484
| 14>     S    -4.1780940    9.8094547    2.2704603
| 15>     N    -3.5624417    7.3467618    1.2654322
| 16>     C    -3.1734770    6.4170087    0.2997541
| 17>     C    -4.4931809    5.7370225   -0.2227807
| 18>     C    -4.6814634    4.3462969   -0.0128399
| 19>     C    -5.9097034    3.7209045   -0.3585270
| 20>     C    -6.9997656    4.4669132   -0.8117498
| 21>     C    -6.9028915    5.8664264   -0.9295546
| 22>     O    -7.9633021    6.5844152   -1.3110666
| 23>     C    -5.6164760    6.4459210   -0.7178742
| 24>     H     1.2854685    6.7830619   -3.5958808
| 25>     H     0.3951874    7.5725983   -4.9374691
| 26>     H     1.0399496    5.9939048   -5.2744985
| 27>     H    -1.3722821    5.5844393   -4.6350527
| 28>     H    -0.1823814    4.9097930   -3.4018463
| 29>     H    -2.3183955    8.8943544   -3.0665863
| 30>     H    -0.8111809    8.9358411   -1.9441901
| 31>     H    -1.9382638   10.2114286   -1.9324097
| 32>     H    -3.2464676   10.1687193   -0.2203323
| 33>     H    -3.9846043    7.0913968    2.1500417
| 34>     H    -2.5601947    5.6409274    0.7738574
| 35>     H    -3.8077316    3.8315686    0.3758031
| 36>     H    -5.9266230    2.6464449   -0.2015356
| 37>     H    -7.9428507    3.9563705   -0.9830185
| 38>     H    -8.7620838    6.1295577   -0.9920341
| 39>     H    -5.6273880    7.5297418   -0.7857969
| 40> *
| 41> 
| 42>                          ****END OF INPUT****
================================================================================

                       ****************************
                       * Single Point Calculation *
                       ****************************

---------------------------------
CARTESIAN COORDINATES (ANGSTROEM)
---------------------------------
  C      0.636693    6.613135   -4.463871
  C     -0.617210    5.801596   -3.869609
  O     -1.273845    6.650393   -2.865329
  C     -2.022825    6.024839   -1.857182
  O     -2.060922    4.799494   -1.751455
  C     -2.523112    7.014918   -0.895842
  C     -2.501596    8.353140   -1.019456
  C     -1.881722    9.127039   -2.087627
  N     -3.049296    9.192633   -0.035006
  C     -3.575727    8.731831    1.120748
  S     -4.178094    9.809455    2.270460
  N     -3.562442    7.346762    1.265432
  C     -3.173477    6.417009    0.299754
  C     -4.493181    5.737023   -0.222781
  C     -4.681463    4.346297   -0.012840
  C     -5.909703    3.720904   -0.358527
  C     -6.999766    4.466913   -0.811750
  C     -6.902891    5.866426   -0.929555
  O     -7.963302    6.584415   -1.311067
  C     -5.616476    6.445921   -0.717874
  H      1.285468    6.783062   -3.595881
  H      0.395187    7.572598   -4.937469
  H      1.039950    5.993905   -5.274498
  H     -1.372282    5.584439   -4.635053
  H     -0.182381    4.909793   -3.401846
  H     -2.318395    8.894354   -3.066586
  H     -0.811181    8.935841   -1.944190
  H     -1.938264   10.211429   -1.932410
  H     -3.246468   10.168719   -0.220332
  H     -3.984604    7.091397    2.150042
  H     -2.560195    5.640927    0.773857
  H     -3.807732    3.831569    0.375803
  H     -5.926623    2.646445   -0.201536
  H     -7.942851    3.956370   -0.983019
  H     -8.762084    6.129558   -0.992034
  H     -5.627388    7.529742   -0.785797

----------------------------
CARTESIAN COORDINATES (A.U.)
----------------------------
  NO LB      ZA    FRAG     MASS         X           Y           Z
   0 C     6.0000    0    12.011    1.203176   12.497015   -8.435493
   1 C     6.0000    0    12.011   -1.166357   10.963427   -7.312501
   2 O     8.0000    0    15.999   -2.407219   12.567422   -5.414688
   3 C     6.0000    0    12.011   -3.822585   11.385296   -3.509566
   4 O     8.0000    0    15.999   -3.894578    9.069729   -3.309770
   5 C     6.0000    0    12.011   -4.767991   13.256274   -1.692896
   6 C     6.0000    0    12.011   -4.727332   15.785147   -1.926492
   7 C     6.0000    0    12.011   -3.555940   17.247604   -3.945043
   8 N     7.0000    0    14.007   -5.762335   17.371559   -0.066153
   9 C     6.0000    0    12.011   -6.757145   16.500769    2.117908
  10 S    16.0000    0    32.060   -7.895453   18.537183    4.290548
  11 N     7.0000    0    14.007   -6.732039   13.883368    2.391320
  12 C     6.0000    0    12.011   -5.997002   12.126389    0.566453
  13 C     6.0000    0    12.011   -8.490881   10.841401   -0.420995
  14 C     6.0000    0    12.011   -8.846684    8.213311   -0.024264
  15 C     6.0000    0    12.011  -11.167721    7.031490   -0.677518
  16 C     6.0000    0    12.011  -13.227640    8.441243   -1.533985
  17 C     6.0000    0    12.011  -13.044574   11.085939   -1.756604
  18 O     8.0000    0    15.999  -15.048460   12.442741   -2.477557
  19 C     6.0000    0    12.011  -10.613601   12.181025   -1.356586
  20 H     1.0000    0     1.008    2.429183   12.818129   -6.795230
  21 H     1.0000    0     1.008    0.746796   14.310137   -9.330464
  22 H     1.0000    0     1.008    1.965220   11.326839   -9.967358
  23 H     1.0000    0     1.008   -2.593237   10.553061   -8.758980
  24 H     1.0000    0     1.008   -0.344651    9.278164   -6.428558
  25 H     1.0000    0     1.008   -4.381133   16.807894   -5.795008
  26 H     1.0000    0     1.008   -1.532910   16.886292   -3.673987
  27 H     1.0000    0     1.008   -3.662788   19.296803   -3.651725
  28 H     1.0000    0     1.008   -6.134935   19.216095   -0.416368
  29 H     1.0000    0     1.008   -7.529811   13.400798    4.062990
  30 H     1.0000    0     1.008   -4.838067   10.659808    1.462379
  31 H     1.0000    0     1.008   -7.195570    7.240615    0.710165
  32 H     1.0000    0     1.008  -11.199694    5.001056   -0.380847
  33 H     1.0000    0     1.008  -15.009813    7.476457   -1.857636
  34 H     1.0000    0     1.008  -16.557939   11.583185   -1.874673
  35 H     1.0000    0     1.008  -10.634222   14.229150   -1.484941

--------------------------------
INTERNAL COORDINATES (ANGSTROEM)
--------------------------------
 C      0   0   0     0.000000000000     0.00000000     0.00000000
 C      1   0   0     1.607487394135     0.00000000     0.00000000
 O      2   1   0     1.469763733128   108.03155296     0.00000000
 C      3   2   1     1.403085428235   118.16226119   204.79950534
 O      4   3   2     1.230488038445   121.48286999     4.95053712
 C      4   3   2     1.467896335679   110.59649255   175.99837914
 C      6   4   3     1.344091411868   127.29047446    10.75008650
 C      7   6   4     1.457447349274   127.07714367   354.74118606
 N      7   6   4     1.404942937153   121.61682449   178.25967491
 C      9   7   6     1.351013358196   123.19782706     3.10234933
 S     10   9   7     1.686996333870   120.28315900   178.40922198
 N     10   9   7     1.392668772643   115.11113407   358.86764993
 C     12  10   9     1.395803910879   126.38825526   354.05129338
 C     13  12  10     1.573862202697   106.48845850   253.53192656
 C     14  13  12     1.419028940440   119.04980382   243.37396994
 C     15  14  13     1.420981605329   120.66582305   174.15771013
 C     16  15  14     1.396486837312   121.23442255   354.81146441
 C     17  16  15     1.407799616113   120.29844878   359.69427718
 O     18  17  16     1.336237240785   120.22799588   182.73608934
 C     14  13  12     1.417549483697   124.35713243    53.35400401
 H      1   2   3     1.096900649801   104.30229078    61.30691835
 H      1   2   3     1.096900039194   115.43373816   300.93398205
 H      1   2   3     1.096895458581   105.96021920   185.43767744
 H      2   1   3     1.096902588734   112.26719307   117.10260907
 H      2   1   3     1.096900018105   105.00372727   241.70402079
 H      8   7   6     1.096898709144   111.84804305    60.92498271
 H      8   7   6     1.096899975222   103.10281041   293.24092137
 H      8   7   6     1.096900545475   113.53480942   183.97401420
 H      9   7   6     1.012899938477   121.56680176   195.63335059
 H     12  10   9     1.012900050130   109.72416989   180.72665769
 H     13  12  10     1.096900771617   109.15102689   137.34440515
 H     15  14  13     1.085999936741   114.24938224   351.39086876
 H     16  15  14     1.086000002104   114.43968782   177.09333403
 H     17  16  15     1.086000148234   118.54829743   185.14000377
 H     19  18  17     0.973000146772   107.85956590    31.25244005
 H     20  14  13     1.086001883715   121.93042926     1.20593394

---------------------------
INTERNAL COORDINATES (A.U.)
---------------------------
 C      0   0   0     0.000000000000     0.00000000     0.00000000
 C      1   0   0     3.037710938646     0.00000000     0.00000000
 O      2   1   0     2.777450937181   108.03155296     0.00000000
 C      3   2   1     2.651447201860   118.16226119   204.79950534
 O      4   3   2     2.325285403727   121.48286999     4.95053712
 C      4   3   2     2.773922067420   110.59649255   175.99837914
 C      6   4   3     2.539964667386   127.29047446    10.75008650
 C      7   6   4     2.754176344738   127.07714367   354.74118606
 N      7   6   4     2.654957385007   121.61682449   178.25967491
 C      9   7   6     2.553045250260   123.19782706     3.10234933
 S     10   9   7     3.187961059943   120.28315900   178.40922198
 N     10   9   7     2.631762575560   115.11113407   358.86764993
 C     12  10   9     2.637687128218   126.38825526   354.05129338
 C     13  12  10     2.974168535626   106.48845850   253.53192656
 C     14  13  12     2.681576073540   119.04980382   243.37396994
 C     15  14  13     2.685266075412   120.66582305   174.15771013
 C     16  15  14     2.638977672145   121.23442255   354.81146441
 C     17  16  15     2.660355725893   120.29844878   359.69427718
 O     18  17  16     2.525122435031   120.22799588   182.73608934
 C     14  13  12     2.678780305468   124.35713243    53.35400401
 H      1   2   3     2.072841824245   104.30229078    61.30691835
 H      1   2   3     2.072840670364   115.43373816   300.93398205
 H      1   2   3     2.072832014260   105.96021920   185.43767744
 H      2   1   3     2.072845488297   112.26719307   117.10260907
 H      2   1   3     2.072840630512   105.00372727   241.70402079
 H      8   7   6     2.072838156933   111.84804305    60.92498271
 H      8   7   6     2.072840549474   103.10281041   293.24092137
 H      8   7   6     2.072841627097   113.53480942   183.97401420
 H      9   7   6     1.914103484788   121.56680176   195.63335059
 H     12  10   9     1.914103695781   109.72416989   180.72665769
 H     13  12  10     2.072842054443   109.15102689   137.34440515
 H     15  14  13     2.052242461896   114.24938224   351.39086876
 H     16  15  14     2.052242585415   114.43968782   177.09333403
 H     17  16  15     2.052242861561   118.54829743   185.14000377
 H     19  18  17     1.838703805663   107.85956590    31.25244005
 H     20  14  13     2.052246141143   121.93042926     1.20593394

---------------------
BASIS SET INFORMATION
---------------------
There are 5 groups of distinct atoms

 Group   1 Type C   : 18s5p2d1f contracted to 4s3p2d1f pattern {8811/311/11/1}
 Group   2 Type O   : 18s5p2d1f contracted to 4s3p2d1f pattern {8811/311/11/1}
 Group   3 Type N   : 18s5p2d1f contracted to 4s3p2d1f pattern {8811/311/11/1}
 Group   4 Type S   : 41s16p2d1f contracted to 5s4p2d1f pattern {13131311/7711/11/1}
 Group   5 Type H   : 5s2p1d contracted to 3s2p1d pattern {311/11/1}

Atom   0C    basis set group =>   1
Atom   1C    basis set group =>   1
Atom   2O    basis set group =>   2
Atom   3C    basis set group =>   1
Atom   4O    basis set group =>   2
Atom   5C    basis set group =>   1
Atom   6C    basis set group =>   1
Atom   7C    basis set group =>   1
Atom   8N    basis set group =>   3
Atom   9C    basis set group =>   1
Atom  10S    basis set group =>   4
Atom  11N    basis set group =>   3
Atom  12C    basis set group =>   1
Atom  13C    basis set group =>   1
Atom  14C    basis set group =>   1
Atom  15C    basis set group =>   1
Atom  16C    basis set group =>   1
Atom  17C    basis set group =>   1
Atom  18O    basis set group =>   2
Atom  19C    basis set group =>   1
Atom  20H    basis set group =>   5
Atom  21H    basis set group =>   5
Atom  22H    basis set group =>   5
Atom  23H    basis set group =>   5
Atom  24H    basis set group =>   5
Atom  25H    basis set group =>   5
Atom  26H    basis set group =>   5
Atom  27H    basis set group =>   5
Atom  28H    basis set group =>   5
Atom  29H    basis set group =>   5
Atom  30H    basis set group =>   5
Atom  31H    basis set group =>   5
Atom  32H    basis set group =>   5
Atom  33H    basis set group =>   5
Atom  34H    basis set group =>   5
Atom  35H    basis set group =>   5
---------------------------------
AUXILIARY/C BASIS SET INFORMATION
---------------------------------
There are 5 groups of distinct atoms

 Group   1 Type C   : 8s6p5d3f1g contracted to 8s6p5d3f1g pattern {11111111/111111/11111/111/1}
 Group   2 Type O   : 8s6p5d3f1g contracted to 8s6p5d3f1g pattern {11111111/111111/11111/111/1}
 Group   3 Type N   : 8s6p5d3f1g contracted to 8s6p5d3f1g pattern {11111111/111111/11111/111/1}
 Group   4 Type S   : 10s8p7d5f2g contracted to 10s8p7d5f2g pattern {1111111111/11111111/1111111/11111/11}
 Group   5 Type H   : 4s3p2d1f contracted to 4s3p2d1f pattern {1111/111/11/1}

Atom   0C    basis set group =>   1
Atom   1C    basis set group =>   1
Atom   2O    basis set group =>   2
Atom   3C    basis set group =>   1
Atom   4O    basis set group =>   2
Atom   5C    basis set group =>   1
Atom   6C    basis set group =>   1
Atom   7C    basis set group =>   1
Atom   8N    basis set group =>   3
Atom   9C    basis set group =>   1
Atom  10S    basis set group =>   4
Atom  11N    basis set group =>   3
Atom  12C    basis set group =>   1
Atom  13C    basis set group =>   1
Atom  14C    basis set group =>   1
Atom  15C    basis set group =>   1
Atom  16C    basis set group =>   1
Atom  17C    basis set group =>   1
Atom  18O    basis set group =>   2
Atom  19C    basis set group =>   1
Atom  20H    basis set group =>   5
Atom  21H    basis set group =>   5
Atom  22H    basis set group =>   5
Atom  23H    basis set group =>   5
Atom  24H    basis set group =>   5
Atom  25H    basis set group =>   5
Atom  26H    basis set group =>   5
Atom  27H    basis set group =>   5
Atom  28H    basis set group =>   5
Atom  29H    basis set group =>   5
Atom  30H    basis set group =>   5
Atom  31H    basis set group =>   5
Atom  32H    basis set group =>   5
Atom  33H    basis set group =>   5
Atom  34H    basis set group =>   5
Atom  35H    basis set group =>   5
------------------------------------------------------------------------------
                           ORCA GTO INTEGRAL CALCULATION
------------------------------------------------------------------------------
------------------------------------------------------------------------------
                   ___                                                        
                  /   \      - P O W E R E D   B Y -                         
                 /     \                                                     
                 |  |  |   _    _      __       _____    __    __             
                 |  |  |  | |  | |    /  \     |  _  \  |  |  /  |          
                  \  \/   | |  | |   /    \    | | | |  |  | /  /          
                 / \  \   | |__| |  /  /\  \   | |_| |  |  |/  /          
                |  |  |   |  __  | /  /__\  \  |    /   |      \           
                |  |  |   | |  | | |   __   |  |    \   |  |\   \          
                \     /   | |  | | |  |  |  |  | |\  \  |  | \   \       
                 \___/    |_|  |_| |__|  |__|  |_| \__\ |__|  \__/        
                                                                              
                      - O R C A' S   B I G   F R I E N D -                    
                                      &                                       
                       - I N T E G R A L  F E E D E R -                       
                                                                              
 v1 FN, 2020, v2 2021                                                         
------------------------------------------------------------------------------


Reading SHARK input file qm_input.vacu.SHARKINP.tmp ... ok
----------------------
SHARK INTEGRAL PACKAGE
----------------------

Number of atoms                             ...     36
Number of basis functions                   ...    828
Number of shells                            ...    298
Maximum angular momentum                    ...      3
Integral batch strategy                     ... SHARK/LIBINT Hybrid
RI-J (if used) integral strategy            ... SPLIT-RIJ (Revised 2003 algorithm where possible)
Printlevel                                  ...      1
Contraction scheme used                     ... SEGMENTED contraction
Coulomb Range Separation                    ... NOT USED
Exchange Range Separation                   ... NOT USED
Finite Nucleus Model                        ... NOT USED
Auxiliary Coulomb fitting basis             ... NOT available
Auxiliary J/K fitting basis                 ... NOT available
Auxiliary Correlation fitting basis         ... AVAILABLE
   # of basis functions in Aux-C            ...   2141
   # of shells in Aux-C                     ...    629
   Maximum angular momentum in Aux-C        ...      4
Auxiliary 'external' fitting basis          ... NOT available
Integral threshold                          ...     2.500000e-11
Primitive cut-off                           ...     2.500000e-12
Primitive pair pre-selection threshold      ...     2.500000e-12

Calculating pre-screening integrals         ... done (  0.6 sec) Dimension = 298
Organizing shell pair data                  ... done (  0.4 sec)
Shell pair information
Total number of shell pairs                 ...     44551
Shell pairs after pre-screening             ...     31856
Total number of primitive shell pairs       ...    234348
Primitive shell pairs kept                  ...     92558
          la=0 lb=0:   6373 shell pairs
          la=1 lb=0:   8875 shell pairs
          la=1 lb=1:   3130 shell pairs
          la=2 lb=0:   5065 shell pairs
          la=2 lb=1:   3485 shell pairs
          la=2 lb=2:    978 shell pairs
          la=3 lb=0:   1845 shell pairs
          la=3 lb=1:   1262 shell pairs
          la=3 lb=2:    701 shell pairs
          la=3 lb=3:    142 shell pairs

Calculating one electron integrals          ... done (  0.3 sec)
Calculating RI/C V-Matrix + Cholesky decomp.... done (  0.3 sec)
Calculating Nuclear repulsion               ... done (  0.0 sec) ENN=   1682.610114274556 Eh

SHARK setup successfully completed in   1.7 seconds

Maximum memory used throughout the entire GTOINT-calculation: 475.9 MB
-------------------------------------------------------------------------------
                                 ORCA SCF
-------------------------------------------------------------------------------

------------
SCF SETTINGS
------------
Hamiltonian:
 Ab initio Hamiltonian  Method          .... Hartree-Fock(GTOs)


General Settings:
 Integral files         IntName         .... qm_input.vacu
 Hartree-Fock type      HFTyp           .... RHF
 Total Charge           Charge          ....    0
 Multiplicity           Mult            ....    1
 Number of Electrons    NEL             ....  154
 Basis Dimension        Dim             ....  828
 Nuclear Repulsion      ENuc            ....   1682.6101142746 Eh

Convergence Acceleration:
 DIIS                   CNVDIIS         .... on
   Start iteration      DIISMaxIt       ....    12
   Startup error        DIISStart       ....  0.200000
   # of expansion vecs  DIISMaxEq       ....     5
   Bias factor          DIISBfac        ....   1.050
   Max. coefficient     DIISMaxC        ....  10.000
 Trust-Rad. Augm. Hess. CNVTRAH         .... auto
   Auto Start mean grad. ratio tolernc. ....  1.125000
   Auto Start start iteration           ....    20
   Auto Start num. interpolation iter.  ....    10
   Max. Number of Micro iterations      ....    16
   Max. Number of Macro iterations      .... Maxiter - #DIIS iter
   Number of Davidson start vectors     ....     2
   Converg. threshold I  (grad. norm)   ....   1.000e-05
   Converg. threshold II (energy diff.) ....   1.000e-08
   Grad. Scal. Fac. for Micro threshold ....   0.100
   Minimum threshold for Micro iter.    ....   0.010
   NR start threshold (gradient norm)   ....   0.001
   Initial trust radius                 ....   0.400
   Minimum AH scaling param. (alpha)    ....   1.000
   Maximum AH scaling param. (alpha)    .... 1000.000
   Orbital update algorithm             .... Taylor
   White noise on init. David. guess    .... on
   Maximum white noise                  ....   0.010
   Quad. conv. algorithm                .... NR
 SOSCF                  CNVSOSCF        .... on
   Start iteration      SOSCFMaxIt      ....   150
   Startup grad/error   SOSCFStart      ....  0.003300
 Level Shifting         CNVShift        .... on
   Level shift para.    LevelShift      ....    0.2500
   Turn off err/grad.   ShiftErr        ....    0.0010
 Zerner damping         CNVZerner       .... off
 Static damping         CNVDamp         .... on
   Fraction old density DampFac         ....    0.7000
   Max. Damping (<1)    DampMax         ....    0.9800
   Min. Damping (>=0)   DampMin         ....    0.0000
   Turn off err/grad.   DampErr         ....    0.1000
 Fernandez-Rico         CNVRico         .... off

SCF Procedure:
 Maximum # iterations   MaxIter         ....   125
 SCF integral mode      SCFMode         .... Direct
   Integral package                     .... SHARK and LIBINT hybrid scheme
 Reset frequency        DirectResetFreq ....    20
 Integral Threshold     Thresh          ....  2.500e-11 Eh
 Primitive CutOff       TCut            ....  2.500e-12 Eh

Convergence Tolerance:
 Convergence Check Mode ConvCheckMode   .... Total+1el-Energy
 Convergence forced     ConvForced      .... 1
 Energy Change          TolE            ....  1.000e-08 Eh
 1-El. energy change                    ....  1.000e-05 Eh
 Orbital Gradient       TolG            ....  1.000e-05
 Orbital Rotation angle TolX            ....  1.000e-05
 DIIS Error             TolErr          ....  5.000e-07


Diagonalization of the overlap matrix:
Smallest eigenvalue                        ... 4.392e-05
Time for diagonalization                   ...    0.137 sec
Threshold for overlap eigenvalues          ... 1.000e-08
Number of eigenvalues below threshold      ... 0
Time for construction of square roots      ...    0.061 sec
Total time needed                          ...    0.200 sec

Time for model grid setup =    1.405 sec

------------------------------
INITIAL GUESS: MODEL POTENTIAL
------------------------------
Loading Hartree-Fock densities                     ... done
Calculating cut-offs                               ... done
Initializing the effective Hamiltonian             ... done
Setting up the integral package (SHARK)            ... done
Starting the Coulomb interaction                   ... done (   4.0 sec)
Reading the grid                                   ... done
Mapping shells                                     ... done
Starting the XC term evaluation                    ... done (   1.4 sec)
Transforming the Hamiltonian                       ... done (   0.1 sec)
Diagonalizing the Hamiltonian                      ... done (   0.1 sec)
Back transforming the eigenvectors                 ... done (   0.0 sec)
Now organizing SCF variables                       ... done
                      ------------------
                      INITIAL GUESS DONE (   7.0 sec)
                      ------------------
--------------
SCF ITERATIONS
--------------
ITER       Energy         Delta-E        Max-DP      RMS-DP      [F,P]     Damp
               ***  Starting incremental Fock matrix formation  ***
  0  -1269.9682817576   0.000000000000 0.04939556  0.00044549  0.3090006 0.7000
  1  -1270.2373117070  -0.269029949416 0.03612159  0.00036108  0.1815329 0.7000
                               ***Turning on DIIS***
  2  -1270.4050093043  -0.167697597289 0.02585272  0.00024155  0.1099232 0.7000
  3  -1272.5350048835  -2.129995579181 0.06311176  0.00052579  0.0829880 0.0000
  4  -1270.7143384702   1.820666413267 0.00817380  0.00010978  0.0078645 0.0000
  5  -1270.7774297588  -0.063091288543 0.00471926  0.00005633  0.0049967 0.0000
                      *** Initiating the SOSCF procedure ***
                           *** Shutting down DIIS ***
                      *** Re-Reading the Fockian *** 
                      *** Removing any level shift *** 
ITER      Energy       Delta-E        Grad      Rot      Max-DP    RMS-DP
  6  -1270.75481983   0.0226099328  0.001902  0.001902  0.001895  0.000028
               *** Restarting incremental Fock matrix formation ***
  7  -1270.76956480  -0.0147449733  0.000906  0.002241  0.001493  0.000017
  8  -1270.76961770  -0.0000529040  0.000477  0.002667  0.001600  0.000019
  9  -1270.76963833  -0.0000206281  0.000196  0.000400  0.000363  0.000005
 10  -1270.76964090  -0.0000025722  0.000050  0.000134  0.000116  0.000002
 11  -1270.76964116  -0.0000002577  0.000024  0.000131  0.000068  0.000001
 12  -1270.76964123  -0.0000000718  0.000010  0.000038  0.000033  0.000000
 13  -1270.76964124  -0.0000000033  0.000003  0.000011  0.000007  0.000000
                  ***Gradient check signals convergence***
              ***Rediagonalizing the Fockian in SOSCF/NRSCF***

               *****************************************************
               *                     SUCCESS                       *
               *           SCF CONVERGED AFTER  14 CYCLES          *
               *****************************************************


----------------
TOTAL SCF ENERGY
----------------

Total Energy       :        -1270.76964123 Eh          -34579.39992 eV

Components:
Nuclear Repulsion  :         1682.61011427 Eh           45786.14893 eV
Electronic Energy  :        -2953.37975550 Eh          -80365.54885 eV
One Electron Energy:        -5086.61485944 Eh         -138413.82715 eV
Two Electron Energy:         2133.23510394 Eh           58048.27830 eV

Virial components:
Potential Energy   :        -2539.68963962 Eh          -69108.46850 eV
Kinetic Energy     :         1268.91999839 Eh           34529.06858 eV
Virial Ratio       :            2.00145765


---------------
SCF CONVERGENCE
---------------

  Last Energy change         ...    1.0011e-08  Tolerance :   1.0000e-08
  Last MAX-Density change    ...    2.0824e-06  Tolerance :   1.0000e-07
  Last RMS-Density change    ...    3.2381e-08  Tolerance :   5.0000e-09
  Last Orbital Gradient      ...    1.3065e-06  Tolerance :   1.0000e-05
  Last Orbital Rotation      ...    3.0666e-06  Tolerance :   1.0000e-05

             **** THE GBW FILE WAS UPDATED (qm_input.vacu.gbw) ****
             **** DENSITY qm_input.vacu.scfp WAS UPDATED ****
             **** ENERGY FILE WAS UPDATED (qm_input.vacu.en.tmp) ****
             **** THE GBW FILE WAS UPDATED (qm_input.vacu.gbw) ****
             **** DENSITY qm_input.vacu.scfp WAS UPDATED ****
----------------
ORBITAL ENERGIES
----------------

  NO   OCC          E(Eh)            E(eV) 
   0   2.0000     -91.894401     -2500.5738 
   1   2.0000     -20.597226      -560.4790 
   2   2.0000     -20.593658      -560.3819 
   3   2.0000     -20.550052      -559.1953 
   4   2.0000     -15.631526      -425.3555 
   5   2.0000     -15.608379      -424.7256 
   6   2.0000     -11.398059      -310.1570 
   7   2.0000     -11.388046      -309.8845 
   8   2.0000     -11.334666      -308.4319 
   9   2.0000     -11.307735      -307.6991 
  10   2.0000     -11.303286      -307.5781 
  11   2.0000     -11.302698      -307.5620 
  12   2.0000     -11.256370      -306.3014 
  13   2.0000     -11.251868      -306.1789 
  14   2.0000     -11.250755      -306.1486 
  15   2.0000     -11.243167      -305.9421 
  16   2.0000     -11.240502      -305.8696 
  17   2.0000     -11.234013      -305.6930 
  18   2.0000     -11.232536      -305.6528 
  19   2.0000     -11.226658      -305.4929 
  20   2.0000      -8.898083      -242.1291 
  21   2.0000      -6.579519      -179.0378 
  22   2.0000      -6.577634      -178.9865 
  23   2.0000      -6.577067      -178.9711 
  24   2.0000      -1.435986       -39.0752 
  25   2.0000      -1.419098       -38.6156 
  26   2.0000      -1.352143       -36.7937 
  27   2.0000      -1.346476       -36.6395 
  28   2.0000      -1.251219       -34.0474 
  29   2.0000      -1.149946       -31.2916 
  30   2.0000      -1.126625       -30.6570 
  31   2.0000      -1.041380       -28.3374 
  32   2.0000      -1.029977       -28.0271 
  33   2.0000      -1.003740       -27.3132 
  34   2.0000      -0.996204       -27.1081 
  35   2.0000      -0.982926       -26.7468 
  36   2.0000      -0.921002       -25.0617 
  37   2.0000      -0.888042       -24.1648 
  38   2.0000      -0.845018       -22.9941 
  39   2.0000      -0.831103       -22.6155 
  40   2.0000      -0.824333       -22.4313 
  41   2.0000      -0.822764       -22.3885 
  42   2.0000      -0.752827       -20.4855 
  43   2.0000      -0.746879       -20.3236 
  44   2.0000      -0.728491       -19.8232 
  45   2.0000      -0.699309       -19.0292 
  46   2.0000      -0.680357       -18.5134 
  47   2.0000      -0.678471       -18.4621 
  48   2.0000      -0.669781       -18.2257 
  49   2.0000      -0.658976       -17.9316 
  50   2.0000      -0.656222       -17.8567 
  51   2.0000      -0.645758       -17.5720 
  52   2.0000      -0.645333       -17.5604 
  53   2.0000      -0.616390       -16.7728 
  54   2.0000      -0.608198       -16.5499 
  55   2.0000      -0.592207       -16.1148 
  56   2.0000      -0.587254       -15.9800 
  57   2.0000      -0.580829       -15.8052 
  58   2.0000      -0.568144       -15.4600 
  59   2.0000      -0.559279       -15.2188 
  60   2.0000      -0.556709       -15.1488 
  61   2.0000      -0.545364       -14.8401 
  62   2.0000      -0.530827       -14.4445 
  63   2.0000      -0.524320       -14.2675 
  64   2.0000      -0.516775       -14.0622 
  65   2.0000      -0.507758       -13.8168 
  66   2.0000      -0.492624       -13.4050 
  67   2.0000      -0.484103       -13.1731 
  68   2.0000      -0.478650       -13.0247 
  69   2.0000      -0.459390       -12.5006 
  70   2.0000      -0.457148       -12.4396 
  71   2.0000      -0.451496       -12.2858 
  72   2.0000      -0.352837        -9.6012 
  73   2.0000      -0.340368        -9.2619 
  74   2.0000      -0.330033        -8.9806 
  75   2.0000      -0.316268        -8.6061 
  76   2.0000      -0.307061        -8.3556 
  77   0.0000       0.069276         1.8851 
  78   0.0000       0.116191         3.1617 
  79   0.0000       0.121173         3.2973 
  80   0.0000       0.136044         3.7020 
  81   0.0000       0.137856         3.7512 
  82   0.0000       0.145979         3.9723 
  83   0.0000       0.150185         4.0867 
  84   0.0000       0.160443         4.3659 
  85   0.0000       0.166616         4.5339 
  86   0.0000       0.173254         4.7145 
  87   0.0000       0.173930         4.7329 
  88   0.0000       0.183774         5.0008 
  89   0.0000       0.189325         5.1518 
  90   0.0000       0.197241         5.3672 
  91   0.0000       0.206903         5.6301 
  92   0.0000       0.208966         5.6863 
  93   0.0000       0.217813         5.9270 
  94   0.0000       0.228879         6.2281 
  95   0.0000       0.237467         6.4618 
  96   0.0000       0.239841         6.5264 
  97   0.0000       0.240948         6.5565 
  98   0.0000       0.251605         6.8465 
  99   0.0000       0.278486         7.5780 
 100   0.0000       0.287430         7.8214 
 101   0.0000       0.311064         8.4645 
 102   0.0000       0.315415         8.5829 
 103   0.0000       0.323075         8.7913 
 104   0.0000       0.330616         8.9965 
 105   0.0000       0.331706         9.0262 
 106   0.0000       0.337068         9.1721 
 107   0.0000       0.347948         9.4681 
 108   0.0000       0.353354         9.6152 
 109   0.0000       0.367083         9.9888 
 110   0.0000       0.373855        10.1731 
 111   0.0000       0.381206        10.3731 
 112   0.0000       0.385662        10.4944 
 113   0.0000       0.389083        10.5875 
 114   0.0000       0.396430        10.7874 
 115   0.0000       0.408163        11.1067 
 116   0.0000       0.418359        11.3841 
 117   0.0000       0.426239        11.5985 
 118   0.0000       0.430027        11.7016 
 119   0.0000       0.439652        11.9635 
 120   0.0000       0.442984        12.0542 
 121   0.0000       0.450624        12.2621 
 122   0.0000       0.455808        12.4032 
 123   0.0000       0.457204        12.4411 
 124   0.0000       0.461567        12.5599 
 125   0.0000       0.469511        12.7760 
 126   0.0000       0.477023        12.9805 
 127   0.0000       0.486393        13.2354 
 128   0.0000       0.494149        13.4465 
 129   0.0000       0.496911        13.5216 
 130   0.0000       0.503877        13.7112 
 131   0.0000       0.505509        13.7556 
 132   0.0000       0.510977        13.9044 
 133   0.0000       0.520460        14.1624 
 134   0.0000       0.526239        14.3197 
 135   0.0000       0.531233        14.4556 
 136   0.0000       0.535213        14.5639 
 137   0.0000       0.544484        14.8162 
 138   0.0000       0.548966        14.9381 
 139   0.0000       0.551564        15.0088 
 140   0.0000       0.558467        15.1967 
 141   0.0000       0.561915        15.2905 
 142   0.0000       0.566244        15.4083 
 143   0.0000       0.572313        15.5734 
 144   0.0000       0.572584        15.5808 
 145   0.0000       0.580163        15.7871 
 146   0.0000       0.584767        15.9123 
 147   0.0000       0.586958        15.9719 
 148   0.0000       0.593537        16.1510 
 149   0.0000       0.597068        16.2471 
 150   0.0000       0.600541        16.3416 
 151   0.0000       0.607124        16.5207 
 152   0.0000       0.609094        16.5743 
 153   0.0000       0.613939        16.7061 
 154   0.0000       0.616398        16.7730 
 155   0.0000       0.626060        17.0360 
 156   0.0000       0.627109        17.0645 
 157   0.0000       0.629462        17.1285 
 158   0.0000       0.633879        17.2487 
 159   0.0000       0.637742        17.3538 
 160   0.0000       0.640457        17.4277 
 161   0.0000       0.645710        17.5707 
 162   0.0000       0.649464        17.6728 
 163   0.0000       0.654622        17.8132 
 164   0.0000       0.659826        17.9548 
 165   0.0000       0.662266        18.0212 
 166   0.0000       0.672778        18.3072 
 167   0.0000       0.679460        18.4891 
 168   0.0000       0.681419        18.5424 
 169   0.0000       0.684470        18.6254 
 170   0.0000       0.694308        18.8931 
 171   0.0000       0.697999        18.9935 
 172   0.0000       0.706844        19.2342 
 173   0.0000       0.716986        19.5102 
 174   0.0000       0.719442        19.5770 
 175   0.0000       0.726305        19.7638 
 176   0.0000       0.742391        20.2015 
 177   0.0000       0.748403        20.3651 
 178   0.0000       0.751749        20.4561 
 179   0.0000       0.756507        20.5856 
 180   0.0000       0.757920        20.6241 
 181   0.0000       0.764062        20.7912 
 182   0.0000       0.772118        21.0104 
 183   0.0000       0.786404        21.3991 
 184   0.0000       0.793225        21.5848 
 185   0.0000       0.803577        21.8664 
 186   0.0000       0.808584        22.0027 
 187   0.0000       0.815774        22.1983 
 188   0.0000       0.820693        22.3322 
 189   0.0000       0.836921        22.7738 
 190   0.0000       0.845061        22.9953 
 191   0.0000       0.850984        23.1564 
 192   0.0000       0.853202        23.2168 
 193   0.0000       0.864052        23.5121 
 194   0.0000       0.874017        23.7832 
 195   0.0000       0.878881        23.9156 
 196   0.0000       0.891797        24.2670 
 197   0.0000       0.899541        24.4777 
 198   0.0000       0.904684        24.6177 
 199   0.0000       0.909524        24.7494 
 200   0.0000       0.912592        24.8329 
 201   0.0000       0.915181        24.9033 
 202   0.0000       0.926116        25.2009 
 203   0.0000       0.941550        25.6209 
 204   0.0000       0.941733        25.6259 
 205   0.0000       0.950453        25.8631 
 206   0.0000       0.953485        25.9457 
 207   0.0000       0.969572        26.3834 
 208   0.0000       0.973874        26.5005 
 209   0.0000       0.975399        26.5420 
 210   0.0000       0.982983        26.7483 
 211   0.0000       0.988731        26.9047 
 212   0.0000       0.994101        27.0509 
 213   0.0000       1.005093        27.3500 
 214   0.0000       1.006025        27.3753 
 215   0.0000       1.006504        27.3884 
 216   0.0000       1.019658        27.7463 
 217   0.0000       1.031348        28.0644 
 218   0.0000       1.039939        28.2982 
 219   0.0000       1.049300        28.5529 
 220   0.0000       1.058621        28.8065 
 221   0.0000       1.061065        28.8730 
 222   0.0000       1.065631        28.9973 
 223   0.0000       1.076589        29.2955 
 224   0.0000       1.080604        29.4047 
 225   0.0000       1.088620        29.6228 
 226   0.0000       1.098254        29.8850 
 227   0.0000       1.103360        30.0239 
 228   0.0000       1.118211        30.4281 
 229   0.0000       1.121952        30.5299 
 230   0.0000       1.128977        30.7210 
 231   0.0000       1.132907        30.8280 
 232   0.0000       1.137337        30.9485 
 233   0.0000       1.149584        31.2818 
 234   0.0000       1.160537        31.5798 
 235   0.0000       1.165757        31.7219 
 236   0.0000       1.172632        31.9089 
 237   0.0000       1.175316        31.9820 
 238   0.0000       1.182242        32.1704 
 239   0.0000       1.186113        32.2758 
 240   0.0000       1.189241        32.3609 
 241   0.0000       1.199310        32.6349 
 242   0.0000       1.202845        32.7311 
 243   0.0000       1.209658        32.9165 
 244   0.0000       1.214927        33.0598 
 245   0.0000       1.219381        33.1810 
 246   0.0000       1.227588        33.4044 
 247   0.0000       1.239464        33.7275 
 248   0.0000       1.246579        33.9211 
 249   0.0000       1.253739        34.1160 
 250   0.0000       1.257169        34.2093 
 251   0.0000       1.270028        34.5592 
 252   0.0000       1.273789        34.6616 
 253   0.0000       1.282128        34.8885 
 254   0.0000       1.284921        34.9645 
 255   0.0000       1.288161        35.0526 
 256   0.0000       1.296824        35.2884 
 257   0.0000       1.315043        35.7841 
 258   0.0000       1.316014        35.8106 
 259   0.0000       1.327032        36.1104 
 260   0.0000       1.330637        36.2085 
 261   0.0000       1.336133        36.3580 
 262   0.0000       1.347734        36.6737 
 263   0.0000       1.361878        37.0586 
 264   0.0000       1.372500        37.3476 
 265   0.0000       1.377592        37.4862 
 266   0.0000       1.389598        37.8129 
 267   0.0000       1.399299        38.0769 
 268   0.0000       1.407387        38.2969 
 269   0.0000       1.412759        38.4431 
 270   0.0000       1.415997        38.5312 
 271   0.0000       1.426189        38.8086 
 272   0.0000       1.436007        39.0757 
 273   0.0000       1.439969        39.1835 
 274   0.0000       1.451456        39.4961 
 275   0.0000       1.465934        39.8901 
 276   0.0000       1.470251        40.0076 
 277   0.0000       1.477646        40.2088 
 278   0.0000       1.483687        40.3732 
 279   0.0000       1.487294        40.4713 
 280   0.0000       1.495894        40.7053 
 281   0.0000       1.503275        40.9062 
 282   0.0000       1.511007        41.1166 
 283   0.0000       1.515841        41.2481 
 284   0.0000       1.520371        41.3714 
 285   0.0000       1.528503        41.5927 
 286   0.0000       1.531252        41.6675 
 287   0.0000       1.538619        41.8679 
 288   0.0000       1.546438        42.0807 
 289   0.0000       1.547933        42.1214 
 290   0.0000       1.556540        42.3556 
 291   0.0000       1.561918        42.5020 
 292   0.0000       1.575089        42.8604 
 293   0.0000       1.586058        43.1588 
 294   0.0000       1.588781        43.2329 
 295   0.0000       1.592529        43.3349 
 296   0.0000       1.602777        43.6138 
 297   0.0000       1.606327        43.7104 
 298   0.0000       1.612216        43.8706 
 299   0.0000       1.616836        43.9963 
 300   0.0000       1.635998        44.5178 
 301   0.0000       1.638589        44.5883 
 302   0.0000       1.641830        44.6765 
 303   0.0000       1.652992        44.9802 
 304   0.0000       1.665277        45.3145 
 305   0.0000       1.668686        45.4072 
 306   0.0000       1.677211        45.6392 
 307   0.0000       1.684539        45.8386 
 308   0.0000       1.687939        45.9312 
 309   0.0000       1.693007        46.0691 
 310   0.0000       1.710676        46.5499 
 311   0.0000       1.714501        46.6539 
 312   0.0000       1.721594        46.8470 
 313   0.0000       1.731761        47.1236 
 314   0.0000       1.740418        47.3592 
 315   0.0000       1.743543        47.4442 
 316   0.0000       1.757341        47.8197 
 317   0.0000       1.762295        47.9545 
 318   0.0000       1.786430        48.6112 
 319   0.0000       1.794093        48.8197 
 320   0.0000       1.810647        49.2702 
 321   0.0000       1.820630        49.5419 
 322   0.0000       1.835795        49.9545 
 323   0.0000       1.840529        50.0834 
 324   0.0000       1.855837        50.4999 
 325   0.0000       1.872678        50.9582 
 326   0.0000       1.887585        51.3638 
 327   0.0000       1.903304        51.7915 
 328   0.0000       1.906137        51.8686 
 329   0.0000       1.917461        52.1768 
 330   0.0000       1.930424        52.5295 
 331   0.0000       1.937925        52.7336 
 332   0.0000       1.940454        52.8024 
 333   0.0000       1.956709        53.2448 
 334   0.0000       1.960847        53.3574 
 335   0.0000       1.974582        53.7311 
 336   0.0000       1.984921        54.0124 
 337   0.0000       1.988045        54.0974 
 338   0.0000       2.001169        54.4546 
 339   0.0000       2.006156        54.5903 
 340   0.0000       2.013716        54.7960 
 341   0.0000       2.017661        54.9034 
 342   0.0000       2.036950        55.4282 
 343   0.0000       2.065054        56.1930 
 344   0.0000       2.073212        56.4150 
 345   0.0000       2.080214        56.6055 
 346   0.0000       2.096663        57.0531 
 347   0.0000       2.120527        57.7025 
 348   0.0000       2.136905        58.1481 
 349   0.0000       2.149576        58.4929 
 350   0.0000       2.164375        58.8956 
 351   0.0000       2.192151        59.6515 
 352   0.0000       2.210736        60.1572 
 353   0.0000       2.222681        60.4822 
 354   0.0000       2.246224        61.1229 
 355   0.0000       2.255844        61.3846 
 356   0.0000       2.264239        61.6131 
 357   0.0000       2.277135        61.9640 
 358   0.0000       2.288542        62.2744 
 359   0.0000       2.300793        62.6078 
 360   0.0000       2.317794        63.0704 
 361   0.0000       2.323434        63.2239 
 362   0.0000       2.343110        63.7593 
 363   0.0000       2.348241        63.8989 
 364   0.0000       2.366016        64.3826 
 365   0.0000       2.375162        64.6314 
 366   0.0000       2.382253        64.8244 
 367   0.0000       2.406816        65.4928 
 368   0.0000       2.409747        65.5725 
 369   0.0000       2.431147        66.1549 
 370   0.0000       2.434540        66.2472 
 371   0.0000       2.453935        66.7750 
 372   0.0000       2.462813        67.0165 
 373   0.0000       2.476703        67.3945 
 374   0.0000       2.492519        67.8249 
 375   0.0000       2.498238        67.9805 
 376   0.0000       2.509267        68.2806 
 377   0.0000       2.518384        68.5287 
 378   0.0000       2.541945        69.1698 
 379   0.0000       2.547688        69.3261 
 380   0.0000       2.572809        70.0097 
 381   0.0000       2.582753        70.2803 
 382   0.0000       2.596489        70.6541 
 383   0.0000       2.599613        70.7391 
 384   0.0000       2.609570        71.0100 
 385   0.0000       2.622700        71.3673 
 386   0.0000       2.632037        71.6214 
 387   0.0000       2.638260        71.7907 
 388   0.0000       2.647959        72.0546 
 389   0.0000       2.672679        72.7273 
 390   0.0000       2.677999        72.8721 
 391   0.0000       2.693784        73.3016 
 392   0.0000       2.696930        73.3872 
 393   0.0000       2.702611        73.5418 
 394   0.0000       2.718402        73.9715 
 395   0.0000       2.723967        74.1229 
 396   0.0000       2.729074        74.2619 
 397   0.0000       2.739758        74.5526 
 398   0.0000       2.755271        74.9747 
 399   0.0000       2.767429        75.3056 
 400   0.0000       2.769911        75.3731 
 401   0.0000       2.781543        75.6896 
 402   0.0000       2.795031        76.0567 
 403   0.0000       2.803402        76.2845 
 404   0.0000       2.815162        76.6045 
 405   0.0000       2.824850        76.8681 
 406   0.0000       2.831948        77.0612 
 407   0.0000       2.842320        77.3435 
 408   0.0000       2.848657        77.5159 
 409   0.0000       2.856478        77.7287 
 410   0.0000       2.861420        77.8632 
 411   0.0000       2.868690        78.0610 
 412   0.0000       2.885334        78.5139 
 413   0.0000       2.898133        78.8622 
 414   0.0000       2.905594        79.0652 
 415   0.0000       2.908614        79.1474 
 416   0.0000       2.919897        79.4544 
 417   0.0000       2.931929        79.7819 
 418   0.0000       2.945947        80.1633 
 419   0.0000       2.959171        80.5231 
 420   0.0000       2.970930        80.8431 
 421   0.0000       2.975915        80.9788 
 422   0.0000       2.977153        81.0125 
 423   0.0000       2.985274        81.2334 
 424   0.0000       3.000686        81.6528 
 425   0.0000       3.012630        81.9778 
 426   0.0000       3.020998        82.2055 
 427   0.0000       3.033043        82.5333 
 428   0.0000       3.036135        82.6174 
 429   0.0000       3.044545        82.8463 
 430   0.0000       3.046249        82.8926 
 431   0.0000       3.055444        83.1429 
 432   0.0000       3.060165        83.2713 
 433   0.0000       3.071292        83.5741 
 434   0.0000       3.073083        83.6228 
 435   0.0000       3.079411        83.7950 
 436   0.0000       3.088290        84.0366 
 437   0.0000       3.093233        84.1712 
 438   0.0000       3.098165        84.3054 
 439   0.0000       3.105385        84.5018 
 440   0.0000       3.115234        84.7698 
 441   0.0000       3.118299        84.8532 
 442   0.0000       3.130798        85.1934 
 443   0.0000       3.140233        85.4501 
 444   0.0000       3.152333        85.7793 
 445   0.0000       3.161325        86.0240 
 446   0.0000       3.168206        86.2113 
 447   0.0000       3.180179        86.5371 
 448   0.0000       3.186449        86.7077 
 449   0.0000       3.191693        86.8504 
 450   0.0000       3.196186        86.9727 
 451   0.0000       3.204556        87.2004 
 452   0.0000       3.207724        87.2866 
 453   0.0000       3.224730        87.7494 
 454   0.0000       3.228408        87.8494 
 455   0.0000       3.235402        88.0398 
 456   0.0000       3.236347        88.0655 
 457   0.0000       3.244843        88.2967 
 458   0.0000       3.248958        88.4086 
 459   0.0000       3.264022        88.8186 
 460   0.0000       3.266849        88.8955 
 461   0.0000       3.274948        89.1159 
 462   0.0000       3.284647        89.3798 
 463   0.0000       3.290614        89.5422 
 464   0.0000       3.298497        89.7567 
 465   0.0000       3.304567        89.9218 
 466   0.0000       3.305508        89.9474 
 467   0.0000       3.313724        90.1710 
 468   0.0000       3.326922        90.5301 
 469   0.0000       3.337050        90.8058 
 470   0.0000       3.338214        90.8374 
 471   0.0000       3.346135        91.0530 
 472   0.0000       3.348331        91.1127 
 473   0.0000       3.355576        91.3099 
 474   0.0000       3.363657        91.5298 
 475   0.0000       3.368276        91.6555 
 476   0.0000       3.376304        91.8739 
 477   0.0000       3.377443        91.9049 
 478   0.0000       3.386193        92.1430 
 479   0.0000       3.390026        92.2473 
 480   0.0000       3.391605        92.2903 
 481   0.0000       3.400007        92.5189 
 482   0.0000       3.406958        92.7080 
 483   0.0000       3.409664        92.7817 
 484   0.0000       3.413997        92.8996 
 485   0.0000       3.418046        93.0098 
 486   0.0000       3.422490        93.1307 
 487   0.0000       3.428608        93.2972 
 488   0.0000       3.433716        93.4362 
 489   0.0000       3.441972        93.6608 
 490   0.0000       3.450264        93.8865 
 491   0.0000       3.452292        93.9416 
 492   0.0000       3.459427        94.1358 
 493   0.0000       3.466241        94.3212 
 494   0.0000       3.472500        94.4915 
 495   0.0000       3.474090        94.5348 
 496   0.0000       3.483285        94.7850 
 497   0.0000       3.485888        94.8558 
 498   0.0000       3.501756        95.2876 
 499   0.0000       3.507887        95.4545 
 500   0.0000       3.511341        95.5485 
 501   0.0000       3.515730        95.6679 
 502   0.0000       3.524841        95.9158 
 503   0.0000       3.530235        96.0626 
 504   0.0000       3.545950        96.4902 
 505   0.0000       3.548989        96.5729 
 506   0.0000       3.553140        96.6859 
 507   0.0000       3.559983        96.8721 
 508   0.0000       3.570643        97.1621 
 509   0.0000       3.579697        97.4085 
 510   0.0000       3.590829        97.7114 
 511   0.0000       3.593544        97.7853 
 512   0.0000       3.599717        97.9533 
 513   0.0000       3.602875        98.0392 
 514   0.0000       3.608352        98.1883 
 515   0.0000       3.613153        98.3189 
 516   0.0000       3.618621        98.4677 
 517   0.0000       3.623368        98.5968 
 518   0.0000       3.630094        98.7799 
 519   0.0000       3.640989        99.0764 
 520   0.0000       3.649024        99.2950 
 521   0.0000       3.653385        99.4137 
 522   0.0000       3.663077        99.6774 
 523   0.0000       3.665649        99.7474 
 524   0.0000       3.674885        99.9987 
 525   0.0000       3.678291       100.0914 
 526   0.0000       3.686015       100.3016 
 527   0.0000       3.689801       100.4046 
 528   0.0000       3.693601       100.5080 
 529   0.0000       3.703019       100.7643 
 530   0.0000       3.710682       100.9728 
 531   0.0000       3.715390       101.1009 
 532   0.0000       3.722777       101.3019 
 533   0.0000       3.733743       101.6003 
 534   0.0000       3.738357       101.7259 
 535   0.0000       3.740199       101.7760 
 536   0.0000       3.745185       101.9117 
 537   0.0000       3.756849       102.2291 
 538   0.0000       3.765092       102.4534 
 539   0.0000       3.770651       102.6046 
 540   0.0000       3.777776       102.7985 
 541   0.0000       3.782309       102.9219 
 542   0.0000       3.786327       103.0312 
 543   0.0000       3.796511       103.3083 
 544   0.0000       3.809195       103.6535 
 545   0.0000       3.815974       103.8379 
 546   0.0000       3.824113       104.0594 
 547   0.0000       3.827779       104.1592 
 548   0.0000       3.830477       104.2326 
 549   0.0000       3.846595       104.6712 
 550   0.0000       3.847516       104.6962 
 551   0.0000       3.859790       105.0302 
 552   0.0000       3.863283       105.1253 
 553   0.0000       3.868144       105.2576 
 554   0.0000       3.874676       105.4353 
 555   0.0000       3.886957       105.7695 
 556   0.0000       3.890607       105.8688 
 557   0.0000       3.897436       106.0546 
 558   0.0000       3.911105       106.4266 
 559   0.0000       3.926456       106.8443 
 560   0.0000       3.937175       107.1360 
 561   0.0000       3.945546       107.3638 
 562   0.0000       3.959865       107.7534 
 563   0.0000       3.973218       108.1168 
 564   0.0000       3.980617       108.3181 
 565   0.0000       3.994249       108.6890 
 566   0.0000       4.001095       108.8753 
 567   0.0000       4.007713       109.0554 
 568   0.0000       4.019983       109.3893 
 569   0.0000       4.021159       109.4213 
 570   0.0000       4.030299       109.6700 
 571   0.0000       4.036103       109.8280 
 572   0.0000       4.054077       110.3170 
 573   0.0000       4.055886       110.3663 
 574   0.0000       4.064055       110.5886 
 575   0.0000       4.067628       110.6858 
 576   0.0000       4.073920       110.8570 
 577   0.0000       4.080297       111.0305 
 578   0.0000       4.091489       111.3351 
 579   0.0000       4.105744       111.7230 
 580   0.0000       4.110551       111.8538 
 581   0.0000       4.116918       112.0270 
 582   0.0000       4.119531       112.0981 
 583   0.0000       4.131997       112.4374 
 584   0.0000       4.139256       112.6349 
 585   0.0000       4.147830       112.8682 
 586   0.0000       4.158071       113.1469 
 587   0.0000       4.160139       113.2031 
 588   0.0000       4.167320       113.3985 
 589   0.0000       4.176880       113.6587 
 590   0.0000       4.183220       113.8312 
 591   0.0000       4.191186       114.0480 
 592   0.0000       4.201867       114.3386 
 593   0.0000       4.205193       114.4291 
 594   0.0000       4.209542       114.5475 
 595   0.0000       4.216818       114.7454 
 596   0.0000       4.222006       114.8866 
 597   0.0000       4.233955       115.2118 
 598   0.0000       4.244635       115.5024 
 599   0.0000       4.245909       115.5371 
 600   0.0000       4.252630       115.7200 
 601   0.0000       4.258615       115.8828 
 602   0.0000       4.275773       116.3497 
 603   0.0000       4.279495       116.4510 
 604   0.0000       4.288935       116.7079 
 605   0.0000       4.296726       116.9198 
 606   0.0000       4.301269       117.0435 
 607   0.0000       4.304719       117.1374 
 608   0.0000       4.313196       117.3680 
 609   0.0000       4.323860       117.6582 
 610   0.0000       4.328869       117.7945 
 611   0.0000       4.329328       117.8070 
 612   0.0000       4.344441       118.2183 
 613   0.0000       4.349587       118.3583 
 614   0.0000       4.351767       118.4176 
 615   0.0000       4.362305       118.7044 
 616   0.0000       4.376503       119.0907 
 617   0.0000       4.386341       119.3584 
 618   0.0000       4.392029       119.5132 
 619   0.0000       4.399837       119.7257 
 620   0.0000       4.402440       119.7965 
 621   0.0000       4.413492       120.0972 
 622   0.0000       4.419928       120.2724 
 623   0.0000       4.428117       120.4952 
 624   0.0000       4.439920       120.8164 
 625   0.0000       4.441697       120.8647 
 626   0.0000       4.445900       120.9791 
 627   0.0000       4.460563       121.3781 
 628   0.0000       4.461736       121.4100 
 629   0.0000       4.471834       121.6848 
 630   0.0000       4.478994       121.8796 
 631   0.0000       4.491220       122.2123 
 632   0.0000       4.499863       122.4475 
 633   0.0000       4.510451       122.7356 
 634   0.0000       4.517110       122.9168 
 635   0.0000       4.521665       123.0408 
 636   0.0000       4.541778       123.5881 
 637   0.0000       4.550293       123.8198 
 638   0.0000       4.562065       124.1401 
 639   0.0000       4.574796       124.4865 
 640   0.0000       4.577886       124.5706 
 641   0.0000       4.584231       124.7433 
 642   0.0000       4.599040       125.1462 
 643   0.0000       4.603885       125.2781 
 644   0.0000       4.613863       125.5496 
 645   0.0000       4.625806       125.8746 
 646   0.0000       4.632197       126.0485 
 647   0.0000       4.639129       126.2371 
 648   0.0000       4.647041       126.4524 
 649   0.0000       4.656989       126.7231 
 650   0.0000       4.663686       126.9053 
 651   0.0000       4.671571       127.1199 
 652   0.0000       4.673473       127.1717 
 653   0.0000       4.680742       127.3695 
 654   0.0000       4.685144       127.4893 
 655   0.0000       4.697001       127.8119 
 656   0.0000       4.711544       128.2076 
 657   0.0000       4.725845       128.5968 
 658   0.0000       4.728968       128.6818 
 659   0.0000       4.753585       129.3516 
 660   0.0000       4.764476       129.6480 
 661   0.0000       4.771069       129.8274 
 662   0.0000       4.805639       130.7681 
 663   0.0000       4.815284       131.0305 
 664   0.0000       4.839347       131.6853 
 665   0.0000       4.843606       131.8012 
 666   0.0000       4.856166       132.1430 
 667   0.0000       4.866375       132.4208 
 668   0.0000       4.874756       132.6488 
 669   0.0000       4.879117       132.7675 
 670   0.0000       4.908720       133.5730 
 671   0.0000       4.924509       134.0027 
 672   0.0000       4.948245       134.6486 
 673   0.0000       4.963001       135.0501 
 674   0.0000       4.976542       135.4186 
 675   0.0000       4.988162       135.7348 
 676   0.0000       5.006454       136.2325 
 677   0.0000       5.017833       136.5422 
 678   0.0000       5.030069       136.8751 
 679   0.0000       5.035768       137.0302 
 680   0.0000       5.059859       137.6858 
 681   0.0000       5.070674       137.9801 
 682   0.0000       5.080939       138.2594 
 683   0.0000       5.087850       138.4474 
 684   0.0000       5.102066       138.8343 
 685   0.0000       5.103979       138.8863 
 686   0.0000       5.116505       139.2272 
 687   0.0000       5.125770       139.4793 
 688   0.0000       5.135652       139.7482 
 689   0.0000       5.151266       140.1731 
 690   0.0000       5.161302       140.4462 
 691   0.0000       5.164885       140.5437 
 692   0.0000       5.168924       140.6536 
 693   0.0000       5.185261       141.0981 
 694   0.0000       5.194144       141.3399 
 695   0.0000       5.205583       141.6511 
 696   0.0000       5.223428       142.1367 
 697   0.0000       5.237051       142.5074 
 698   0.0000       5.258996       143.1046 
 699   0.0000       5.274793       143.5344 
 700   0.0000       5.284913       143.8098 
 701   0.0000       5.299947       144.2189 
 702   0.0000       5.316586       144.6717 
 703   0.0000       5.320654       144.7823 
 704   0.0000       5.344516       145.4317 
 705   0.0000       5.346707       145.4913 
 706   0.0000       5.350090       145.5834 
 707   0.0000       5.368387       146.0812 
 708   0.0000       5.379459       146.3825 
 709   0.0000       5.405190       147.0827 
 710   0.0000       5.409613       147.2030 
 711   0.0000       5.421445       147.5250 
 712   0.0000       5.434939       147.8922 
 713   0.0000       5.452616       148.3732 
 714   0.0000       5.471221       148.8795 
 715   0.0000       5.477477       149.0497 
 716   0.0000       5.502977       149.7436 
 717   0.0000       5.509784       149.9288 
 718   0.0000       5.520625       150.2239 
 719   0.0000       5.522880       150.2852 
 720   0.0000       5.525734       150.3629 
 721   0.0000       5.559402       151.2790 
 722   0.0000       5.566481       151.4716 
 723   0.0000       5.578549       151.8000 
 724   0.0000       5.592944       152.1917 
 725   0.0000       5.614327       152.7736 
 726   0.0000       5.621027       152.9559 
 727   0.0000       5.631243       153.2339 
 728   0.0000       5.642020       153.5272 
 729   0.0000       5.647310       153.6711 
 730   0.0000       5.654280       153.8608 
 731   0.0000       5.671519       154.3299 
 732   0.0000       5.684805       154.6914 
 733   0.0000       5.699869       155.1013 
 734   0.0000       5.703615       155.2033 
 735   0.0000       5.710517       155.3911 
 736   0.0000       5.721361       155.6861 
 737   0.0000       5.727839       155.8624 
 738   0.0000       5.743536       156.2896 
 739   0.0000       5.746895       156.3810 
 740   0.0000       5.769152       156.9866 
 741   0.0000       5.788311       157.5079 
 742   0.0000       5.800789       157.8475 
 743   0.0000       5.809915       158.0958 
 744   0.0000       5.819987       158.3699 
 745   0.0000       5.832046       158.6980 
 746   0.0000       5.861869       159.5096 
 747   0.0000       5.872484       159.7984 
 748   0.0000       5.892094       160.3320 
 749   0.0000       5.899038       160.5210 
 750   0.0000       5.943747       161.7376 
 751   0.0000       5.968791       162.4190 
 752   0.0000       5.983194       162.8110 
 753   0.0000       6.032537       164.1537 
 754   0.0000       6.037418       164.2865 
 755   0.0000       6.056115       164.7953 
 756   0.0000       6.059614       164.8905 
 757   0.0000       6.067410       165.1026 
 758   0.0000       6.101157       166.0209 
 759   0.0000       6.111090       166.2912 
 760   0.0000       6.127421       166.7356 
 761   0.0000       6.141894       167.1294 
 762   0.0000       6.173117       167.9791 
 763   0.0000       6.184725       168.2949 
 764   0.0000       6.200522       168.7248 
 765   0.0000       6.211828       169.0324 
 766   0.0000       6.267397       170.5445 
 767   0.0000       6.282776       170.9630 
 768   0.0000       6.286373       171.0609 
 769   0.0000       6.319152       171.9529 
 770   0.0000       6.335779       172.4053 
 771   0.0000       6.403517       174.2486 
 772   0.0000       6.409477       174.4107 
 773   0.0000       6.421299       174.7324 
 774   0.0000       6.452982       175.5946 
 775   0.0000       6.461705       175.8319 
 776   0.0000       6.481052       176.3584 
 777   0.0000       6.549856       178.2307 
 778   0.0000       6.572089       178.8356 
 779   0.0000       6.612847       179.9447 
 780   0.0000       6.637885       180.6260 
 781   0.0000       6.668082       181.4477 
 782   0.0000       6.715594       182.7406 
 783   0.0000       6.752354       183.7409 
 784   0.0000       6.785786       184.6506 
 785   0.0000       6.838116       186.0746 
 786   0.0000       6.916322       188.2027 
 787   0.0000       6.944361       188.9657 
 788   0.0000       6.949767       189.1128 
 789   0.0000       6.984707       190.0635 
 790   0.0000       7.025183       191.1649 
 791   0.0000       7.097881       193.1431 
 792   0.0000       7.130933       194.0426 
 793   0.0000       7.150775       194.5825 
 794   0.0000       7.201152       195.9533 
 795   0.0000       7.224507       196.5888 
 796   0.0000       7.270096       197.8294 
 797   0.0000       7.290468       198.3837 
 798   0.0000       7.354351       200.1221 
 799   0.0000       7.374252       200.6636 
 800   0.0000       7.402670       201.4369 
 801   0.0000       7.463137       203.0823 
 802   0.0000       7.554641       205.5722 
 803   0.0000       7.586945       206.4513 
 804   0.0000       7.674786       208.8415 
 805   0.0000       7.800086       212.2511 
 806   0.0000       7.827657       213.0014 
 807   0.0000       7.954275       216.4468 
 808   0.0000       7.958256       216.5552 
 809   0.0000       9.337253       254.0796 
 810   0.0000       9.932288       270.2713 
 811   0.0000      10.920046       297.1496 
 812   0.0000      11.484105       312.4984 
 813   0.0000      11.727341       319.1172 
 814   0.0000      12.210405       332.2620 
 815   0.0000      12.832417       349.1878 
 816   0.0000      12.867775       350.1500 
 817   0.0000      13.166224       358.2712 
 818   0.0000      13.173960       358.4817 
 819   0.0000      13.309744       362.1766 
 820   0.0000      13.559066       368.9609 
 821   0.0000      13.700330       372.8049 
 822   0.0000      13.701172       372.8279 
 823   0.0000      13.944808       379.4575 
 824   0.0000      14.469021       393.7221 
 825   0.0000      14.944697       406.6659 
 826   0.0000      15.326210       417.0474 
 827   0.0000      15.528610       422.5550 

                    ********************************
                    * MULLIKEN POPULATION ANALYSIS *
                    ********************************

-----------------------
MULLIKEN ATOMIC CHARGES
-----------------------
   0 C :   -0.273591
   1 C :    0.022832
   2 O :   -0.372688
   3 C :    0.455254
   4 O :   -0.430141
   5 C :   -0.173964
   6 C :    0.170287
   7 C :   -0.295226
   8 N :   -0.111960
   9 C :    0.195334
  10 S :   -0.442557
  11 N :   -0.187110
  12 C :    0.073469
  13 C :    0.009288
  14 C :   -0.145356
  15 C :   -0.146711
  16 C :   -0.249574
  17 C :    0.271014
  18 O :   -0.348862
  19 C :   -0.277120
  20 H :    0.099898
  21 H :    0.098443
  22 H :    0.101573
  23 H :    0.099918
  24 H :    0.115540
  25 H :    0.129903
  26 H :    0.128372
  27 H :    0.101261
  28 H :    0.201739
  29 H :    0.194023
  30 H :    0.151707
  31 H :    0.146630
  32 H :    0.157927
  33 H :    0.134132
  34 H :    0.247480
  35 H :    0.148835
Sum of atomic charges:   -0.0000000

--------------------------------
MULLIKEN REDUCED ORBITAL CHARGES
--------------------------------
  0 C s       :     3.258804  s :     3.258804
      pz      :     0.993924  p :     2.938793
      px      :     0.953978
      py      :     0.990891
      dz2     :     0.007161  d :     0.071941
      dxz     :     0.017781
      dyz     :     0.019762
      dx2y2   :     0.015498
      dxy     :     0.011740
      f0      :     0.000295  f :     0.004053
      f+1     :     0.000790
      f-1     :     0.000164
      f+2     :     0.000864
      f-2     :     0.001045
      f+3     :     0.000238
      f-3     :     0.000657
  1 C s       :     3.191252  s :     3.191252
      pz      :     0.823354  p :     2.631254
      px      :     0.903813
      py      :     0.904086
      dz2     :     0.020699  d :     0.143994
      dxz     :     0.040648
      dyz     :     0.030499
      dx2y2   :     0.024260
      dxy     :     0.027889
      f0      :     0.001218  f :     0.010668
      f+1     :     0.001355
      f-1     :     0.001549
      f+2     :     0.002001
      f-2     :     0.002411
      f+3     :     0.001041
      f-3     :     0.001093
  2 O s       :     3.734667  s :     3.734667
      pz      :     1.401420  p :     4.603687
      px      :     1.596574
      py      :     1.605693
      dz2     :     0.004585  d :     0.032357
      dxz     :     0.005646
      dyz     :     0.011241
      dx2y2   :     0.003858
      dxy     :     0.007027
      f0      :     0.000227  f :     0.001977
      f+1     :     0.000481
      f-1     :     0.000266
      f+2     :     0.000267
      f-2     :     0.000545
      f+3     :     0.000113
      f-3     :     0.000078
  3 C s       :     3.069315  s :     3.069315
      pz      :     0.711295  p :     2.157333
      px      :     0.659690
[...]
 15 C s       :     2.706604  s :     2.706604
      pz      :     0.843025  p :     2.802820
      px      :     0.987302
      py      :     0.972493
      dz2     :     0.044436  d :     0.412781
      dxz     :     0.083638
      dyz     :     0.029767
      dx2y2   :     0.152742
      dxy     :     0.102199
      f0      :     0.002397  f :     0.040383
      f+1     :     0.003667
      f-1     :     0.003460
      f+2     :     0.004093
      f-2     :     0.007091
      f+3     :     0.011621
      f-3     :     0.008056
 16 C s       :     2.703770  s :     2.703770
      pz      :     0.914547  p :     2.868432
      px      :     0.969867
      py      :     0.984018
      dz2     :     0.035984  d :     0.395137
      dxz     :     0.032787
      dyz     :     0.068402
      dx2y2   :     0.128964
      dxy     :     0.129000
      f0      :     0.002585  f :     0.040712
      f+1     :     0.003334
      f-1     :     0.003727
      f+2     :     0.006162
      f-2     :     0.004173
      f+3     :     0.011974
      f-3     :     0.008756
 17 C s       :     2.703931  s :     2.703931
      pz      :     0.813043  p :     2.690056
      px      :     0.896089
      py      :     0.980924
      dz2     :     0.062606  d :     0.712091
      dxz     :     0.130403
      dyz     :     0.105843
      dx2y2   :     0.200248
      dxy     :     0.212991
      f0      :     0.006883  f :     0.100530
      f+1     :     0.010264
      f-1     :     0.007000
      f+2     :     0.012368
      f-2     :     0.015253
      f+3     :     0.032739
      f-3     :     0.016023
 18 O s       :     3.168904  s :     3.168904
      pz      :     1.592034  p :     4.342091
      px      :     1.201461
      py      :     1.548596
      dz2     :     0.008418  d :     0.078473
      dxz     :     0.016210
      dyz     :     0.006195
      dx2y2   :     0.018979
      dxy     :     0.028671
      f0      :     0.000390  f :     0.005273
      f+1     :     0.000517
      f-1     :     0.000315
      f+2     :     0.000518
      f-2     :     0.001257
      f+3     :     0.001143
      f-3     :     0.001133
 19 C s       :     2.703507  s :     2.703507
      pz      :     0.912993  p :     2.857230
      px      :     0.978971
      py      :     0.965266
      dz2     :     0.038306  d :     0.382037
      dxz     :     0.070054
      dyz     :     0.025399
      dx2y2   :     0.149245
      dxy     :     0.099032
      f0      :     0.002279  f :     0.038911
      f+1     :     0.003864
      f-1     :     0.003157
      f+2     :     0.004460
      f-2     :     0.005852
      f+3     :     0.010939
      f-3     :     0.008360
 20 H s       :     0.850979  s :     0.850979
      pz      :     0.059240  p :     0.152830
      px      :     0.054281
      py      :     0.039309
      dz2     :     0.007642  d :     0.027569
      dxz     :     0.007238
      dyz     :     0.006073
      dx2y2   :     0.003061
      dxy     :     0.003556
 21 H s       :     0.854391  s :     0.854391
      pz      :     0.045298  p :     0.152971
      px      :     0.040932
      py      :     0.066741
      dz2     :     0.004279  d :     0.027241
      dxz     :     0.002311
      dyz     :     0.007791
      dx2y2   :     0.006130
      dxy     :     0.006730
 22 H s       :     0.847603  s :     0.847603
      pz      :     0.056709  p :     0.153619
      px      :     0.045518
      py      :     0.051392
      dz2     :     0.007616  d :     0.027535
      dxz     :     0.005992
      dyz     :     0.006128
      dx2y2   :     0.004117
      dxy     :     0.003682
 23 H s       :     0.864146  s :     0.864146
      pz      :     0.054519  p :     0.147650
      px      :     0.055551
      py      :     0.037580
      dz2     :     0.006177  d :     0.026745
      dxz     :     0.007753
      dyz     :     0.004588
      dx2y2   :     0.003296
      dxy     :     0.004930
 24 H s       :     0.853722  s :     0.853722
      pz      :     0.038754  p :     0.150246
      px      :     0.043614
      py      :     0.067878
      dz2     :     0.003095  d :     0.027332
      dxz     :     0.003545
      dyz     :     0.006315
      dx2y2   :     0.007151
      dxy     :     0.007226
 25 H s       :     0.830756  s :     0.830756
      pz      :     0.067529  p :     0.149011
      px      :     0.041251
      py      :     0.040231
      dz2     :     0.009133  d :     0.027484
      dxz     :     0.007421
      dyz     :     0.007219
      dx2y2   :     0.002414
      dxy     :     0.001297
 26 H s       :     0.816454  s :     0.816454
      pz      :     0.039082  p :     0.155504
      px      :     0.073767
      py      :     0.042655
      dz2     :     0.002627  d :     0.028935
      dxz     :     0.008976
      dyz     :     0.000273
      dx2y2   :     0.008050
      dxy     :     0.009009
 27 H s       :     0.839358  s :     0.839358
      pz      :     0.037165  p :     0.150591
      px      :     0.042587
      py      :     0.070839
      dz2     :     0.002713  d :     0.028006
      dxz     :     0.000175
      dyz     :     0.008711
      dx2y2   :     0.006840
      dxy     :     0.009566
 28 H s       :     0.737551  s :     0.737551
      pz      :     0.051041  p :     0.251016
      px      :     0.082335
      py      :     0.117640
      dz2     :     0.006283  d :     0.060885
      dxz     :     0.001808
      dyz     :     0.016028
      dx2y2   :     0.016100
      dxy     :     0.020666
 29 H s       :     0.742080  s :     0.742080
      pz      :     0.109700  p :     0.253386
      px      :     0.096760
      py      :     0.046925
      dz2     :     0.021049  d :     0.061293
      dxz     :     0.017590
      dyz     :     0.013018
      dx2y2   :     0.005299
      dxy     :     0.004336
 30 H s       :     0.829893  s :     0.829893
      pz      :     0.037868  p :     0.144494
      px      :     0.049732
      py      :     0.056893
      dz2     :     0.003625  d :     0.028273
      dxz     :     0.004209
      dyz     :     0.006393
      dx2y2   :     0.007226
      dxy     :     0.006821
 31 H s       :     0.845860  s :     0.845860
      pz      :     0.049290  p :     0.158788
      px      :     0.065227
      py      :     0.044272
      dz2     :     0.003593  d :     0.027872
      dxz     :     0.006283
      dyz     :     0.003009
      dx2y2   :     0.007619
      dxy     :     0.007368
 32 H s       :     0.843030  s :     0.843030
      pz      :     0.041003  p :     0.154570
      px      :     0.035182
      py      :     0.078386
      dz2     :     0.002618  d :     0.027016
      dxz     :     0.000219
      dyz     :     0.007620
      dx2y2   :     0.007820
      dxy     :     0.008739
 33 H s       :     0.849223  s :     0.849223
      pz      :     0.047951  p :     0.158501
      px      :     0.067450
      py      :     0.043100
      dz2     :     0.002754  d :     0.027663
      dxz     :     0.006659
      dyz     :     0.002096
      dx2y2   :     0.008184
      dxy     :     0.007970
 34 H s       :     0.699344  s :     0.699344
      pz      :     0.110469  p :     0.343822
      px      :     0.119194
      py      :     0.114159
      dz2     :     0.013163  d :     0.098003
      dxz     :     0.025429
      dyz     :     0.009427
      dx2y2   :     0.023637
      dxy     :     0.026348
 35 H s       :     0.846135  s :     0.846135
      pz      :     0.046608  p :     0.161639
      px      :     0.034477
      py      :     0.080555
      dz2     :     0.002527  d :     0.028456
      dxz     :     0.000094
      dyz     :     0.008837
      dx2y2   :     0.007856
      dxy     :     0.009141


                      *****************************
                      * MAYER POPULATION ANALYSIS *
                      *****************************

  NA   - Mulliken gross atomic population
  ZA   - Total nuclear charge
  QA   - Mulliken gross atomic charge
  VA   - Mayer's total valence
  BVA  - Mayer's bonded valence
  FA   - Mayer's free valence

  ATOM       NA         ZA         QA         VA         BVA        FA
  0 C      6.2736     6.0000    -0.2736     3.8891     3.8891     0.0000
  1 C      5.9772     6.0000     0.0228     3.8509     3.8509    -0.0000
  2 O      8.3727     8.0000    -0.3727     2.0398     2.0398     0.0000
  3 C      5.5447     6.0000     0.4553     4.2196     4.2196     0.0000
  4 O      8.4301     8.0000    -0.4301     2.0941     2.0941     0.0000
  5 C      6.1740     6.0000    -0.1740     3.6224     3.6224    -0.0000
  6 C      5.8297     6.0000     0.1703     3.8617     3.8617    -0.0000
  7 C      6.2952     6.0000    -0.2952     3.8960     3.8960    -0.0000
  8 N      7.1120     7.0000    -0.1120     3.3018     3.3018    -0.0000
  9 C      5.8047     6.0000     0.1953     4.1368     4.1368    -0.0000
 10 S     16.4426    16.0000    -0.4426     1.7239     1.7239    -0.0000
 11 N      7.1871     7.0000    -0.1871     3.2590     3.2590     0.0000
 12 C      5.9265     6.0000     0.0735     3.9793     3.9793    -0.0000
 13 C      5.9907     6.0000     0.0093     3.7651     3.7651     0.0000
 14 C      6.1454     6.0000    -0.1454     3.8469     3.8469    -0.0000
 15 C      6.1467     6.0000    -0.1467     3.8027     3.8027    -0.0000
 16 C      6.2496     6.0000    -0.2496     3.7745     3.7745    -0.0000
 17 C      5.7290     6.0000     0.2710     3.9300     3.9300     0.0000
 18 O      8.3489     8.0000    -0.3489     2.1090     2.1090    -0.0000
 19 C      6.2771     6.0000    -0.2771     3.8703     3.8703     0.0000
 20 H      0.9001     1.0000     0.0999     0.9868     0.9868    -0.0000
 21 H      0.9016     1.0000     0.0984     0.9788     0.9788     0.0000
 22 H      0.8984     1.0000     0.1016     0.9845     0.9845     0.0000
 23 H      0.9001     1.0000     0.0999     0.9809     0.9809    -0.0000
 24 H      0.8845     1.0000     0.1155     0.9844     0.9844    -0.0000
 25 H      0.8701     1.0000     0.1299     0.9867     0.9867     0.0000
 26 H      0.8716     1.0000     0.1284     0.9794     0.9794    -0.0000
 27 H      0.8987     1.0000     0.1013     0.9836     0.9836    -0.0000
 28 H      0.7983     1.0000     0.2017     1.0198     1.0198    -0.0000
 29 H      0.8060     1.0000     0.1940     1.0181     1.0181    -0.0000
 30 H      0.8483     1.0000     0.1517     0.9904     0.9904     0.0000
 31 H      0.8534     1.0000     0.1466     0.9928     0.9928     0.0000
 32 H      0.8421     1.0000     0.1579     0.9775     0.9775    -0.0000
 33 H      0.8659     1.0000     0.1341     0.9878     0.9878    -0.0000
 34 H      0.7525     1.0000     0.2475     1.0023     1.0023     0.0000
 35 H      0.8512     1.0000     0.1488     0.9922     0.9922     0.0000

  Mayer bond orders larger than 0.100000
B(  0-C ,  1-C ) :   0.9684 B(  0-C , 20-H ) :   0.9773 B(  0-C , 21-H ) :   0.9759 
B(  0-C , 22-H ) :   0.9778 B(  1-C ,  2-O ) :   0.8954 B(  1-C , 23-H ) :   0.9814 
B(  1-C , 24-H ) :   0.9743 B(  2-O ,  3-C ) :   1.1476 B(  3-C ,  4-O ) :   1.9797 
B(  3-C ,  5-C ) :   1.0722 B(  5-C ,  6-C ) :   1.6468 B(  5-C , 12-C ) :   0.9677 
B(  6-C ,  7-C ) :   0.9527 B(  6-C ,  8-N ) :   1.1480 B(  7-C , 25-H ) :   0.9686 
B(  7-C , 26-H ) :   0.9590 B(  7-C , 27-H ) :   0.9951 B(  8-N ,  9-C ) :   1.2021 
B(  8-N , 28-H ) :   0.9409 B(  9-C , 10-S ) :   1.5802 B(  9-C , 11-N ) :   1.2875 
B( 11-N , 12-C ) :   1.0211 B( 11-N , 29-H ) :   0.9526 B( 12-C , 13-C ) :   0.9270 
B( 12-C , 30-H ) :   0.9978 B( 13-C , 14-C ) :   1.3708 B( 13-C , 19-C ) :   1.3850 
B( 14-C , 15-C ) :   1.3834 B( 14-C , 31-H ) :   0.9676 B( 15-C , 16-C ) :   1.3620 
B( 15-C , 32-H ) :   0.9715 B( 16-C , 17-C ) :   1.3309 B( 16-C , 33-H ) :   0.9799 
B( 17-C , 18-O ) :   1.1041 B( 17-C , 19-C ) :   1.4106 B( 18-O , 34-H ) :   0.9711 
B( 19-C , 35-H ) :   0.9572 

-------
TIMINGS
-------

Total SCF time: 0 days 1 hours 48 min 17 sec 

Total time                  ....    6497.857 sec
Sum of individual times     ....    6494.284 sec  ( 99.9%)

Fock matrix formation       ....    6481.937 sec  ( 99.8%)
Diagonalization             ....       1.366 sec  (  0.0%)
Density matrix formation    ....       0.185 sec  (  0.0%)
Population analysis         ....       0.215 sec  (  0.0%)
Initial guess               ....       5.621 sec  (  0.1%)
Orbital Transformation      ....       0.000 sec  (  0.0%)
Orbital Orthonormalization  ....       0.000 sec  (  0.0%)
DIIS solution               ....       1.652 sec  (  0.0%)
SOSCF solution              ....       1.903 sec  (  0.0%)

Maximum memory used throughout the entire SCF-calculation: 718.3 MB

------------------------------------------------------------------------------
                                ORCA  MP2 
------------------------------------------------------------------------------

Freezing NCore=48 chemical core electrons

-------------
RI-MP2 ENERGY
-------------
Dimension of the basis                    ...  828
Memory devoted to MP2                     ...  256 MB   
Data format for buffers                   ... DOUBLE
Compression type for matrix containers    ... UNCOMPRESSED
Overall scaling of the MP2 energy         ...   1.000e+00
Calculating two index integrals           ... done (    0.045 sec)
Cholesky decomposition of V**-1           ... done (    0.556 sec)

-----------------
RI-TRANSFORMATION (AUX index driven)
-----------------

Dimension of the orbital-basis         ... 828
Dimension of the aux-basis             ... 2141
Transformation of internal/external MOs...   24-  76 to   77- 827
Number Format for Storage              ... Double (8 Byte)
Integral mode                          ... Direct

First Phase: integral generation and transformation of MO indices
  Aux angular momentum 0               ... done (    4.820 sec)
  Aux angular momentum 1               ... done (    8.064 sec)
  Aux angular momentum 2               ... done (   10.564 sec)
  Aux angular momentum 3               ... done (    8.522 sec)
  Aux angular momentum 4               ... done (    2.939 sec)
Closing buffer VIA ( 0.63 GB; CompressionRatio= 1.00)
  Phase 1 completed in    35.074 sec
Second Phase: sorting and transformation of aux index

IA-Transformation
Memory available                       ... 158 MB 
Max. # MO pairs treated in a batch     ... 11    
# of internal orbitals                 ... 53
# batches for internal orbitals        ... 5
Closing buffer IAV ( 0.63 GB; CompressionRatio= 1.00)
(ia|v) transformation done in    19.053 sec

  Phase 2 completed in    19.060 sec
RI-Integral transformation completed in    54.138 sec
Opening buffers                              ... done

Starting loop over batches of integrals:

Operator 0  - window                       ... ( 24- 76)x( 77-827)
Operator 0  - Memory available             ...   256 MB
Operator 0  - Memory needed per MO         ...  12.3 MB
Operator 0  - Number of orbitals per batch ... 13
Operator 0  - Number of batches            ... 5

OPERATOR  0   PASS   0:  MOs    24 ...   36
  Reading integrals       ... ok
  Internal MO  26
  Internal MO  29
  Internal MO  32
  Internal MO  35
OPERATOR  0   PASS   1:  MOs    37 ...   49
  Reading integrals       ... ok
  Internal MO  38
  Internal MO  41
  Internal MO  44
  Internal MO  47
OPERATOR  0   PASS   2:  MOs    50 ...   62
  Reading integrals       ... ok
  Internal MO  50
  Internal MO  53
  Internal MO  56
  Internal MO  59
  Internal MO  62
OPERATOR  0   PASS   3:  MOs    63 ...   75
  Reading integrals       ... ok
  Internal MO  65
  Internal MO  68
  Internal MO  71
  Internal MO  74
OPERATOR  0   PASS   4:  MOs    76 ...   76
  Reading integrals       ... ok
Time spent in pair loops =    91.329 sec
Deleting buffer (Ka|jb)[aa] ...done

-----------------------------------------------
 RI-MP2 CORRELATION ENERGY:     -3.540501864 Eh
-----------------------------------------------


-------
TIMINGS
-------

Total time                :  146.163 sec
Integral trafo            :   54.158 sec ( 37.1%)
I/O of integrals          :    1.145 sec (  0.8%)
K(i,j) Operators          :   61.055 sec ( 41.8%)
T(i,j) pair energies      :    9.097 sec (  6.2%)
V-calculation             :    0.045 sec (  0.0%)
V**(-1/2)                 :    0.556 sec (  0.4%)
Gamma(ia|P)               :    0.000 sec (  0.0%)
Gamma-Trafo               :    0.000 sec (  0.0%)
D(virtual)                :    0.000 sec (  0.0%)
D(internal)               :    0.000 sec (  0.0%)
W(virtual)                :    0.000 sec (  0.0%)
W(internal)               :    0.000 sec (  0.0%)
L(virtual)                :    0.000 sec (  0.0%)
L(internal)               :    0.000 sec (  0.0%)
G(D)                      :    0.000 sec (  0.0%)
G(Z)                      :    0.000 sec (  0.0%)
Z-Vector Solution         :    0.000 sec (  0.0%)
3-Index Derivative        :    0.000 sec (  0.0%)
2-Index Derivative        :    0.000 sec (  0.0%)
Separable Gradient        :    0.000 sec (  0.0%)


---------------------------------------
MP2 TOTAL ENERGY:    -1274.310143091 Eh
---------------------------------------

Maximum memory used throughout the entire MP2-calculation: 302.7 MB

-------------------------   --------------------
FINAL SINGLE POINT ENERGY     -1274.310143090557
-------------------------   --------------------


                            ***************************************
                            *     ORCA property calculations      *
                            ***************************************


  WARNING: The energy has been calculated at the MP2 level but the densities
           used in the property calculations are still SCF densities
           MP2 response densities have not been calculated 
           use %mp2 Density relaxed end
           or  %mp2 Density unrelaxed end

                                    ---------------------
                                    Active property flags
                                    ---------------------
   (+) Dipole Moment


------------------------------------------------------------------------------
                       ORCA ELECTRIC PROPERTIES CALCULATION
------------------------------------------------------------------------------

Dipole Moment Calculation                       ... on
Quadrupole Moment Calculation                   ... off
Polarizability Calculation                      ... off
GBWName                                         ... qm_input.vacu.gbw
Electron density file                           ... qm_input.vacu.scfp
The origin for moment calculation is the CENTER OF MASS  = (-6.833237, 12.969042 -1.446645)

-------------
DIPOLE MOMENT
-------------
                                X             Y             Z
Electronic contribution:    -10.75912       3.35127      14.06166
Nuclear contribution   :     11.36126      -3.79142     -15.53353
                        -----------------------------------------
Total Dipole Moment    :      0.60214      -0.44015      -1.47188
                        -----------------------------------------
Magnitude (a.u.)       :      1.65007
Magnitude (Debye)      :      4.19414



--------------------
Rotational spectrum 
--------------------
 
Rotational constants in cm-1:     0.011126     0.008209     0.005580 
Rotational constants in MHz :   333.562912   246.085666   167.294220 

 Dipole components along the rotational axes: 
x,y,z [a.u.] :     1.321788     0.838810    -0.521535 
x,y,z [Debye]:     3.359719     2.132086    -1.325637 

 

Timings for individual modules:

Sum of individual times         ...     6646.177 sec (= 110.770 min)
GTO integral calculation        ...        1.799 sec (=   0.030 min)   0.0 %
SCF iterations                  ...     6497.905 sec (= 108.298 min)  97.8 %
MP2 module                      ...      146.472 sec (=   2.441 min)   2.2 %
                             ****ORCA TERMINATED NORMALLY****
TOTAL RUN TIME: 0 days 1 hours 50 minutes 47 seconds 90 msec
