
                                        *****************
                                        * O   R   C   A *
                                        *****************

                                            #,                                       
                                            ###                                      
                                            ####                                     
                                            #####                                    
                                            ######                                   
                                           ########,                                 
                                     ,,################,,,,,                         
                               ,,#################################,,                 
                          ,,##########################################,,             
                       ,#########################################, ''#####,          
                    ,#############################################,,   '####,        
                  ,##################################################,,,,####,       
                ,###########''''           ''''###############################       
              ,#####''   ,,,,##########,,,,          '''####'''          '####       
            ,##' ,,,,###########################,,,                        '##       
           ' ,,###''''                  '''############,,,                           
         ,,##''                                '''############,,,,        ,,,,,,###''
      ,#''                                            '''#######################'''  
     '                                                          ''''####''''         
             ,#######,   #######,   ,#######,      ##                                
            ,#'     '#,  ##    ##  ,#'     '#,    #''#        ######   ,####,        
            ##       ##  ##   ,#'  ##            #'  '#       #        #'  '#        
            ##       ##  #######   ##           ,######,      #####,   #    #        
            '#,     ,#'  ##    ##  '#,     ,#' ,#      #,         ##   #,  ,#        
             '#######'   ##     ##  '#######'  #'      '#     #####' # '####'        



                  #######################################################
                  #                        -***-                        #
                  #          Department of theory and spectroscopy      #
                  #    Directorship and core code : Frank Neese         #
                  #        Max Planck Institute fuer Kohlenforschung    #
                  #                Kaiser Wilhelm Platz 1               #
                  #                 D-45470 Muelheim/Ruhr               #
                  #                      Germany                        #
                  #                                                     #
                  #                  All rights reserved                #
                  #                        -***-                        #
                  #######################################################


                         Program Version 5.0.0 -  RELEASE  -
                                (SVN: $Rev: 19529$)
                ($Date: 2021-06-28 11:36:33 +0200 (Mo, 28 Jun 2021) $)


 With contributions from (in alphabetic order):
   Daniel Aravena         : Magnetic Suceptibility
   Michael Atanasov       : Ab Initio Ligand Field Theory (pilot matlab implementation)
   Alexander A. Auer      : GIAO ZORA, VPT2 properties, NMR spectrum
   Ute Becker             : Parallelization
   Giovanni Bistoni       : ED, misc. LED, open-shell LED, HFLD
   Martin Brehm           : Molecular dynamics
   Dmytro Bykov           : SCF Hessian
   Vijay G. Chilkuri      : MRCI spin determinant printing, contributions to CSF-ICE
   Dipayan Datta          : RHF DLPNO-CCSD density
   Achintya Kumar Dutta   : EOM-CC, STEOM-CC
   Dmitry Ganyushin       : Spin-Orbit,Spin-Spin,Magnetic field MRCI
   Miquel Garcia          : C-PCM Hessian, Gaussian charge scheme
   Yang Guo               : DLPNO-NEVPT2, F12-NEVPT2, CIM, IAO-localization
   Andreas Hansen         : Spin unrestricted coupled pair/coupled cluster methods
   Benjamin Helmich-Paris : MC-RPA, TRAH-SCF, COSX integrals
   Lee Huntington         : MR-EOM, pCC
   Robert Izsak           : Overlap fitted RIJCOSX, COSX-SCS-MP3, EOM
   Marcus Kettner         : VPT2
   Christian Kollmar      : KDIIS, OOCD, Brueckner-CCSD(T), CCSD density, CASPT2, CASPT2-K
   Simone Kossmann        : Meta GGA functionals, TD-DFT gradient, OOMP2, MP2 Hessian
   Martin Krupicka        : Initial AUTO-CI
   Lucas Lang             : DCDCAS
   Marvin Lechner         : AUTO-CI (C++ implementation), FIC-MRCC
   Dagmar Lenk            : GEPOL surface, SMD
   Dimitrios Liakos       : Extrapolation schemes; Compound Job, initial MDCI parallelization
   Dimitrios Manganas     : Further ROCIS development; embedding schemes
   Dimitrios Pantazis     : SARC Basis sets
   Anastasios Papadopoulos: AUTO-CI, single reference methods and gradients
   Taras Petrenko         : DFT Hessian,TD-DFT gradient, ASA, ECA, R-Raman, ABS, FL, XAS/XES, NRVS
   Peter Pinski           : DLPNO-MP2, DLPNO-MP2 Gradient
   Christoph Reimann      : Effective Core Potentials
   Marius Retegan         : Local ZFS, SOC
   Christoph Riplinger    : Optimizer, TS searches, QM/MM, DLPNO-CCSD(T), (RO)-DLPNO pert. Triples
   Tobias Risthaus        : Range-separated hybrids, TD-DFT gradient, RPA, STAB
   Michael Roemelt        : Original ROCIS implementation
   Masaaki Saitow         : Open-shell DLPNO-CCSD energy and density
   Barbara Sandhoefer     : DKH picture change effects
   Avijit Sen             : IP-ROCIS
   Kantharuban Sivalingam : CASSCF convergence, NEVPT2, FIC-MRCI
   Bernardo de Souza      : ESD, SOC TD-DFT
   Georgi Stoychev        : AutoAux, RI-MP2 NMR
   Willem Van den Heuvel  : Paramagnetic NMR
   Boris Wezisla          : Elementary symmetry handling
   Frank Wennmohs         : Technical directorship


 We gratefully acknowledge several colleagues who have allowed us to
 interface, adapt or use parts of their codes:
   Stefan Grimme, W. Hujo, H. Kruse, P. Pracht,  : VdW corrections, initial TS optimization,
                  C. Bannwarth, S. Ehlert          DFT functionals, gCP, sTDA/sTD-DF
   Ed Valeev, F. Pavosevic, A. Kumar             : LibInt (2-el integral package), F12 methods
   Garnet Chan, S. Sharma, J. Yang, R. Olivares  : DMRG
   Ulf Ekstrom                                   : XCFun DFT Library
   Mihaly Kallay                                 : mrcc  (arbitrary order and MRCC methods)
   Jiri Pittner, Ondrej Demel                    : Mk-CCSD
   Frank Weinhold                                : gennbo (NPA and NBO analysis)
   Christopher J. Cramer and Donald G. Truhlar   : smd solvation model
   Lars Goerigk                                  : TD-DFT with DH, B97 family of functionals
   V. Asgeirsson, H. Jonsson                     : NEB implementation
   FAccTs GmbH                                   : IRC, NEB, NEB-TS, DLPNO-Multilevel, CI-OPT
                                                   MM, QMMM, 2- and 3-layer-ONIOM, Crystal-QMMM,
                                                   LR-CPCM, SF, NACMEs, symmetry and pop. for TD-DFT,
                                                   nearIR, NL-DFT gradient (VV10), updates on ESD,
                                                   ML-optimized integration grids
   S Lehtola, MJT Oliveira, MAL Marques          : LibXC Library
   Liviu Ungur et al                             : ANISO software


 Your calculation uses the libint2 library for the computation of 2-el integrals
 For citations please refer to: http://libint.valeyev.net

 Your ORCA version has been built with support for libXC version: 5.1.0
 For citations please refer to: https://tddft.org/programs/libxc/

 This ORCA versions uses:
   CBLAS   interface :  Fast vector & matrix operations
   LAPACKE interface :  Fast linear algebra routines
   SCALAPACK package :  Parallel linear algebra routines
   Shared memory     :  Shared parallel matrices
   BLAS/LAPACK       :  OpenBLAS 0.3.15  USE64BITINT DYNAMIC_ARCH NO_AFFINITY SkylakeX SINGLE_THREADED
        Core in use  :  SkylakeX
   Copyright (c) 2011-2014, The OpenBLAS Project


================================================================================

----- Orbital basis set information -----
Your calculation utilizes the basis: cc-pVTZ 
       H, B-Ne : Obtained from the ccRepo (grant-hill.group.shef.ac.uk/ccrepo) Feb. 2017
                 T. H. Dunning, Jr., J. Chem. Phys. 90, 1007 (1989)
            He : Obtained from the ccRepo (grant-hill.group.shef.ac.uk/ccrepo) Feb. 2017
                 D. E. Woon, T. H. Dunning, Jr., J. Chem. Phys. 100, 2975 (1994)
  Li-Be, Na-Mg : Obtained from the ccRepo (grant-hill.group.shef.ac.uk/ccrepo) Feb. 2017
                 B. P. Prascher, D. E. Woon, K. A. Peterson, T. H. Dunning, Jr., A. K. Wilson, Theor. Chem. Acc. 128, 69 (2011)
         Al-Ar : Obtained from the ccRepo (grant-hill.group.shef.ac.uk/ccrepo) Feb. 2017
                 D. E. Woon, T. H. Dunning, Jr., J. Chem. Phys. 98, 1358 (1993)
            Ca : Obtained from the Peterson Research Group Website (tyr0.chem.wsu.edu/~kipeters) Feb. 2017
                 J. Koput, K. A. Peterson, J. Phys. Chem. 106, 9595 (2002)
         Sc-Zn : Obtained from the ccRepo (grant-hill.group.shef.ac.uk/ccrepo) Feb. 2017
                 N. B. Balabanov, K. A. Peterson, J. Chem. Phys. 123, 064107 (2005)
                 N. B. Balabanov, K. A. Peterson, J. Chem. Phys. 125, 074110 (2006)
         Ga-Kr : Obtained from the ccRepo (grant-hill.group.shef.ac.uk/ccrepo) Feb. 2017
                 A. K. Wilson, D. E. Woon, K. A. Peterson, T. H. Dunning, Jr., J. Chem. Phys. 110, 7667 (1999)
             Y : Obtained from the ccRepo (grant-hill.group.shef.ac.uk/ccrepo) Feb. 2017
                 K. A. Peterson, D. Figgen, M. Dolg, H. Stoll, J. Chem. Phys. 126, 124101 (2007)
        Ag, Au : Obtained from the Peterson Research Group Website (tyr0.chem.wsu.edu/~kipeters) Feb. 2017
                 K. A. Peterson, C. Puzzarini, Theor. Chem. Acc. 114, 283 (2005)

----- AuxC basis set information -----
Your calculation utilizes the auxiliary basis: cc-pVTZ/C 
  Obtained from the EMSL Basis Set Exchange (bse.pnl.gov) Feb. 2017
  H-He, B-F, Al-Ar, Ga-Kr : F. Weigend, A. Kohn, C. Hattig, J. Chem. Phys. 116, 3175 (2002)
             Li-Be, Na-Mg : C. Haettig, Phys. Chem. Chem. Phys. 7, 59 (2005)
                       Ne : C. Haettig, Phys. Chem. Chem. Phys. 7, 59 (2005)
                            F. Weigend, A. Kohn, C. Hattig, J. Chem. Phys. 116, 3175 (2002)
                    Sc-Zn : J. G. Hill, J. A. Platts, J. Chem. Phys. 128, 044104 (2008)

================================================================================
                                        WARNINGS
                       Please study these warnings very carefully!
================================================================================


WARNING: No MP2 level density has been requested!
         To caclulate MP2 level properties use
         %mp2 Density relaxed end
         or
         %mp2 Density unrelaxed end

WARNING: Post HF methods need fully converged wavefunctions
  ===> : Setting SCFConvForced true
         You can overwrite this default with %scf ConvForced false 


INFO   : the flag for use of the SHARK integral package has been found!

================================================================================
                                       INPUT FILE
================================================================================
NAME = qm_input.solv
|  1> ! RI-MP2 cc-pVTZ cc-pVTZ/c TightSCF KeepDens NoKeepInts
|  2> 
|  3> %pointcharges "srfp_output"
|  4> 
|  5> *xyz  0  1
|  6>     C     0.6366931    6.6131353   -4.4638707
|  7>     C    -0.6172097    5.8015957   -3.8696090
|  8>     O    -1.2738452    6.6503934   -2.8653293
|  9>     C    -2.0228248    6.0248390   -1.8571825
| 10>     O    -2.0609221    4.7994937   -1.7514550
| 11>     C    -2.5231122    7.0149179   -0.8958418
| 12>     C    -2.5015962    8.3531400   -1.0194557
| 13>     C    -1.8817223    9.1270387   -2.0876270
| 14>     N    -3.0492963    9.1926332   -0.0350064
| 15>     C    -3.5757269    8.7318309    1.1207484
| 16>     S    -4.1780940    9.8094547    2.2704603
| 17>     N    -3.5624417    7.3467618    1.2654322
| 18>     C    -3.1734770    6.4170087    0.2997541
| 19>     C    -4.4931809    5.7370225   -0.2227807
| 20>     C    -4.6814634    4.3462969   -0.0128399
| 21>     C    -5.9097034    3.7209045   -0.3585270
| 22>     C    -6.9997656    4.4669132   -0.8117498
| 23>     C    -6.9028915    5.8664264   -0.9295546
| 24>     O    -7.9633021    6.5844152   -1.3110666
| 25>     C    -5.6164760    6.4459210   -0.7178742
| 26>     H     1.2854685    6.7830619   -3.5958808
| 27>     H     0.3951874    7.5725983   -4.9374691
| 28>     H     1.0399496    5.9939048   -5.2744985
| 29>     H    -1.3722821    5.5844393   -4.6350527
| 30>     H    -0.1823814    4.9097930   -3.4018463
| 31>     H    -2.3183955    8.8943544   -3.0665863
| 32>     H    -0.8111809    8.9358411   -1.9441901
| 33>     H    -1.9382638   10.2114286   -1.9324097
| 34>     H    -3.2464676   10.1687193   -0.2203323
| 35>     H    -3.9846043    7.0913968    2.1500417
| 36>     H    -2.5601947    5.6409274    0.7738574
| 37>     H    -3.8077316    3.8315686    0.3758031
| 38>     H    -5.9266230    2.6464449   -0.2015356
| 39>     H    -7.9428507    3.9563705   -0.9830185
| 40>     H    -8.7620838    6.1295577   -0.9920341
| 41>     H    -5.6273880    7.5297418   -0.7857969
| 42> *
| 43> 
| 44>                          ****END OF INPUT****
================================================================================

                       ****************************
                       * Single Point Calculation *
                       ****************************

---------------------------------
CARTESIAN COORDINATES (ANGSTROEM)
---------------------------------
  C      0.636693    6.613135   -4.463871
  C     -0.617210    5.801596   -3.869609
  O     -1.273845    6.650393   -2.865329
  C     -2.022825    6.024839   -1.857182
  O     -2.060922    4.799494   -1.751455
  C     -2.523112    7.014918   -0.895842
  C     -2.501596    8.353140   -1.019456
  C     -1.881722    9.127039   -2.087627
  N     -3.049296    9.192633   -0.035006
  C     -3.575727    8.731831    1.120748
  S     -4.178094    9.809455    2.270460
  N     -3.562442    7.346762    1.265432
  C     -3.173477    6.417009    0.299754
  C     -4.493181    5.737023   -0.222781
  C     -4.681463    4.346297   -0.012840
  C     -5.909703    3.720904   -0.358527
  C     -6.999766    4.466913   -0.811750
  C     -6.902891    5.866426   -0.929555
  O     -7.963302    6.584415   -1.311067
  C     -5.616476    6.445921   -0.717874
  H      1.285468    6.783062   -3.595881
  H      0.395187    7.572598   -4.937469
  H      1.039950    5.993905   -5.274498
  H     -1.372282    5.584439   -4.635053
  H     -0.182381    4.909793   -3.401846
  H     -2.318395    8.894354   -3.066586
  H     -0.811181    8.935841   -1.944190
  H     -1.938264   10.211429   -1.932410
  H     -3.246468   10.168719   -0.220332
  H     -3.984604    7.091397    2.150042
  H     -2.560195    5.640927    0.773857
  H     -3.807732    3.831569    0.375803
  H     -5.926623    2.646445   -0.201536
  H     -7.942851    3.956370   -0.983019
  H     -8.762084    6.129558   -0.992034
  H     -5.627388    7.529742   -0.785797

----------------------------
CARTESIAN COORDINATES (A.U.)
----------------------------
  NO LB      ZA    FRAG     MASS         X           Y           Z
   0 C     6.0000    0    12.011    1.203176   12.497015   -8.435493
   1 C     6.0000    0    12.011   -1.166357   10.963427   -7.312501
   2 O     8.0000    0    15.999   -2.407219   12.567422   -5.414688
   3 C     6.0000    0    12.011   -3.822585   11.385296   -3.509566
   4 O     8.0000    0    15.999   -3.894578    9.069729   -3.309770
   5 C     6.0000    0    12.011   -4.767991   13.256274   -1.692896
   6 C     6.0000    0    12.011   -4.727332   15.785147   -1.926492
   7 C     6.0000    0    12.011   -3.555940   17.247604   -3.945043
   8 N     7.0000    0    14.007   -5.762335   17.371559   -0.066153
   9 C     6.0000    0    12.011   -6.757145   16.500769    2.117908
  10 S    16.0000    0    32.060   -7.895453   18.537183    4.290548
  11 N     7.0000    0    14.007   -6.732039   13.883368    2.391320
  12 C     6.0000    0    12.011   -5.997002   12.126389    0.566453
  13 C     6.0000    0    12.011   -8.490881   10.841401   -0.420995
  14 C     6.0000    0    12.011   -8.846684    8.213311   -0.024264
  15 C     6.0000    0    12.011  -11.167721    7.031490   -0.677518
  16 C     6.0000    0    12.011  -13.227640    8.441243   -1.533985
  17 C     6.0000    0    12.011  -13.044574   11.085939   -1.756604
  18 O     8.0000    0    15.999  -15.048460   12.442741   -2.477557
  19 C     6.0000    0    12.011  -10.613601   12.181025   -1.356586
  20 H     1.0000    0     1.008    2.429183   12.818129   -6.795230
  21 H     1.0000    0     1.008    0.746796   14.310137   -9.330464
  22 H     1.0000    0     1.008    1.965220   11.326839   -9.967358
  23 H     1.0000    0     1.008   -2.593237   10.553061   -8.758980
  24 H     1.0000    0     1.008   -0.344651    9.278164   -6.428558
  25 H     1.0000    0     1.008   -4.381133   16.807894   -5.795008
  26 H     1.0000    0     1.008   -1.532910   16.886292   -3.673987
  27 H     1.0000    0     1.008   -3.662788   19.296803   -3.651725
  28 H     1.0000    0     1.008   -6.134935   19.216095   -0.416368
  29 H     1.0000    0     1.008   -7.529811   13.400798    4.062990
  30 H     1.0000    0     1.008   -4.838067   10.659808    1.462379
  31 H     1.0000    0     1.008   -7.195570    7.240615    0.710165
  32 H     1.0000    0     1.008  -11.199694    5.001056   -0.380847
  33 H     1.0000    0     1.008  -15.009813    7.476457   -1.857636
  34 H     1.0000    0     1.008  -16.557939   11.583185   -1.874673
  35 H     1.0000    0     1.008  -10.634222   14.229150   -1.484941

--------------------------------
INTERNAL COORDINATES (ANGSTROEM)
--------------------------------
 C      0   0   0     0.000000000000     0.00000000     0.00000000
 C      1   0   0     1.607487394135     0.00000000     0.00000000
 O      2   1   0     1.469763733128   108.03155296     0.00000000
 C      3   2   1     1.403085428235   118.16226119   204.79950534
 O      4   3   2     1.230488038445   121.48286999     4.95053712
 C      4   3   2     1.467896335679   110.59649255   175.99837914
 C      6   4   3     1.344091411868   127.29047446    10.75008650
 C      7   6   4     1.457447349274   127.07714367   354.74118606
 N      7   6   4     1.404942937153   121.61682449   178.25967491
 C      9   7   6     1.351013358196   123.19782706     3.10234933
 S     10   9   7     1.686996333870   120.28315900   178.40922198
 N     10   9   7     1.392668772643   115.11113407   358.86764993
 C     12  10   9     1.395803910879   126.38825526   354.05129338
 C     13  12  10     1.573862202697   106.48845850   253.53192656
 C     14  13  12     1.419028940440   119.04980382   243.37396994
 C     15  14  13     1.420981605329   120.66582305   174.15771013
 C     16  15  14     1.396486837312   121.23442255   354.81146441
 C     17  16  15     1.407799616113   120.29844878   359.69427718
 O     18  17  16     1.336237240785   120.22799588   182.73608934
 C     14  13  12     1.417549483697   124.35713243    53.35400401
 H      1   2   3     1.096900649801   104.30229078    61.30691835
 H      1   2   3     1.096900039194   115.43373816   300.93398205
 H      1   2   3     1.096895458581   105.96021920   185.43767744
 H      2   1   3     1.096902588734   112.26719307   117.10260907
 H      2   1   3     1.096900018105   105.00372727   241.70402079
 H      8   7   6     1.096898709144   111.84804305    60.92498271
 H      8   7   6     1.096899975222   103.10281041   293.24092137
 H      8   7   6     1.096900545475   113.53480942   183.97401420
 H      9   7   6     1.012899938477   121.56680176   195.63335059
 H     12  10   9     1.012900050130   109.72416989   180.72665769
 H     13  12  10     1.096900771617   109.15102689   137.34440515
 H     15  14  13     1.085999936741   114.24938224   351.39086876
 H     16  15  14     1.086000002104   114.43968782   177.09333403
 H     17  16  15     1.086000148234   118.54829743   185.14000377
 H     19  18  17     0.973000146772   107.85956590    31.25244005
 H     20  14  13     1.086001883715   121.93042926     1.20593394

---------------------------
INTERNAL COORDINATES (A.U.)
---------------------------
 C      0   0   0     0.000000000000     0.00000000     0.00000000
 C      1   0   0     3.037710938646     0.00000000     0.00000000
 O      2   1   0     2.777450937181   108.03155296     0.00000000
 C      3   2   1     2.651447201860   118.16226119   204.79950534
 O      4   3   2     2.325285403727   121.48286999     4.95053712
 C      4   3   2     2.773922067420   110.59649255   175.99837914
 C      6   4   3     2.539964667386   127.29047446    10.75008650
 C      7   6   4     2.754176344738   127.07714367   354.74118606
 N      7   6   4     2.654957385007   121.61682449   178.25967491
 C      9   7   6     2.553045250260   123.19782706     3.10234933
 S     10   9   7     3.187961059943   120.28315900   178.40922198
 N     10   9   7     2.631762575560   115.11113407   358.86764993
 C     12  10   9     2.637687128218   126.38825526   354.05129338
 C     13  12  10     2.974168535626   106.48845850   253.53192656
 C     14  13  12     2.681576073540   119.04980382   243.37396994
 C     15  14  13     2.685266075412   120.66582305   174.15771013
 C     16  15  14     2.638977672145   121.23442255   354.81146441
 C     17  16  15     2.660355725893   120.29844878   359.69427718
 O     18  17  16     2.525122435031   120.22799588   182.73608934
 C     14  13  12     2.678780305468   124.35713243    53.35400401
 H      1   2   3     2.072841824245   104.30229078    61.30691835
 H      1   2   3     2.072840670364   115.43373816   300.93398205
 H      1   2   3     2.072832014260   105.96021920   185.43767744
 H      2   1   3     2.072845488297   112.26719307   117.10260907
 H      2   1   3     2.072840630512   105.00372727   241.70402079
 H      8   7   6     2.072838156933   111.84804305    60.92498271
 H      8   7   6     2.072840549474   103.10281041   293.24092137
 H      8   7   6     2.072841627097   113.53480942   183.97401420
 H      9   7   6     1.914103484788   121.56680176   195.63335059
 H     12  10   9     1.914103695781   109.72416989   180.72665769
 H     13  12  10     2.072842054443   109.15102689   137.34440515
 H     15  14  13     2.052242461896   114.24938224   351.39086876
 H     16  15  14     2.052242585415   114.43968782   177.09333403
 H     17  16  15     2.052242861561   118.54829743   185.14000377
 H     19  18  17     1.838703805663   107.85956590    31.25244005
 H     20  14  13     2.052246141143   121.93042926     1.20593394

---------------------
BASIS SET INFORMATION
---------------------
There are 5 groups of distinct atoms

 Group   1 Type C   : 18s5p2d1f contracted to 4s3p2d1f pattern {8811/311/11/1}
 Group   2 Type O   : 18s5p2d1f contracted to 4s3p2d1f pattern {8811/311/11/1}
 Group   3 Type N   : 18s5p2d1f contracted to 4s3p2d1f pattern {8811/311/11/1}
 Group   4 Type S   : 41s16p2d1f contracted to 5s4p2d1f pattern {13131311/7711/11/1}
 Group   5 Type H   : 5s2p1d contracted to 3s2p1d pattern {311/11/1}

Atom   0C    basis set group =>   1
Atom   1C    basis set group =>   1
Atom   2O    basis set group =>   2
Atom   3C    basis set group =>   1
Atom   4O    basis set group =>   2
Atom   5C    basis set group =>   1
Atom   6C    basis set group =>   1
Atom   7C    basis set group =>   1
Atom   8N    basis set group =>   3
Atom   9C    basis set group =>   1
Atom  10S    basis set group =>   4
Atom  11N    basis set group =>   3
Atom  12C    basis set group =>   1
Atom  13C    basis set group =>   1
Atom  14C    basis set group =>   1
Atom  15C    basis set group =>   1
Atom  16C    basis set group =>   1
Atom  17C    basis set group =>   1
Atom  18O    basis set group =>   2
Atom  19C    basis set group =>   1
Atom  20H    basis set group =>   5
Atom  21H    basis set group =>   5
Atom  22H    basis set group =>   5
Atom  23H    basis set group =>   5
Atom  24H    basis set group =>   5
Atom  25H    basis set group =>   5
Atom  26H    basis set group =>   5
Atom  27H    basis set group =>   5
Atom  28H    basis set group =>   5
Atom  29H    basis set group =>   5
Atom  30H    basis set group =>   5
Atom  31H    basis set group =>   5
Atom  32H    basis set group =>   5
Atom  33H    basis set group =>   5
Atom  34H    basis set group =>   5
Atom  35H    basis set group =>   5
---------------------------------
AUXILIARY/C BASIS SET INFORMATION
---------------------------------
There are 5 groups of distinct atoms

 Group   1 Type C   : 8s6p5d3f1g contracted to 8s6p5d3f1g pattern {11111111/111111/11111/111/1}
 Group   2 Type O   : 8s6p5d3f1g contracted to 8s6p5d3f1g pattern {11111111/111111/11111/111/1}
 Group   3 Type N   : 8s6p5d3f1g contracted to 8s6p5d3f1g pattern {11111111/111111/11111/111/1}
 Group   4 Type S   : 10s8p7d5f2g contracted to 10s8p7d5f2g pattern {1111111111/11111111/1111111/11111/11}
 Group   5 Type H   : 4s3p2d1f contracted to 4s3p2d1f pattern {1111/111/11/1}

Atom   0C    basis set group =>   1
Atom   1C    basis set group =>   1
Atom   2O    basis set group =>   2
Atom   3C    basis set group =>   1
Atom   4O    basis set group =>   2
Atom   5C    basis set group =>   1
Atom   6C    basis set group =>   1
Atom   7C    basis set group =>   1
Atom   8N    basis set group =>   3
Atom   9C    basis set group =>   1
Atom  10S    basis set group =>   4
Atom  11N    basis set group =>   3
Atom  12C    basis set group =>   1
Atom  13C    basis set group =>   1
Atom  14C    basis set group =>   1
Atom  15C    basis set group =>   1
Atom  16C    basis set group =>   1
Atom  17C    basis set group =>   1
Atom  18O    basis set group =>   2
Atom  19C    basis set group =>   1
Atom  20H    basis set group =>   5
Atom  21H    basis set group =>   5
Atom  22H    basis set group =>   5
Atom  23H    basis set group =>   5
Atom  24H    basis set group =>   5
Atom  25H    basis set group =>   5
Atom  26H    basis set group =>   5
Atom  27H    basis set group =>   5
Atom  28H    basis set group =>   5
Atom  29H    basis set group =>   5
Atom  30H    basis set group =>   5
Atom  31H    basis set group =>   5
Atom  32H    basis set group =>   5
Atom  33H    basis set group =>   5
Atom  34H    basis set group =>   5
Atom  35H    basis set group =>   5
------------------------------------------------------------------------------
                           ORCA GTO INTEGRAL CALCULATION
------------------------------------------------------------------------------
------------------------------------------------------------------------------
                   ___                                                        
                  /   \      - P O W E R E D   B Y -                         
                 /     \                                                     
                 |  |  |   _    _      __       _____    __    __             
                 |  |  |  | |  | |    /  \     |  _  \  |  |  /  |          
                  \  \/   | |  | |   /    \    | | | |  |  | /  /          
                 / \  \   | |__| |  /  /\  \   | |_| |  |  |/  /          
                |  |  |   |  __  | /  /__\  \  |    /   |      \           
                |  |  |   | |  | | |   __   |  |    \   |  |\   \          
                \     /   | |  | | |  |  |  |  | |\  \  |  | \   \       
                 \___/    |_|  |_| |__|  |__|  |_| \__\ |__|  \__/        
                                                                              
                      - O R C A' S   B I G   F R I E N D -                    
                                      &                                       
                       - I N T E G R A L  F E E D E R -                       
                                                                              
 v1 FN, 2020, v2 2021                                                         
------------------------------------------------------------------------------


Reading SHARK input file qm_input.solv.SHARKINP.tmp ... ok
----------------------
SHARK INTEGRAL PACKAGE
----------------------

Number of atoms                             ...     36
Number of basis functions                   ...    828
Number of shells                            ...    298
Maximum angular momentum                    ...      3
Integral batch strategy                     ... SHARK/LIBINT Hybrid
RI-J (if used) integral strategy            ... SPLIT-RIJ (Revised 2003 algorithm where possible)
Printlevel                                  ...      1
Contraction scheme used                     ... SEGMENTED contraction
Coulomb Range Separation                    ... NOT USED
Exchange Range Separation                   ... NOT USED
Finite Nucleus Model                        ... NOT USED
Auxiliary Coulomb fitting basis             ... NOT available
Auxiliary J/K fitting basis                 ... NOT available
Auxiliary Correlation fitting basis         ... AVAILABLE
   # of basis functions in Aux-C            ...   2141
   # of shells in Aux-C                     ...    629
   Maximum angular momentum in Aux-C        ...      4
Auxiliary 'external' fitting basis          ... NOT available
Integral threshold                          ...     2.500000e-11
Primitive cut-off                           ...     2.500000e-12
Primitive pair pre-selection threshold      ...     2.500000e-12

Calculating pre-screening integrals         ... done (  0.6 sec) Dimension = 298
Organizing shell pair data                  ... done (  0.4 sec)
Shell pair information
Total number of shell pairs                 ...     44551
Shell pairs after pre-screening             ...     31856
Total number of primitive shell pairs       ...    234348
Primitive shell pairs kept                  ...     92558
          la=0 lb=0:   6373 shell pairs
          la=1 lb=0:   8875 shell pairs
          la=1 lb=1:   3130 shell pairs
          la=2 lb=0:   5065 shell pairs
          la=2 lb=1:   3485 shell pairs
          la=2 lb=2:    978 shell pairs
          la=3 lb=0:   1845 shell pairs
          la=3 lb=1:   1262 shell pairs
          la=3 lb=2:    701 shell pairs
          la=3 lb=3:    142 shell pairs

Reading point charge file                   ... ok (45306 point charges)
Calculating one electron integrals          ... done (228.3 sec)
Calculating RI/C V-Matrix + Cholesky decomp.... done (  0.4 sec)
Calculating Nuclear repulsion               ... (+Point charges) done (  0.0 sec) ENN=   1936.059016259455 Eh

SHARK setup successfully completed in 229.8 seconds

Maximum memory used throughout the entire GTOINT-calculation: 475.9 MB
ENUC WAS=  0.000000000
ENUC IS =  0.000000000
-------------------------------------------------------------------------------
                                 ORCA SCF
-------------------------------------------------------------------------------

------------
SCF SETTINGS
------------
Hamiltonian:
 Ab initio Hamiltonian  Method          .... Hartree-Fock(GTOs)


General Settings:
 Integral files         IntName         .... qm_input.solv
 Hartree-Fock type      HFTyp           .... RHF
 Total Charge           Charge          ....    0
 Multiplicity           Mult            ....    1
 Number of Electrons    NEL             ....  154
 Basis Dimension        Dim             ....  828
 Nuclear Repulsion      ENuc            ....   1936.0590162595 Eh

Convergence Acceleration:
 DIIS                   CNVDIIS         .... on
   Start iteration      DIISMaxIt       ....    12
   Startup error        DIISStart       ....  0.200000
   # of expansion vecs  DIISMaxEq       ....     5
   Bias factor          DIISBfac        ....   1.050
   Max. coefficient     DIISMaxC        ....  10.000
 Trust-Rad. Augm. Hess. CNVTRAH         .... auto
   Auto Start mean grad. ratio tolernc. ....  1.125000
   Auto Start start iteration           ....    20
   Auto Start num. interpolation iter.  ....    10
   Max. Number of Micro iterations      ....    16
   Max. Number of Macro iterations      .... Maxiter - #DIIS iter
   Number of Davidson start vectors     ....     2
   Converg. threshold I  (grad. norm)   ....   1.000e-05
   Converg. threshold II (energy diff.) ....   1.000e-08
   Grad. Scal. Fac. for Micro threshold ....   0.100
   Minimum threshold for Micro iter.    ....   0.010
   NR start threshold (gradient norm)   ....   0.001
   Initial trust radius                 ....   0.400
   Minimum AH scaling param. (alpha)    ....   1.000
   Maximum AH scaling param. (alpha)    .... 1000.000
   Orbital update algorithm             .... Taylor
   White noise on init. David. guess    .... on
   Maximum white noise                  ....   0.010
   Quad. conv. algorithm                .... NR
 SOSCF                  CNVSOSCF        .... on
   Start iteration      SOSCFMaxIt      ....   150
   Startup grad/error   SOSCFStart      ....  0.003300
 Level Shifting         CNVShift        .... on
   Level shift para.    LevelShift      ....    0.2500
   Turn off err/grad.   ShiftErr        ....    0.0010
 Zerner damping         CNVZerner       .... off
 Static damping         CNVDamp         .... on
   Fraction old density DampFac         ....    0.7000
   Max. Damping (<1)    DampMax         ....    0.9800
   Min. Damping (>=0)   DampMin         ....    0.0000
   Turn off err/grad.   DampErr         ....    0.1000
 Fernandez-Rico         CNVRico         .... off

SCF Procedure:
 Maximum # iterations   MaxIter         ....   125
 SCF integral mode      SCFMode         .... Direct
   Integral package                     .... SHARK and LIBINT hybrid scheme
 Reset frequency        DirectResetFreq ....    20
 Integral Threshold     Thresh          ....  2.500e-11 Eh
 Primitive CutOff       TCut            ....  2.500e-12 Eh

Convergence Tolerance:
 Convergence Check Mode ConvCheckMode   .... Total+1el-Energy
 Convergence forced     ConvForced      .... 1
 Energy Change          TolE            ....  1.000e-08 Eh
 1-El. energy change                    ....  1.000e-05 Eh
 Orbital Gradient       TolG            ....  1.000e-05
 Orbital Rotation angle TolX            ....  1.000e-05
 DIIS Error             TolErr          ....  5.000e-07


Diagonalization of the overlap matrix:
Smallest eigenvalue                        ... 4.392e-05
Time for diagonalization                   ...    0.129 sec
Threshold for overlap eigenvalues          ... 1.000e-08
Number of eigenvalues below threshold      ... 0
Time for construction of square roots      ...    0.119 sec
Total time needed                          ...    0.249 sec

Time for model grid setup =    1.379 sec

------------------------------
INITIAL GUESS: MODEL POTENTIAL
------------------------------
Loading Hartree-Fock densities                     ... done
Calculating cut-offs                               ... done
Initializing the effective Hamiltonian             ... done
Setting up the integral package (SHARK)            ... done
Starting the Coulomb interaction                   ... done (   4.0 sec)
Reading the grid                                   ... done
Mapping shells                                     ... done
Starting the XC term evaluation                    ... done (   1.4 sec)
Transforming the Hamiltonian                       ... done (   0.1 sec)
Diagonalizing the Hamiltonian                      ... done (   0.1 sec)
Back transforming the eigenvectors                 ... done (   0.0 sec)
Now organizing SCF variables                       ... done
                      ------------------
                      INITIAL GUESS DONE (   7.0 sec)
                      ------------------
--------------
SCF ITERATIONS
--------------
ITER       Energy         Delta-E        Max-DP      RMS-DP      [F,P]     Damp
               ***  Starting incremental Fock matrix formation  ***
  0  -1270.0454410955   0.000000000000 0.04789110  0.00048818  0.3625289 0.7000
  1  -1270.3363969025  -0.290955806947 0.03562590  0.00039709  0.2072578 0.7000
                               ***Turning on DIIS***
  2  -1270.5162662401  -0.179869337687 0.02588475  0.00026024  0.1107735 0.7000
  3  -1272.5728950698  -2.056628829687 0.06462954  0.00054740  0.0845361 0.0000
  4  -1270.8616507806   1.711244289233 0.00838949  0.00011462  0.0077906 0.0000
  5  -1270.9102393353  -0.048588554699 0.00534937  0.00006086  0.0046857 0.0000
                      *** Initiating the SOSCF procedure ***
                           *** Shutting down DIIS ***
                      *** Re-Reading the Fockian *** 
                      *** Removing any level shift *** 
ITER      Energy       Delta-E        Grad      Rot      Max-DP    RMS-DP
  6  -1270.88798104   0.0222582949  0.001769  0.001769  0.003039  0.000030
               *** Restarting incremental Fock matrix formation ***
  7  -1270.90565358  -0.0176725444  0.000863  0.002110  0.001897  0.000019
  8  -1270.90570951  -0.0000559223  0.000438  0.002592  0.001881  0.000019
  9  -1270.90572981  -0.0000203026  0.000167  0.000320  0.000615  0.000004
 10  -1270.90573226  -0.0000024506  0.000045  0.000130  0.000168  0.000001
 11  -1270.90573244  -0.0000001834  0.000026  0.000134  0.000073  0.000001
 12  -1270.90573250  -0.0000000580  0.000013  0.000047  0.000030  0.000000
                  ***Gradient check signals convergence***
              ***Rediagonalizing the Fockian in SOSCF/NRSCF***

               *****************************************************
               *                     SUCCESS                       *
               *           SCF CONVERGED AFTER  13 CYCLES          *
               *****************************************************


----------------
TOTAL SCF ENERGY
----------------

Total Energy       :        -1270.90573250 Eh          -34583.10315 eV

Components:
Nuclear Repulsion  :         1936.05901626 Eh           52682.84418 eV
Electronic Energy  :        -3206.96474876 Eh          -87265.94733 eV
One Electron Energy:        -5340.12772943 Eh         -145312.26305 eV
Two Electron Energy:         2133.16298067 Eh           58046.31572 eV

Virial components:
Potential Energy   :        -2539.82459954 Eh          -69112.14095 eV
Kinetic Energy     :         1268.91886704 Eh           34529.03779 eV
Virial Ratio       :            2.00156579


---------------
SCF CONVERGENCE
---------------

  Last Energy change         ...   -2.6148e-09  Tolerance :   1.0000e-08
  Last MAX-Density change    ...    1.2747e-05  Tolerance :   1.0000e-07
  Last RMS-Density change    ...    1.1810e-07  Tolerance :   5.0000e-09
  Last Orbital Gradient      ...    2.4675e-06  Tolerance :   1.0000e-05
  Last Orbital Rotation      ...    1.1348e-05  Tolerance :   1.0000e-05

             **** THE GBW FILE WAS UPDATED (qm_input.solv.gbw) ****
             **** DENSITY qm_input.solv.scfp WAS UPDATED ****
             **** ENERGY FILE WAS UPDATED (qm_input.solv.en.tmp) ****
             **** THE GBW FILE WAS UPDATED (qm_input.solv.gbw) ****
             **** DENSITY qm_input.solv.scfp WAS UPDATED ****
----------------
ORBITAL ENERGIES
----------------

  NO   OCC          E(Eh)            E(eV) 
   0   2.0000     -93.569796     -2546.1636 
   1   2.0000     -22.239624      -605.1709 
   2   2.0000     -22.233289      -604.9986 
   3   2.0000     -22.211470      -604.4048 
   4   2.0000     -17.275093      -470.0792 
   5   2.0000     -17.259231      -469.6475 
   6   2.0000     -13.057116      -355.3022 
   7   2.0000     -13.051895      -355.1601 
   8   2.0000     -12.976603      -353.1113 
   9   2.0000     -12.953865      -352.4926 
  10   2.0000     -12.946331      -352.2876 
  11   2.0000     -12.932367      -351.9076 
  12   2.0000     -12.898828      -350.9950 
  13   2.0000     -12.897515      -350.9592 
  14   2.0000     -12.887366      -350.6831 
  15   2.0000     -12.881151      -350.5139 
  16   2.0000     -12.875650      -350.3643 
  17   2.0000     -12.872943      -350.2906 
  18   2.0000     -12.872702      -350.2840 
  19   2.0000     -12.863144      -350.0239 
  20   2.0000     -10.575137      -287.7641 
  21   2.0000      -8.257019      -224.6849 
  22   2.0000      -8.255114      -224.6331 
  23   2.0000      -8.254728      -224.6226 
  24   2.0000      -3.089002       -84.0560 
  25   2.0000      -3.060342       -83.2761 
  26   2.0000      -3.000145       -81.6381 
  27   2.0000      -2.998829       -81.6023 
  28   2.0000      -2.895576       -78.7926 
  29   2.0000      -2.796174       -76.0878 
  30   2.0000      -2.772661       -75.4479 
  31   2.0000      -2.681311       -72.9622 
  32   2.0000      -2.668649       -72.6176 
  33   2.0000      -2.645568       -71.9896 
  34   2.0000      -2.638613       -71.8003 
  35   2.0000      -2.636302       -71.7374 
  36   2.0000      -2.566838       -69.8472 
  37   2.0000      -2.526916       -68.7609 
  38   2.0000      -2.491405       -67.7946 
  39   2.0000      -2.472842       -67.2894 
  40   2.0000      -2.468970       -67.1841 
  41   2.0000      -2.462420       -67.0059 
  42   2.0000      -2.400563       -65.3226 
  43   2.0000      -2.392056       -65.0911 
  44   2.0000      -2.370858       -64.5143 
  45   2.0000      -2.341005       -63.7020 
  46   2.0000      -2.330156       -63.4068 
  47   2.0000      -2.323607       -63.2286 
  48   2.0000      -2.315344       -63.0037 
  49   2.0000      -2.307042       -62.7778 
  50   2.0000      -2.301018       -62.6139 
  51   2.0000      -2.285061       -62.1797 
  52   2.0000      -2.283533       -62.1381 
  53   2.0000      -2.253775       -61.3283 
  54   2.0000      -2.248826       -61.1937 
  55   2.0000      -2.236129       -60.8482 
  56   2.0000      -2.230846       -60.7044 
  57   2.0000      -2.219289       -60.3899 
  58   2.0000      -2.207760       -60.0762 
  59   2.0000      -2.200679       -59.8835 
  60   2.0000      -2.195674       -59.7473 
  61   2.0000      -2.187015       -59.5117 
  62   2.0000      -2.176759       -59.2326 
  63   2.0000      -2.161388       -58.8143 
  64   2.0000      -2.159843       -58.7723 
  65   2.0000      -2.154691       -58.6321 
  66   2.0000      -2.135212       -58.1021 
  67   2.0000      -2.126362       -57.8613 
  68   2.0000      -2.123897       -57.7942 
  69   2.0000      -2.112159       -57.4748 
  70   2.0000      -2.100958       -57.1700 
  71   2.0000      -2.098930       -57.1148 
  72   2.0000      -2.013575       -54.7922 
  73   2.0000      -2.012283       -54.7570 
  74   2.0000      -1.993429       -54.2440 
  75   2.0000      -1.974251       -53.7221 
  76   2.0000      -1.956456       -53.2379 
  77   0.0000      -1.583309       -43.0840 
  78   0.0000      -1.525757       -41.5180 
  79   0.0000      -1.501674       -40.8626 
  80   0.0000      -1.501062       -40.8460 
  81   0.0000      -1.493578       -40.6423 
  82   0.0000      -1.476819       -40.1863 
  83   0.0000      -1.468637       -39.9636 
  84   0.0000      -1.466032       -39.8928 
  85   0.0000      -1.455042       -39.5937 
  86   0.0000      -1.448344       -39.4114 
  87   0.0000      -1.442724       -39.2585 
  88   0.0000      -1.436723       -39.0952 
  89   0.0000      -1.430591       -38.9284 
  90   0.0000      -1.424493       -38.7624 
  91   0.0000      -1.420298       -38.6483 
  92   0.0000      -1.413744       -38.4699 
  93   0.0000      -1.402851       -38.1735 
  94   0.0000      -1.394753       -37.9531 
  95   0.0000      -1.388904       -37.7940 
  96   0.0000      -1.382934       -37.6316 
  97   0.0000      -1.380079       -37.5539 
  98   0.0000      -1.377893       -37.4944 
  99   0.0000      -1.350374       -36.7455 
 100   0.0000      -1.340576       -36.4789 
 101   0.0000      -1.332388       -36.2561 
 102   0.0000      -1.325968       -36.0814 
 103   0.0000      -1.320635       -35.9363 
 104   0.0000      -1.310573       -35.6625 
 105   0.0000      -1.306577       -35.5538 
 106   0.0000      -1.299667       -35.3657 
 107   0.0000      -1.290744       -35.1229 
 108   0.0000      -1.281653       -34.8755 
 109   0.0000      -1.269860       -34.5546 
 110   0.0000      -1.257931       -34.2300 
 111   0.0000      -1.254245       -34.1297 
 112   0.0000      -1.247150       -33.9367 
 113   0.0000      -1.242945       -33.8223 
 114   0.0000      -1.239282       -33.7226 
 115   0.0000      -1.230200       -33.4755 
 116   0.0000      -1.227428       -33.4000 
 117   0.0000      -1.224345       -33.3161 
 118   0.0000      -1.216999       -33.1162 
 119   0.0000      -1.209533       -32.9131 
 120   0.0000      -1.201147       -32.6849 
 121   0.0000      -1.195923       -32.5427 
 122   0.0000      -1.190794       -32.4032 
 123   0.0000      -1.184539       -32.2329 
 124   0.0000      -1.179292       -32.0902 
 125   0.0000      -1.175676       -31.9918 
 126   0.0000      -1.164682       -31.6926 
 127   0.0000      -1.158925       -31.5360 
 128   0.0000      -1.153335       -31.3838 
 129   0.0000      -1.151164       -31.3248 
 130   0.0000      -1.143376       -31.1128 
 131   0.0000      -1.138672       -30.9848 
 132   0.0000      -1.137424       -30.9509 
 133   0.0000      -1.128698       -30.7134 
 134   0.0000      -1.120862       -30.5002 
 135   0.0000      -1.112462       -30.2716 
 136   0.0000      -1.109286       -30.1852 
 137   0.0000      -1.103370       -30.0242 
 138   0.0000      -1.095821       -29.8188 
 139   0.0000      -1.094635       -29.7865 
 140   0.0000      -1.086826       -29.5740 
 141   0.0000      -1.079735       -29.3811 
 142   0.0000      -1.073712       -29.2172 
 143   0.0000      -1.065130       -28.9837 
 144   0.0000      -1.059403       -28.8278 
 145   0.0000      -1.057263       -28.7696 
 146   0.0000      -1.054572       -28.6964 
 147   0.0000      -1.049372       -28.5549 
 148   0.0000      -1.043885       -28.4055 
 149   0.0000      -1.040060       -28.3015 
 150   0.0000      -1.034177       -28.1414 
 151   0.0000      -1.030016       -28.0282 
 152   0.0000      -1.027406       -27.9571 
 153   0.0000      -1.022557       -27.8252 
 154   0.0000      -1.015221       -27.6256 
 155   0.0000      -1.013455       -27.5775 
 156   0.0000      -1.007846       -27.4249 
 157   0.0000      -1.004830       -27.3428 
 158   0.0000      -1.000453       -27.2237 
 159   0.0000      -0.996662       -27.1206 
 160   0.0000      -0.989499       -26.9256 
 161   0.0000      -0.982959       -26.7477 
 162   0.0000      -0.979667       -26.6581 
 163   0.0000      -0.976211       -26.5641 
 164   0.0000      -0.972720       -26.4691 
 165   0.0000      -0.965675       -26.2774 
 166   0.0000      -0.960693       -26.1418 
 167   0.0000      -0.957228       -26.0475 
 168   0.0000      -0.955750       -26.0073 
 169   0.0000      -0.952359       -25.9150 
 170   0.0000      -0.941278       -25.6135 
 171   0.0000      -0.934138       -25.4192 
 172   0.0000      -0.931471       -25.3466 
 173   0.0000      -0.925439       -25.1825 
 174   0.0000      -0.916319       -24.9343 
 175   0.0000      -0.913147       -24.8480 
 176   0.0000      -0.904844       -24.6220 
 177   0.0000      -0.900041       -24.4914 
 178   0.0000      -0.896572       -24.3970 
 179   0.0000      -0.883853       -24.0509 
 180   0.0000      -0.878823       -23.9140 
 181   0.0000      -0.874752       -23.8032 
 182   0.0000      -0.868323       -23.6283 
 183   0.0000      -0.856699       -23.3120 
 184   0.0000      -0.850392       -23.1403 
 185   0.0000      -0.842155       -22.9162 
 186   0.0000      -0.830306       -22.5938 
 187   0.0000      -0.827402       -22.5147 
 188   0.0000      -0.817398       -22.2425 
 189   0.0000      -0.805037       -21.9062 
 190   0.0000      -0.801874       -21.8201 
 191   0.0000      -0.789378       -21.4801 
 192   0.0000      -0.787245       -21.4220 
 193   0.0000      -0.772631       -21.0244 
 194   0.0000      -0.771360       -20.9898 
 195   0.0000      -0.762878       -20.7590 
 196   0.0000      -0.749676       -20.3997 
 197   0.0000      -0.744303       -20.2535 
 198   0.0000      -0.741181       -20.1685 
 199   0.0000      -0.735875       -20.0242 
 200   0.0000      -0.728641       -19.8273 
 201   0.0000      -0.722415       -19.6579 
 202   0.0000      -0.717566       -19.5260 
 203   0.0000      -0.706416       -19.2226 
 204   0.0000      -0.702426       -19.1140 
 205   0.0000      -0.692850       -18.8534 
 206   0.0000      -0.690106       -18.7787 
 207   0.0000      -0.678736       -18.4693 
 208   0.0000      -0.666225       -18.1289 
 209   0.0000      -0.664353       -18.0780 
 210   0.0000      -0.658519       -17.9192 
 211   0.0000      -0.652695       -17.7607 
 212   0.0000      -0.646597       -17.5948 
 213   0.0000      -0.638316       -17.3695 
 214   0.0000      -0.634597       -17.2683 
 215   0.0000      -0.628759       -17.1094 
 216   0.0000      -0.622013       -16.9258 
 217   0.0000      -0.613491       -16.6939 
 218   0.0000      -0.597800       -16.2670 
 219   0.0000      -0.590797       -16.0764 
 220   0.0000      -0.583808       -15.8862 
 221   0.0000      -0.574326       -15.6282 
 222   0.0000      -0.568209       -15.4617 
 223   0.0000      -0.563333       -15.3291 
 224   0.0000      -0.555605       -15.1188 
 225   0.0000      -0.551043       -14.9946 
 226   0.0000      -0.543641       -14.7932 
 227   0.0000      -0.535753       -14.5786 
 228   0.0000      -0.532989       -14.5034 
 229   0.0000      -0.519403       -14.1337 
 230   0.0000      -0.512563       -13.9476 
 231   0.0000      -0.505819       -13.7640 
 232   0.0000      -0.499879       -13.6024 
 233   0.0000      -0.490725       -13.3533 
 234   0.0000      -0.477833       -13.0025 
 235   0.0000      -0.476477       -12.9656 
 236   0.0000      -0.466336       -12.6896 
 237   0.0000      -0.460191       -12.5224 
 238   0.0000      -0.458372       -12.4729 
 239   0.0000      -0.454675       -12.3723 
 240   0.0000      -0.440451       -11.9853 
 241   0.0000      -0.438104       -11.9214 
 242   0.0000      -0.429463       -11.6863 
 243   0.0000      -0.427319       -11.6279 
 244   0.0000      -0.421101       -11.4587 
 245   0.0000      -0.414252       -11.2724 
 246   0.0000      -0.404253       -11.0003 
 247   0.0000      -0.400139       -10.8883 
 248   0.0000      -0.394209       -10.7270 
 249   0.0000      -0.383622       -10.4389 
 250   0.0000      -0.377645       -10.2762 
 251   0.0000      -0.366592        -9.9755 
 252   0.0000      -0.362692        -9.8693 
 253   0.0000      -0.354087        -9.6352 
 254   0.0000      -0.349483        -9.5099 
 255   0.0000      -0.344676        -9.3791 
 256   0.0000      -0.339543        -9.2394 
 257   0.0000      -0.317161        -8.6304 
 258   0.0000      -0.314679        -8.5628 
 259   0.0000      -0.311325        -8.4716 
 260   0.0000      -0.306396        -8.3375 
 261   0.0000      -0.298532        -8.1235 
 262   0.0000      -0.288338        -7.8461 
 263   0.0000      -0.274970        -7.4823 
 264   0.0000      -0.263918        -7.1816 
 265   0.0000      -0.258097        -7.0232 
 266   0.0000      -0.252340        -6.8665 
 267   0.0000      -0.239927        -6.5287 
 268   0.0000      -0.225287        -6.1304 
 269   0.0000      -0.224823        -6.1177 
 270   0.0000      -0.219902        -5.9838 
 271   0.0000      -0.206942        -5.6312 
 272   0.0000      -0.201035        -5.4704 
 273   0.0000      -0.195933        -5.3316 
 274   0.0000      -0.177838        -4.8392 
 275   0.0000      -0.169508        -4.6125 
 276   0.0000      -0.161183        -4.3860 
 277   0.0000      -0.155543        -4.2325 
 278   0.0000      -0.154177        -4.1954 
 279   0.0000      -0.141439        -3.8487 
 280   0.0000      -0.138110        -3.7582 
 281   0.0000      -0.128083        -3.4853 
 282   0.0000      -0.121155        -3.2968 
 283   0.0000      -0.116994        -3.1836 
 284   0.0000      -0.115587        -3.1453 
 285   0.0000      -0.108406        -2.9499 
 286   0.0000      -0.099825        -2.7164 
 287   0.0000      -0.095690        -2.6039 
 288   0.0000      -0.088871        -2.4183 
 289   0.0000      -0.086171        -2.3448 
 290   0.0000      -0.075684        -2.0595 
 291   0.0000      -0.071831        -1.9546 
 292   0.0000      -0.057866        -1.5746 
 293   0.0000      -0.049736        -1.3534 
 294   0.0000      -0.045238        -1.2310 
 295   0.0000      -0.042656        -1.1607 
 296   0.0000      -0.033560        -0.9132 
 297   0.0000      -0.027659        -0.7526 
 298   0.0000      -0.022628        -0.6157 
 299   0.0000      -0.011816        -0.3215 
 300   0.0000      -0.003130        -0.0852 
 301   0.0000       0.001603         0.0436 
 302   0.0000       0.007104         0.1933 
 303   0.0000       0.012626         0.3436 
 304   0.0000       0.025332         0.6893 
 305   0.0000       0.029769         0.8101 
 306   0.0000       0.040314         1.0970 
 307   0.0000       0.044321         1.2060 
 308   0.0000       0.053884         1.4663 
 309   0.0000       0.055661         1.5146 
 310   0.0000       0.073760         2.0071 
 311   0.0000       0.074807         2.0356 
 312   0.0000       0.077588         2.1113 
 313   0.0000       0.092234         2.5098 
 314   0.0000       0.098036         2.6677 
 315   0.0000       0.113595         3.0911 
 316   0.0000       0.119628         3.2552 
 317   0.0000       0.121729         3.3124 
 318   0.0000       0.141489         3.8501 
 319   0.0000       0.157651         4.2899 
 320   0.0000       0.175342         4.7713 
 321   0.0000       0.180076         4.9001 
 322   0.0000       0.192259         5.2316 
 323   0.0000       0.195984         5.3330 
 324   0.0000       0.214374         5.8334 
 325   0.0000       0.224621         6.1122 
 326   0.0000       0.226702         6.1689 
 327   0.0000       0.248225         6.7546 
 328   0.0000       0.253406         6.8955 
 329   0.0000       0.261255         7.1091 
 330   0.0000       0.271005         7.3744 
 331   0.0000       0.280789         7.6407 
 332   0.0000       0.296448         8.0668 
 333   0.0000       0.301352         8.2002 
 334   0.0000       0.306393         8.3374 
 335   0.0000       0.321522         8.7491 
 336   0.0000       0.325696         8.8626 
 337   0.0000       0.333760         9.0821 
 338   0.0000       0.339344         9.2340 
 339   0.0000       0.345631         9.4051 
 340   0.0000       0.355740         9.6802 
 341   0.0000       0.362641         9.8680 
 342   0.0000       0.378531        10.3004 
 343   0.0000       0.412106        11.2140 
 344   0.0000       0.420672        11.4471 
 345   0.0000       0.427360        11.6291 
 346   0.0000       0.452236        12.3060 
 347   0.0000       0.471314        12.8251 
 348   0.0000       0.486549        13.2397 
 349   0.0000       0.504382        13.7249 
 350   0.0000       0.516352        14.0506 
 351   0.0000       0.542772        14.7696 
 352   0.0000       0.561064        15.2673 
 353   0.0000       0.575881        15.6705 
 354   0.0000       0.598281        16.2801 
 355   0.0000       0.604700        16.4547 
 356   0.0000       0.613036        16.6816 
 357   0.0000       0.616608        16.7788 
 358   0.0000       0.631821        17.1927 
 359   0.0000       0.646095        17.5811 
 360   0.0000       0.654400        17.8071 
 361   0.0000       0.670801        18.2534 
 362   0.0000       0.686507        18.6808 
 363   0.0000       0.691161        18.8074 
 364   0.0000       0.712072        19.3765 
 365   0.0000       0.718854        19.5610 
 366   0.0000       0.732228        19.9249 
 367   0.0000       0.754658        20.5353 
 368   0.0000       0.760037        20.6816 
 369   0.0000       0.784333        21.3428 
 370   0.0000       0.793363        21.5885 
 371   0.0000       0.810221        22.0472 
 372   0.0000       0.814247        22.1568 
 373   0.0000       0.829059        22.5598 
 374   0.0000       0.849087        23.1048 
 375   0.0000       0.854226        23.2447 
 376   0.0000       0.867387        23.6028 
 377   0.0000       0.874892        23.8070 
 378   0.0000       0.897500        24.4222 
 379   0.0000       0.900871        24.5139 
 380   0.0000       0.931513        25.3478 
 381   0.0000       0.940094        25.5813 
 382   0.0000       0.945397        25.7255 
 383   0.0000       0.960961        26.1491 
 384   0.0000       0.966462        26.2988 
 385   0.0000       0.980134        26.6708 
 386   0.0000       0.991933        26.9919 
 387   0.0000       0.993648        27.0385 
 388   0.0000       1.006736        27.3947 
 389   0.0000       1.027095        27.9487 
 390   0.0000       1.036360        28.2008 
 391   0.0000       1.050547        28.5868 
 392   0.0000       1.059227        28.8230 
 393   0.0000       1.062444        28.9106 
 394   0.0000       1.078591        29.3500 
 395   0.0000       1.080757        29.4089 
 396   0.0000       1.091130        29.6912 
 397   0.0000       1.096556        29.8388 
 398   0.0000       1.112609        30.2756 
 399   0.0000       1.122441        30.5432 
 400   0.0000       1.133671        30.8487 
 401   0.0000       1.144835        31.1525 
 402   0.0000       1.149892        31.2901 
 403   0.0000       1.157767        31.5044 
 404   0.0000       1.169703        31.8292 
 405   0.0000       1.179462        32.0948 
 406   0.0000       1.187248        32.3067 
 407   0.0000       1.198551        32.6142 
 408   0.0000       1.213323        33.0162 
 409   0.0000       1.217047        33.1175 
 410   0.0000       1.226514        33.3752 
 411   0.0000       1.235508        33.6199 
 412   0.0000       1.242814        33.8187 
 413   0.0000       1.256315        34.1861 
 414   0.0000       1.264202        34.4007 
 415   0.0000       1.265741        34.4426 
 416   0.0000       1.279249        34.8101 
 417   0.0000       1.289035        35.0764 
 418   0.0000       1.301927        35.4272 
 419   0.0000       1.311701        35.6932 
 420   0.0000       1.324804        36.0497 
 421   0.0000       1.331983        36.2451 
 422   0.0000       1.334226        36.3061 
 423   0.0000       1.342195        36.5230 
 424   0.0000       1.362913        37.0867 
 425   0.0000       1.370081        37.2818 
 426   0.0000       1.377241        37.4766 
 427   0.0000       1.389563        37.8119 
 428   0.0000       1.396682        38.0057 
 429   0.0000       1.403054        38.1790 
 430   0.0000       1.410800        38.3898 
 431   0.0000       1.414153        38.4810 
 432   0.0000       1.422536        38.7092 
 433   0.0000       1.432144        38.9706 
 434   0.0000       1.437037        39.1038 
 435   0.0000       1.444919        39.3182 
 436   0.0000       1.450690        39.4753 
 437   0.0000       1.454927        39.5906 
 438   0.0000       1.462411        39.7942 
 439   0.0000       1.471770        40.0489 
 440   0.0000       1.473866        40.1059 
 441   0.0000       1.476722        40.1836 
 442   0.0000       1.492194        40.6047 
 443   0.0000       1.498202        40.7681 
 444   0.0000       1.517450        41.2919 
 445   0.0000       1.524664        41.4882 
 446   0.0000       1.529773        41.6272 
 447   0.0000       1.537000        41.8239 
 448   0.0000       1.544352        42.0239 
 449   0.0000       1.550929        42.2029 
 450   0.0000       1.555618        42.3305 
 451   0.0000       1.561488        42.4902 
 452   0.0000       1.566665        42.6311 
 453   0.0000       1.582669        43.0666 
 454   0.0000       1.586944        43.1829 
 455   0.0000       1.593596        43.3640 
 456   0.0000       1.603975        43.6464 
 457   0.0000       1.606814        43.7236 
 458   0.0000       1.619303        44.0635 
 459   0.0000       1.625231        44.2248 
 460   0.0000       1.627323        44.2817 
 461   0.0000       1.637548        44.5599 
 462   0.0000       1.644632        44.7527 
 463   0.0000       1.653529        44.9948 
 464   0.0000       1.658393        45.1272 
 465   0.0000       1.661065        45.1999 
 466   0.0000       1.665157        45.3112 
 467   0.0000       1.673927        45.5499 
 468   0.0000       1.685245        45.8579 
 469   0.0000       1.694407        46.1072 
 470   0.0000       1.698555        46.2200 
 471   0.0000       1.706259        46.4297 
 472   0.0000       1.708030        46.4779 
 473   0.0000       1.712126        46.5893 
 474   0.0000       1.723307        46.8936 
 475   0.0000       1.727177        46.9989 
 476   0.0000       1.732937        47.1556 
 477   0.0000       1.739331        47.3296 
 478   0.0000       1.748281        47.5731 
 479   0.0000       1.751569        47.6626 
 480   0.0000       1.753584        47.7175 
 481   0.0000       1.757843        47.8333 
 482   0.0000       1.765678        48.0465 
 483   0.0000       1.770236        48.1706 
 484   0.0000       1.773466        48.2585 
 485   0.0000       1.781932        48.4888 
 486   0.0000       1.786931        48.6249 
 487   0.0000       1.788912        48.6788 
 488   0.0000       1.794486        48.8304 
 489   0.0000       1.800966        49.0068 
 490   0.0000       1.808268        49.2055 
 491   0.0000       1.817216        49.4490 
 492   0.0000       1.818566        49.4857 
 493   0.0000       1.822403        49.5901 
 494   0.0000       1.831451        49.8363 
 495   0.0000       1.837044        49.9885 
 496   0.0000       1.843087        50.1529 
 497   0.0000       1.848737        50.3067 
 498   0.0000       1.862948        50.6934 
 499   0.0000       1.867654        50.8215 
 500   0.0000       1.873666        50.9850 
 501   0.0000       1.876945        51.0743 
 502   0.0000       1.883908        51.2637 
 503   0.0000       1.891275        51.4642 
 504   0.0000       1.904641        51.8279 
 505   0.0000       1.908740        51.9395 
 506   0.0000       1.915543        52.1246 
 507   0.0000       1.922033        52.3012 
 508   0.0000       1.926609        52.4257 
 509   0.0000       1.933639        52.6170 
 510   0.0000       1.945651        52.9439 
 511   0.0000       1.954768        53.1919 
 512   0.0000       1.958433        53.2917 
 513   0.0000       1.960579        53.3501 
 514   0.0000       1.967613        53.5415 
 515   0.0000       1.975860        53.7659 
 516   0.0000       1.982132        53.9366 
 517   0.0000       1.984093        53.9899 
 518   0.0000       1.993382        54.2427 
 519   0.0000       2.001216        54.4559 
 520   0.0000       2.007256        54.6202 
 521   0.0000       2.013440        54.7885 
 522   0.0000       2.022789        55.0429 
 523   0.0000       2.025386        55.1136 
 524   0.0000       2.035850        55.3983 
 525   0.0000       2.039086        55.4864 
 526   0.0000       2.046311        55.6829 
 527   0.0000       2.047777        55.7228 
 528   0.0000       2.051320        55.8193 
 529   0.0000       2.062944        56.1356 
 530   0.0000       2.069307        56.3087 
 531   0.0000       2.078155        56.5495 
 532   0.0000       2.085036        56.7367 
 533   0.0000       2.093800        56.9752 
 534   0.0000       2.098423        57.1010 
 535   0.0000       2.104622        57.2697 
 536   0.0000       2.108826        57.3841 
 537   0.0000       2.116951        57.6052 
 538   0.0000       2.127637        57.8959 
 539   0.0000       2.130619        57.9771 
 540   0.0000       2.140864        58.2559 
 541   0.0000       2.143577        58.3297 
 542   0.0000       2.152671        58.5772 
 543   0.0000       2.158297        58.7303 
 544   0.0000       2.172902        59.1277 
 545   0.0000       2.178587        59.2824 
 546   0.0000       2.187064        59.5130 
 547   0.0000       2.193348        59.6840 
 548   0.0000       2.196432        59.7679 
 549   0.0000       2.209795        60.1316 
 550   0.0000       2.211633        60.1816 
 551   0.0000       2.222234        60.4701 
 552   0.0000       2.227252        60.6066 
 553   0.0000       2.229686        60.6728 
 554   0.0000       2.238153        60.9032 
 555   0.0000       2.245552        61.1046 
 556   0.0000       2.251695        61.2717 
 557   0.0000       2.258521        61.4575 
 558   0.0000       2.274765        61.8995 
 559   0.0000       2.287695        62.2513 
 560   0.0000       2.296762        62.4981 
 561   0.0000       2.307915        62.8016 
 562   0.0000       2.328581        63.3639 
 563   0.0000       2.334280        63.5190 
 564   0.0000       2.339936        63.6729 
 565   0.0000       2.356932        64.1354 
 566   0.0000       2.364898        64.3522 
 567   0.0000       2.369824        64.4862 
 568   0.0000       2.382529        64.8319 
 569   0.0000       2.386150        64.9304 
 570   0.0000       2.394708        65.1633 
 571   0.0000       2.397068        65.2275 
 572   0.0000       2.416012        65.7430 
 573   0.0000       2.420433        65.8633 
 574   0.0000       2.429286        66.1042 
 575   0.0000       2.432200        66.1835 
 576   0.0000       2.438506        66.3551 
 577   0.0000       2.443287        66.4852 
 578   0.0000       2.463776        67.0428 
 579   0.0000       2.471488        67.2526 
 580   0.0000       2.472369        67.2766 
 581   0.0000       2.478761        67.4505 
 582   0.0000       2.485357        67.6300 
 583   0.0000       2.494430        67.8769 
 584   0.0000       2.507318        68.2276 
 585   0.0000       2.514517        68.4235 
 586   0.0000       2.524078        68.6837 
 587   0.0000       2.527738        68.7833 
 588   0.0000       2.531915        68.8969 
 589   0.0000       2.549300        69.3700 
 590   0.0000       2.551038        69.4173 
 591   0.0000       2.555749        69.5455 
 592   0.0000       2.565756        69.8178 
 593   0.0000       2.570597        69.9495 
 594   0.0000       2.574935        70.0675 
 595   0.0000       2.586677        70.3871 
 596   0.0000       2.588563        70.4384 
 597   0.0000       2.597148        70.6720 
 598   0.0000       2.611574        71.0645 
 599   0.0000       2.613007        71.1035 
 600   0.0000       2.615287        71.1656 
 601   0.0000       2.624120        71.4059 
 602   0.0000       2.639422        71.8223 
 603   0.0000       2.649130        72.0865 
 604   0.0000       2.655920        72.2713 
 605   0.0000       2.663267        72.4712 
 606   0.0000       2.669872        72.6509 
 607   0.0000       2.672609        72.7254 
 608   0.0000       2.677160        72.8492 
 609   0.0000       2.691209        73.2315 
 610   0.0000       2.693855        73.3035 
 611   0.0000       2.697163        73.3935 
 612   0.0000       2.706882        73.6580 
 613   0.0000       2.714407        73.8628 
 614   0.0000       2.716896        73.9305 
 615   0.0000       2.724959        74.1499 
 616   0.0000       2.742723        74.6333 
 617   0.0000       2.756098        74.9972 
 618   0.0000       2.757595        75.0380 
 619   0.0000       2.770069        75.3774 
 620   0.0000       2.775881        75.5356 
 621   0.0000       2.777463        75.5786 
 622   0.0000       2.782954        75.7280 
 623   0.0000       2.790656        75.9376 
 624   0.0000       2.803064        76.2752 
 625   0.0000       2.804980        76.3274 
 626   0.0000       2.816235        76.6337 
 627   0.0000       2.820889        76.7603 
 628   0.0000       2.824648        76.8626 
 629   0.0000       2.835940        77.1699 
 630   0.0000       2.845051        77.4178 
 631   0.0000       2.853297        77.6422 
 632   0.0000       2.863018        77.9067 
 633   0.0000       2.876493        78.2734 
 634   0.0000       2.882372        78.4333 
 635   0.0000       2.885223        78.5109 
 636   0.0000       2.901153        78.9444 
 637   0.0000       2.917813        79.3977 
 638   0.0000       2.930102        79.7321 
 639   0.0000       2.934133        79.8418 
 640   0.0000       2.939237        79.9807 
 641   0.0000       2.949330        80.2554 
 642   0.0000       2.961497        80.5864 
 643   0.0000       2.965318        80.6904 
 644   0.0000       2.971532        80.8595 
 645   0.0000       2.980322        81.0987 
 646   0.0000       2.990531        81.3765 
 647   0.0000       2.994762        81.4916 
 648   0.0000       3.011298        81.9416 
 649   0.0000       3.015686        82.0610 
 650   0.0000       3.024011        82.2875 
 651   0.0000       3.033126        82.5356 
 652   0.0000       3.036811        82.6358 
 653   0.0000       3.045092        82.8612 
 654   0.0000       3.048925        82.9655 
 655   0.0000       3.058554        83.2275 
 656   0.0000       3.070720        83.5585 
 657   0.0000       3.088172        84.0334 
 658   0.0000       3.091794        84.1320 
 659   0.0000       3.113718        84.7286 
 660   0.0000       3.125817        85.0578 
 661   0.0000       3.136775        85.3560 
 662   0.0000       3.169048        86.2342 
 663   0.0000       3.175290        86.4040 
 664   0.0000       3.201709        87.1229 
 665   0.0000       3.203086        87.1604 
 666   0.0000       3.215189        87.4897 
 667   0.0000       3.224139        87.7333 
 668   0.0000       3.233881        87.9984 
 669   0.0000       3.241469        88.2049 
 670   0.0000       3.268223        88.9329 
 671   0.0000       3.281669        89.2987 
 672   0.0000       3.312715        90.1436 
 673   0.0000       3.325450        90.4901 
 674   0.0000       3.339240        90.8654 
 675   0.0000       3.347359        91.0863 
 676   0.0000       3.368524        91.6622 
 677   0.0000       3.384326        92.0922 
 678   0.0000       3.389153        92.2235 
 679   0.0000       3.395555        92.3977 
 680   0.0000       3.424533        93.1863 
 681   0.0000       3.435020        93.4716 
 682   0.0000       3.443647        93.7064 
 683   0.0000       3.458902        94.1215 
 684   0.0000       3.463995        94.2601 
 685   0.0000       3.472110        94.4809 
 686   0.0000       3.485588        94.8477 
 687   0.0000       3.494320        95.0853 
 688   0.0000       3.499232        95.2189 
 689   0.0000       3.512552        95.5814 
 690   0.0000       3.522782        95.8598 
 691   0.0000       3.523916        95.8906 
 692   0.0000       3.542868        96.4063 
 693   0.0000       3.544482        96.4503 
 694   0.0000       3.553560        96.6973 
 695   0.0000       3.565786        97.0300 
 696   0.0000       3.582336        97.4803 
 697   0.0000       3.598171        97.9112 
 698   0.0000       3.627582        98.7115 
 699   0.0000       3.632120        98.8350 
 700   0.0000       3.645227        99.1917 
 701   0.0000       3.661371        99.6310 
 702   0.0000       3.679622       100.1276 
 703   0.0000       3.682203       100.1979 
 704   0.0000       3.703090       100.7662 
 705   0.0000       3.715371       101.1004 
 706   0.0000       3.716122       101.1208 
 707   0.0000       3.735528       101.6489 
 708   0.0000       3.739518       101.7574 
 709   0.0000       3.766961       102.5042 
 710   0.0000       3.768601       102.5489 
 711   0.0000       3.783701       102.9597 
 712   0.0000       3.801901       103.4550 
 713   0.0000       3.815485       103.8246 
 714   0.0000       3.837945       104.4358 
 715   0.0000       3.841280       104.5265 
 716   0.0000       3.861847       105.0862 
 717   0.0000       3.871734       105.3552 
 718   0.0000       3.879491       105.5663 
 719   0.0000       3.884079       105.6912 
 720   0.0000       3.898327       106.0789 
 721   0.0000       3.916444       106.5719 
 722   0.0000       3.924278       106.7850 
 723   0.0000       3.946446       107.3883 
 724   0.0000       3.962352       107.8211 
 725   0.0000       3.972618       108.1004 
 726   0.0000       3.977789       108.2411 
 727   0.0000       3.997531       108.7783 
 728   0.0000       4.002399       108.9108 
 729   0.0000       4.007563       109.0513 
 730   0.0000       4.012103       109.1749 
 731   0.0000       4.031875       109.7129 
 732   0.0000       4.051901       110.2578 
 733   0.0000       4.059286       110.4588 
 734   0.0000       4.062077       110.5347 
 735   0.0000       4.070422       110.7618 
 736   0.0000       4.085802       111.1803 
 737   0.0000       4.092870       111.3727 
 738   0.0000       4.104259       111.6826 
 739   0.0000       4.117333       112.0383 
 740   0.0000       4.135101       112.5218 
 741   0.0000       4.150541       112.9420 
 742   0.0000       4.161221       113.2326 
 743   0.0000       4.167407       113.4009 
 744   0.0000       4.177040       113.6630 
 745   0.0000       4.192363       114.0800 
 746   0.0000       4.220650       114.8497 
 747   0.0000       4.228517       115.0638 
 748   0.0000       4.248149       115.5980 
 749   0.0000       4.260889       115.9447 
 750   0.0000       4.287625       116.6722 
 751   0.0000       4.325495       117.7027 
 752   0.0000       4.341984       118.1514 
 753   0.0000       4.392856       119.5357 
 754   0.0000       4.398496       119.6892 
 755   0.0000       4.409392       119.9857 
 756   0.0000       4.413194       120.0891 
 757   0.0000       4.416351       120.1750 
 758   0.0000       4.460525       121.3771 
 759   0.0000       4.466767       121.5469 
 760   0.0000       4.495648       122.3328 
 761   0.0000       4.509494       122.7096 
 762   0.0000       4.545038       123.6768 
 763   0.0000       4.548256       123.7643 
 764   0.0000       4.559217       124.0626 
 765   0.0000       4.572317       124.4191 
 766   0.0000       4.636491       126.1653 
 767   0.0000       4.639563       126.2489 
 768   0.0000       4.658959       126.7767 
 769   0.0000       4.675486       127.2264 
 770   0.0000       4.695706       127.7767 
 771   0.0000       4.762947       129.6064 
 772   0.0000       4.770683       129.8169 
 773   0.0000       4.787712       130.2803 
 774   0.0000       4.810615       130.9035 
 775   0.0000       4.816977       131.0766 
 776   0.0000       4.839518       131.6900 
 777   0.0000       4.906913       133.5239 
 778   0.0000       4.929411       134.1361 
 779   0.0000       4.967162       135.1634 
 780   0.0000       4.993795       135.8881 
 781   0.0000       5.020981       136.6278 
 782   0.0000       5.061906       137.7415 
 783   0.0000       5.101922       138.8304 
 784   0.0000       5.140393       139.8772 
 785   0.0000       5.196906       141.4150 
 786   0.0000       5.259463       143.1173 
 787   0.0000       5.284141       143.7888 
 788   0.0000       5.315535       144.6431 
 789   0.0000       5.344321       145.4264 
 790   0.0000       5.362119       145.9107 
 791   0.0000       5.457332       148.5015 
 792   0.0000       5.487972       149.3353 
 793   0.0000       5.510842       149.9576 
 794   0.0000       5.558790       151.2624 
 795   0.0000       5.584485       151.9616 
 796   0.0000       5.625787       153.0855 
 797   0.0000       5.640104       153.4750 
 798   0.0000       5.683493       154.6557 
 799   0.0000       5.730708       155.9405 
 800   0.0000       5.752980       156.5465 
 801   0.0000       5.819840       158.3659 
 802   0.0000       5.907967       160.7640 
 803   0.0000       5.917065       161.0115 
 804   0.0000       6.009844       163.5362 
 805   0.0000       6.158502       167.5814 
 806   0.0000       6.183958       168.2741 
 807   0.0000       6.313197       171.7908 
 808   0.0000       6.322723       172.0500 
 809   0.0000       7.692829       209.3325 
 810   0.0000       8.288365       225.5379 
 811   0.0000       9.270016       252.2500 
 812   0.0000       9.841385       267.7977 
 813   0.0000      10.075108       274.1576 
 814   0.0000      10.564440       287.4730 
 815   0.0000      11.188450       304.4532 
 816   0.0000      11.237267       305.7816 
 817   0.0000      11.523714       313.5762 
 818   0.0000      11.534411       313.8673 
 819   0.0000      11.664970       317.4200 
 820   0.0000      11.913134       324.1729 
 821   0.0000      12.044404       327.7449 
 822   0.0000      12.078149       328.6632 
 823   0.0000      12.304275       334.8163 
 824   0.0000      12.828230       349.0739 
 825   0.0000      13.306164       362.0791 
 826   0.0000      13.694294       372.6407 
 827   0.0000      13.883395       377.7864 

                    ********************************
                    * MULLIKEN POPULATION ANALYSIS *
                    ********************************

-----------------------
MULLIKEN ATOMIC CHARGES
-----------------------
   0 C :   -0.271720
   1 C :    0.014920
   2 O :   -0.354344
   3 C :    0.509375
   4 O :   -0.573741
   5 C :   -0.175764
   6 C :    0.199274
   7 C :   -0.294105
   8 N :   -0.127686
   9 C :    0.345687
  10 S :   -0.716042
  11 N :   -0.202271
  12 C :    0.088731
  13 C :   -0.015936
  14 C :   -0.212895
  15 C :   -0.173609
  16 C :   -0.261683
  17 C :    0.281196
  18 O :   -0.436847
  19 C :   -0.295070
  20 H :    0.103022
  21 H :    0.106436
  22 H :    0.109423
  23 H :    0.112304
  24 H :    0.114929
  25 H :    0.135682
  26 H :    0.132699
  27 H :    0.124199
  28 H :    0.264141
  29 H :    0.248667
  30 H :    0.177248
  31 H :    0.176847
  32 H :    0.194836
  33 H :    0.176697
  34 H :    0.334861
  35 H :    0.160539
Sum of atomic charges:   -0.0000000

--------------------------------
MULLIKEN REDUCED ORBITAL CHARGES
--------------------------------
  0 C s       :     3.260960  s :     3.260960
      pz      :     0.994420  p :     2.935128
      px      :     0.946378
      py      :     0.994330
      dz2     :     0.007220  d :     0.071591
      dxz     :     0.017451
      dyz     :     0.019598
      dx2y2   :     0.015483
      dxy     :     0.011840
      f0      :     0.000303  f :     0.004040
      f+1     :     0.000789
      f-1     :     0.000159
      f+2     :     0.000857
      f-2     :     0.001042
      f+3     :     0.000228
      f-3     :     0.000661
  1 C s       :     3.194747  s :     3.194747
      pz      :     0.818596  p :     2.635410
      px      :     0.915761
      py      :     0.901053
      dz2     :     0.021022  d :     0.144300
      dxz     :     0.040806
      dyz     :     0.030661
      dx2y2   :     0.024477
      dxy     :     0.027334
      f0      :     0.001203  f :     0.010622
      f+1     :     0.001360
      f-1     :     0.001544
      f+2     :     0.001986
      f-2     :     0.002409
      f+3     :     0.001047
      f-3     :     0.001073
  2 O s       :     3.737902  s :     3.737902
      pz      :     1.395596  p :     4.581232
      px      :     1.582960
      py      :     1.602675
      dz2     :     0.004740  d :     0.033216
      dxz     :     0.005816
      dyz     :     0.011409
      dx2y2   :     0.004018
      dxy     :     0.007233
      f0      :     0.000230  f :     0.001994
      f+1     :     0.000484
      f-1     :     0.000268
      f+2     :     0.000269
      f-2     :     0.000548
      f+3     :     0.000114
      f-3     :     0.000081
[...]
 15 C s       :     2.708138  s :     2.708138
      pz      :     0.845107  p :     2.810500
      px      :     0.986938
      py      :     0.978454
      dz2     :     0.043701  d :     0.413773
      dxz     :     0.083408
      dyz     :     0.030668
      dx2y2   :     0.152853
      dxy     :     0.103144
      f0      :     0.002340  f :     0.040186
      f+1     :     0.003498
      f-1     :     0.003379
      f+2     :     0.004081
      f-2     :     0.007065
      f+3     :     0.011794
      f-3     :     0.008029
 16 C s       :     2.705318  s :     2.705318
      pz      :     0.902707  p :     2.861730
      px      :     0.974590
      py      :     0.984433
      dz2     :     0.035280  d :     0.393709
      dxz     :     0.033920
      dyz     :     0.067572
      dx2y2   :     0.129085
      dxy     :     0.127853
      f0      :     0.002544  f :     0.040530
      f+1     :     0.003258
      f-1     :     0.003666
      f+2     :     0.006129
      f-2     :     0.004155
      f+3     :     0.012038
      f-3     :     0.008740
 17 C s       :     2.704733  s :     2.704733
      pz      :     0.815391  p :     2.696296
      px      :     0.896512
      py      :     0.984393
      dz2     :     0.062800  d :     0.714407
      dxz     :     0.130779
      dyz     :     0.105912
      dx2y2   :     0.200976
      dxy     :     0.213939
      f0      :     0.006726  f :     0.100518
      f+1     :     0.010261
      f-1     :     0.006986
      f+2     :     0.012324
      f-2     :     0.015251
      f+3     :     0.032953
      f-3     :     0.016017
 18 O s       :     3.163475  s :     3.163475
      pz      :     1.599924  p :     4.382589
      px      :     1.220553
      py      :     1.562112
      dz2     :     0.008188  d :     0.075715
      dxz     :     0.015399
      dyz     :     0.005854
      dx2y2   :     0.019387
      dxy     :     0.026886
      f0      :     0.000374  f :     0.005127
      f+1     :     0.000506
      f-1     :     0.000310
      f+2     :     0.000505
      f-2     :     0.001222
      f+3     :     0.001157
      f-3     :     0.001052
 19 C s       :     2.704510  s :     2.704510
      pz      :     0.915494  p :     2.864356
      px      :     0.980654
      py      :     0.968208
      dz2     :     0.038350  d :     0.384126
      dxz     :     0.070721
      dyz     :     0.026021
      dx2y2   :     0.149420
      dxy     :     0.099614
      f0      :     0.002244  f :     0.038859
      f+1     :     0.003810
      f-1     :     0.003128
      f+2     :     0.004431
      f-2     :     0.005878
      f+3     :     0.011022
      f-3     :     0.008347
 20 H s       :     0.849412  s :     0.849412
      pz      :     0.059264  p :     0.152742
      px      :     0.054134
      py      :     0.039345
      dz2     :     0.007613  d :     0.027558
      dxz     :     0.007220
      dyz     :     0.006086
      dx2y2   :     0.003071
      dxy     :     0.003568
 21 H s       :     0.850960  s :     0.850960
      pz      :     0.045386  p :     0.152751
      px      :     0.040405
      py      :     0.066961
      dz2     :     0.004308  d :     0.027233
      dxz     :     0.002298
      dyz     :     0.007818
      dx2y2   :     0.006131
      dxy     :     0.006677
 22 H s       :     0.843800  s :     0.843800
      pz      :     0.056951  p :     0.153349
      px      :     0.044939
      py      :     0.051459
      dz2     :     0.007648  d :     0.027516
      dxz     :     0.005967
      dyz     :     0.006140
      dx2y2   :     0.004073
      dxy     :     0.003688
 23 H s       :     0.859881  s :     0.859881
      pz      :     0.055144  p :     0.147961
      px      :     0.055525
      py      :     0.037291
      dz2     :     0.006219  d :     0.026751
      dxz     :     0.007768
      dyz     :     0.004577
      dx2y2   :     0.003265
      dxy     :     0.004922
 24 H s       :     0.854907  s :     0.854907
      pz      :     0.038066  p :     0.150526
      px      :     0.044581
      py      :     0.067879
      dz2     :     0.003034  d :     0.027333
      dxz     :     0.003530
      dyz     :     0.006313
      dx2y2   :     0.007252
      dxy     :     0.007205
 25 H s       :     0.826209  s :     0.826209
      pz      :     0.067587  p :     0.149004
      px      :     0.041290
      py      :     0.040127
      dz2     :     0.009081  d :     0.027515
      dxz     :     0.007435
      dyz     :     0.007307
      dx2y2   :     0.002405
      dxy     :     0.001289
 26 H s       :     0.812211  s :     0.812211
      pz      :     0.038752  p :     0.155525
      px      :     0.074084
      py      :     0.042689
      dz2     :     0.002615  d :     0.028964
      dxz     :     0.008952
      dyz     :     0.000257
      dx2y2   :     0.008008
      dxy     :     0.009131
 27 H s       :     0.828030  s :     0.828030
      pz      :     0.036282  p :     0.149927
      px      :     0.041486
      py      :     0.072159
      dz2     :     0.002706  d :     0.027988
      dxz     :     0.000165
      dyz     :     0.008638
      dx2y2   :     0.006945
      dxy     :     0.009534
 28 H s       :     0.708883  s :     0.708883
      pz      :     0.048923  p :     0.248909
      px      :     0.078013
      py      :     0.121972
      dz2     :     0.006373  d :     0.060656
      dxz     :     0.001816
      dyz     :     0.015793
      dx2y2   :     0.016202
      dxy     :     0.020472
 29 H s       :     0.716988  s :     0.716988
      pz      :     0.112371  p :     0.252302
      px      :     0.093620
      py      :     0.046312
      dz2     :     0.020912  d :     0.060990
      dxz     :     0.017609
      dyz     :     0.012896
      dx2y2   :     0.005214
      dxy     :     0.004358
 30 H s       :     0.821533  s :     0.821533
      pz      :     0.038141  p :     0.144382
      px      :     0.049499
      py      :     0.056742
      dz2     :     0.003634  d :     0.028231
      dxz     :     0.004196
      dyz     :     0.006339
      dx2y2   :     0.007179
      dxy     :     0.006883
 31 H s       :     0.839423  s :     0.839423
      pz      :     0.049047  p :     0.158902
      px      :     0.065610
      py      :     0.044245
      dz2     :     0.003642  d :     0.027859
      dxz     :     0.006197
      dyz     :     0.002989
      dx2y2   :     0.007642
      dxy     :     0.007389
 32 H s       :     0.833631  s :     0.833631
      pz      :     0.039863  p :     0.154266
      px      :     0.034371
      py      :     0.080032
      dz2     :     0.002631  d :     0.026998
      dxz     :     0.000217
      dyz     :     0.007529
      dx2y2   :     0.007936
      dxy     :     0.008685
 33 H s       :     0.834742  s :     0.834742
      pz      :     0.045170  p :     0.157074
      px      :     0.069186
      py      :     0.042718
      dz2     :     0.002766  d :     0.027571
      dxz     :     0.006522
      dyz     :     0.002024
      dx2y2   :     0.008152
      dxy     :     0.008107
 34 H s       :     0.661134  s :     0.661134
      pz      :     0.106095  p :     0.339666
      px      :     0.123122
      py      :     0.110448
      dz2     :     0.013318  d :     0.098448
      dxz     :     0.025494
      dyz     :     0.009444
      dx2y2   :     0.023743
      dxy     :     0.026450
 35 H s       :     0.843384  s :     0.843384
      pz      :     0.046131  p :     0.161626
      px      :     0.034285
      py      :     0.081210
      dz2     :     0.002531  d :     0.028443
      dxz     :     0.000096
      dyz     :     0.008804
      dx2y2   :     0.007849
      dxy     :     0.009161


                      *****************************
                      * MAYER POPULATION ANALYSIS *
                      *****************************

  NA   - Mulliken gross atomic population
  ZA   - Total nuclear charge
  QA   - Mulliken gross atomic charge
  VA   - Mayer's total valence
  BVA  - Mayer's bonded valence
  FA   - Mayer's free valence

  ATOM       NA         ZA         QA         VA         BVA        FA
  0 C      6.2717     6.0000    -0.2717     3.8890     3.8890     0.0000
  1 C      5.9851     6.0000     0.0149     3.8324     3.8324    -0.0000
  2 O      8.3543     8.0000    -0.3543     2.0679     2.0679    -0.0000
  3 C      5.4906     6.0000     0.5094     4.2327     4.2327     0.0000
  4 O      8.5737     8.0000    -0.5737     1.9808     1.9808     0.0000
  5 C      6.1758     6.0000    -0.1758     3.6281     3.6281    -0.0000
  6 C      5.8007     6.0000     0.1993     3.8527     3.8527    -0.0000
  7 C      6.2941     6.0000    -0.2941     3.8905     3.8905    -0.0000
  8 N      7.1277     7.0000    -0.1277     3.4113     3.4113     0.0000
  9 C      5.6543     6.0000     0.3457     4.0034     4.0034    -0.0000
 10 S     16.7160    16.0000    -0.7160     1.3975     1.3975    -0.0000
 11 N      7.2023     7.0000    -0.2023     3.3737     3.3737     0.0000
 12 C      5.9113     6.0000     0.0887     3.9248     3.9248    -0.0000
 13 C      6.0159     6.0000    -0.0159     3.7208     3.7208     0.0000
 14 C      6.2129     6.0000    -0.2129     3.7935     3.7935    -0.0000
 15 C      6.1736     6.0000    -0.1736     3.7423     3.7423    -0.0000
 16 C      6.2617     6.0000    -0.2617     3.7273     3.7273    -0.0000
 17 C      5.7188     6.0000     0.2812     3.9331     3.9331     0.0000
 18 O      8.4368     8.0000    -0.4368     2.0496     2.0496     0.0000
 19 C      6.2951     6.0000    -0.2951     3.8498     3.8498     0.0000
 20 H      0.8970     1.0000     0.1030     0.9859     0.9859     0.0000
 21 H      0.8936     1.0000     0.1064     0.9784     0.9784     0.0000
 22 H      0.8906     1.0000     0.1094     0.9833     0.9833     0.0000
 23 H      0.8877     1.0000     0.1123     0.9799     0.9799    -0.0000
 24 H      0.8851     1.0000     0.1149     0.9845     0.9845    -0.0000
 25 H      0.8643     1.0000     0.1357     0.9844     0.9844     0.0000
 26 H      0.8673     1.0000     0.1327     0.9767     0.9767    -0.0000
 27 H      0.8758     1.0000     0.1242     0.9832     0.9832    -0.0000
 28 H      0.7359     1.0000     0.2641     0.9597     0.9597    -0.0000
 29 H      0.7513     1.0000     0.2487     0.9730     0.9730    -0.0000
 30 H      0.8228     1.0000     0.1772     0.9870     0.9870     0.0000
 31 H      0.8232     1.0000     0.1768     0.9851     0.9851     0.0000
 32 H      0.8052     1.0000     0.1948     0.9641     0.9641    -0.0000
 33 H      0.8233     1.0000     0.1767     0.9741     0.9741    -0.0000
 34 H      0.6651     1.0000     0.3349     0.9297     0.9297     0.0000
 35 H      0.8395     1.0000     0.1605     0.9909     0.9909    -0.0000

  Mayer bond orders larger than 0.100000
B(  0-C ,  1-C ) :   0.9712 B(  0-C , 20-H ) :   0.9756 B(  0-C , 21-H ) :   0.9746 
B(  0-C , 22-H ) :   0.9762 B(  1-C ,  2-O ) :   0.8790 B(  1-C , 23-H ) :   0.9788 
B(  1-C , 24-H ) :   0.9746 B(  2-O ,  3-C ) :   1.1950 B(  3-C ,  4-O ) :   1.8977 
B(  3-C ,  5-C ) :   1.1032 B(  5-C ,  6-C ) :   1.6235 B(  5-C , 12-C ) :   0.9613 
B(  6-C ,  7-C ) :   0.9570 B(  6-C ,  8-N ) :   1.1455 B(  7-C , 25-H ) :   0.9651 
B(  7-C , 26-H ) :   0.9534 B(  7-C , 27-H ) :   0.9904 B(  8-N ,  9-C ) :   1.2912 
B(  8-N , 28-H ) :   0.9148 B(  9-C , 10-S ) :   1.2442 B(  9-C , 11-N ) :   1.3825 
B( 11-N , 12-C ) :   1.0115 B( 11-N , 29-H ) :   0.9274 B( 12-C , 13-C ) :   0.9160 
B( 12-C , 30-H ) :   0.9942 B( 13-C , 14-C ) :   1.3451 B( 13-C , 19-C ) :   1.3849 
B( 14-C , 15-C ) :   1.3729 B( 14-C , 31-H ) :   0.9637 B( 15-C , 16-C ) :   1.3396 
B( 15-C , 32-H ) :   0.9600 B( 16-C , 17-C ) :   1.3314 B( 16-C , 33-H ) :   0.9665 
B( 17-C , 18-O ) :   1.1142 B( 17-C , 19-C ) :   1.4026 B( 18-O , 34-H ) :   0.9076 
B( 19-C , 35-H ) :   0.9525 

-------
TIMINGS
-------

Total SCF time: 0 days 1 hours 44 min 11 sec 

Total time                  ....    6251.968 sec
Sum of individual times     ....    6248.653 sec  ( 99.9%)

Fock matrix formation       ....    6236.908 sec  ( 99.8%)
Diagonalization             ....       1.361 sec  (  0.0%)
Density matrix formation    ....       0.174 sec  (  0.0%)
Population analysis         ....       0.288 sec  (  0.0%)
Initial guess               ....       5.665 sec  (  0.1%)
Orbital Transformation      ....       0.000 sec  (  0.0%)
Orbital Orthonormalization  ....       0.000 sec  (  0.0%)
DIIS solution               ....       1.423 sec  (  0.0%)
SOSCF solution              ....       1.456 sec  (  0.0%)

Maximum memory used throughout the entire SCF-calculation: 718.3 MB

------------------------------------------------------------------------------
                                ORCA  MP2 
------------------------------------------------------------------------------

Freezing NCore=48 chemical core electrons

-------------
RI-MP2 ENERGY
-------------
Dimension of the basis                    ...  828
Memory devoted to MP2                     ...  256 MB   
Data format for buffers                   ... DOUBLE
Compression type for matrix containers    ... UNCOMPRESSED
Overall scaling of the MP2 energy         ...   1.000e+00
Calculating two index integrals           ... done (    0.043 sec)
Cholesky decomposition of V**-1           ... done (    0.552 sec)

-----------------
RI-TRANSFORMATION (AUX index driven)
-----------------

Dimension of the orbital-basis         ... 828
Dimension of the aux-basis             ... 2141
Transformation of internal/external MOs...   24-  76 to   77- 827
Number Format for Storage              ... Double (8 Byte)
Integral mode                          ... Direct

First Phase: integral generation and transformation of MO indices
  Aux angular momentum 0               ... done (    4.846 sec)
  Aux angular momentum 1               ... done (    8.156 sec)
  Aux angular momentum 2               ... done (   10.474 sec)
  Aux angular momentum 3               ... done (    8.424 sec)
  Aux angular momentum 4               ... done (    2.928 sec)
Closing buffer VIA ( 0.63 GB; CompressionRatio= 1.00)
  Phase 1 completed in    34.996 sec
Second Phase: sorting and transformation of aux index

IA-Transformation
Memory available                       ... 158 MB 
Max. # MO pairs treated in a batch     ... 11    
# of internal orbitals                 ... 53
# batches for internal orbitals        ... 5
Closing buffer IAV ( 0.63 GB; CompressionRatio= 1.00)
(ia|v) transformation done in    18.506 sec

  Phase 2 completed in    18.514 sec
RI-Integral transformation completed in    53.515 sec
Opening buffers                              ... done

Starting loop over batches of integrals:

Operator 0  - window                       ... ( 24- 76)x( 77-827)
Operator 0  - Memory available             ...   256 MB
Operator 0  - Memory needed per MO         ...  12.3 MB
Operator 0  - Number of orbitals per batch ... 13
Operator 0  - Number of batches            ... 5

OPERATOR  0   PASS   0:  MOs    24 ...   36
  Reading integrals       ... ok
  Internal MO  26
  Internal MO  29
  Internal MO  32
  Internal MO  35
OPERATOR  0   PASS   1:  MOs    37 ...   49
  Reading integrals       ... ok
  Internal MO  38
  Internal MO  41
  Internal MO  44
  Internal MO  47
OPERATOR  0   PASS   2:  MOs    50 ...   62
  Reading integrals       ... ok
  Internal MO  50
  Internal MO  53
  Internal MO  56
  Internal MO  59
  Internal MO  62
OPERATOR  0   PASS   3:  MOs    63 ...   75
  Reading integrals       ... ok
  Internal MO  65
  Internal MO  68
  Internal MO  71
  Internal MO  74
OPERATOR  0   PASS   4:  MOs    76 ...   76
  Reading integrals       ... ok
Time spent in pair loops =    89.279 sec
Deleting buffer (Ka|jb)[aa] ...done

-----------------------------------------------
 RI-MP2 CORRELATION ENERGY:     -3.529165623 Eh
-----------------------------------------------


-------
TIMINGS
-------

Total time                :  143.511 sec
Integral trafo            :   53.534 sec ( 37.3%)
I/O of integrals          :    1.115 sec (  0.8%)
K(i,j) Operators          :   60.970 sec ( 42.5%)
T(i,j) pair energies      :    8.893 sec (  6.2%)
V-calculation             :    0.043 sec (  0.0%)
V**(-1/2)                 :    0.552 sec (  0.4%)
Gamma(ia|P)               :    0.000 sec (  0.0%)
Gamma-Trafo               :    0.000 sec (  0.0%)
D(virtual)                :    0.000 sec (  0.0%)
D(internal)               :    0.000 sec (  0.0%)
W(virtual)                :    0.000 sec (  0.0%)
W(internal)               :    0.000 sec (  0.0%)
L(virtual)                :    0.000 sec (  0.0%)
L(internal)               :    0.000 sec (  0.0%)
G(D)                      :    0.000 sec (  0.0%)
G(Z)                      :    0.000 sec (  0.0%)
Z-Vector Solution         :    0.000 sec (  0.0%)
3-Index Derivative        :    0.000 sec (  0.0%)
2-Index Derivative        :    0.000 sec (  0.0%)
Separable Gradient        :    0.000 sec (  0.0%)


---------------------------------------
MP2 TOTAL ENERGY:    -1274.434898127 Eh
---------------------------------------

Maximum memory used throughout the entire MP2-calculation: 302.7 MB

-------------------------   --------------------
FINAL SINGLE POINT ENERGY     -1274.434898126871
-------------------------   --------------------


                            ***************************************
                            *     ORCA property calculations      *
                            ***************************************


  WARNING: The energy has been calculated at the MP2 level but the densities
           used in the property calculations are still SCF densities
           MP2 response densities have not been calculated 
           use %mp2 Density relaxed end
           or  %mp2 Density unrelaxed end

                                    ---------------------
                                    Active property flags
                                    ---------------------
   (+) Dipole Moment


------------------------------------------------------------------------------
                       ORCA ELECTRIC PROPERTIES CALCULATION
------------------------------------------------------------------------------

Dipole Moment Calculation                       ... on
Quadrupole Moment Calculation                   ... off
Polarizability Calculation                      ... off
GBWName                                         ... qm_input.solv.gbw
Electron density file                           ... qm_input.solv.scfp
The origin for moment calculation is the CENTER OF MASS  = (-6.833237, 12.969042 -1.446645)

-------------
DIPOLE MOMENT
-------------
                                X             Y             Z
Electronic contribution:    -10.51418       3.21041      13.32021
Nuclear contribution   :     11.36126      -3.79142     -15.53353
                        -----------------------------------------
Total Dipole Moment    :      0.84708      -0.58101      -2.21332
                        -----------------------------------------
Magnitude (a.u.)       :      2.44006
Magnitude (Debye)      :      6.20215



--------------------
Rotational spectrum 
--------------------
 
Rotational constants in cm-1:     0.011126     0.008209     0.005580 
Rotational constants in MHz :   333.562912   246.085666   167.294220 

 Dipole components along the rotational axes: 
x,y,z [a.u.] :     1.937510     1.212016    -0.854978 
x,y,z [Debye]:     4.924759     3.080701    -2.173182 

 

Timings for individual modules:

Sum of individual times         ...     6625.912 sec (= 110.432 min)
GTO integral calculation        ...      229.876 sec (=   3.831 min)   3.5 %
SCF iterations                  ...     6252.049 sec (= 104.201 min)  94.4 %
MP2 module                      ...      143.986 sec (=   2.400 min)   2.2 %
                             ****ORCA TERMINATED NORMALLY****
TOTAL RUN TIME: 0 days 1 hours 50 minutes 26 seconds 964 msec
