
                                        *****************
                                        * O   R   C   A *
                                        *****************

                                            #,                                       
                                            ###                                      
                                            ####                                     
                                            #####                                    
                                            ######                                   
                                           ########,                                 
                                     ,,################,,,,,                         
                               ,,#################################,,                 
                          ,,##########################################,,             
                       ,#########################################, ''#####,          
                    ,#############################################,,   '####,        
                  ,##################################################,,,,####,       
                ,###########''''           ''''###############################       
              ,#####''   ,,,,##########,,,,          '''####'''          '####       
            ,##' ,,,,###########################,,,                        '##       
           ' ,,###''''                  '''############,,,                           
         ,,##''                                '''############,,,,        ,,,,,,###''
      ,#''                                            '''#######################'''  
     '                                                          ''''####''''         
             ,#######,   #######,   ,#######,      ##                                
            ,#'     '#,  ##    ##  ,#'     '#,    #''#        ######   ,####,        
            ##       ##  ##   ,#'  ##            #'  '#       #        #'  '#        
            ##       ##  #######   ##           ,######,      #####,   #    #        
            '#,     ,#'  ##    ##  '#,     ,#' ,#      #,         ##   #,  ,#        
             '#######'   ##     ##  '#######'  #'      '#     #####' # '####'        



                  #######################################################
                  #                        -***-                        #
                  #          Department of theory and spectroscopy      #
                  #    Directorship and core code : Frank Neese         #
                  #        Max Planck Institute fuer Kohlenforschung    #
                  #                Kaiser Wilhelm Platz 1               #
                  #                 D-45470 Muelheim/Ruhr               #
                  #                      Germany                        #
                  #                                                     #
                  #                  All rights reserved                #
                  #                        -***-                        #
                  #######################################################


                         Program Version 5.0.0 -  RELEASE  -
                                (SVN: $Rev: 19529$)
                ($Date: 2021-06-28 11:36:33 +0200 (Mo, 28 Jun 2021) $)


 With contributions from (in alphabetic order):
   Daniel Aravena         : Magnetic Suceptibility
   Michael Atanasov       : Ab Initio Ligand Field Theory (pilot matlab implementation)
   Alexander A. Auer      : GIAO ZORA, VPT2 properties, NMR spectrum
   Ute Becker             : Parallelization
   Giovanni Bistoni       : ED, misc. LED, open-shell LED, HFLD
   Martin Brehm           : Molecular dynamics
   Dmytro Bykov           : SCF Hessian
   Vijay G. Chilkuri      : MRCI spin determinant printing, contributions to CSF-ICE
   Dipayan Datta          : RHF DLPNO-CCSD density
   Achintya Kumar Dutta   : EOM-CC, STEOM-CC
   Dmitry Ganyushin       : Spin-Orbit,Spin-Spin,Magnetic field MRCI
   Miquel Garcia          : C-PCM Hessian, Gaussian charge scheme
   Yang Guo               : DLPNO-NEVPT2, F12-NEVPT2, CIM, IAO-localization
   Andreas Hansen         : Spin unrestricted coupled pair/coupled cluster methods
   Benjamin Helmich-Paris : MC-RPA, TRAH-SCF, COSX integrals
   Lee Huntington         : MR-EOM, pCC
   Robert Izsak           : Overlap fitted RIJCOSX, COSX-SCS-MP3, EOM
   Marcus Kettner         : VPT2
   Christian Kollmar      : KDIIS, OOCD, Brueckner-CCSD(T), CCSD density, CASPT2, CASPT2-K
   Simone Kossmann        : Meta GGA functionals, TD-DFT gradient, OOMP2, MP2 Hessian
   Martin Krupicka        : Initial AUTO-CI
   Lucas Lang             : DCDCAS
   Marvin Lechner         : AUTO-CI (C++ implementation), FIC-MRCC
   Dagmar Lenk            : GEPOL surface, SMD
   Dimitrios Liakos       : Extrapolation schemes; Compound Job, initial MDCI parallelization
   Dimitrios Manganas     : Further ROCIS development; embedding schemes
   Dimitrios Pantazis     : SARC Basis sets
   Anastasios Papadopoulos: AUTO-CI, single reference methods and gradients
   Taras Petrenko         : DFT Hessian,TD-DFT gradient, ASA, ECA, R-Raman, ABS, FL, XAS/XES, NRVS
   Peter Pinski           : DLPNO-MP2, DLPNO-MP2 Gradient
   Christoph Reimann      : Effective Core Potentials
   Marius Retegan         : Local ZFS, SOC
   Christoph Riplinger    : Optimizer, TS searches, QM/MM, DLPNO-CCSD(T), (RO)-DLPNO pert. Triples
   Tobias Risthaus        : Range-separated hybrids, TD-DFT gradient, RPA, STAB
   Michael Roemelt        : Original ROCIS implementation
   Masaaki Saitow         : Open-shell DLPNO-CCSD energy and density
   Barbara Sandhoefer     : DKH picture change effects
   Avijit Sen             : IP-ROCIS
   Kantharuban Sivalingam : CASSCF convergence, NEVPT2, FIC-MRCI
   Bernardo de Souza      : ESD, SOC TD-DFT
   Georgi Stoychev        : AutoAux, RI-MP2 NMR
   Willem Van den Heuvel  : Paramagnetic NMR
   Boris Wezisla          : Elementary symmetry handling
   Frank Wennmohs         : Technical directorship


 We gratefully acknowledge several colleagues who have allowed us to
 interface, adapt or use parts of their codes:
   Stefan Grimme, W. Hujo, H. Kruse, P. Pracht,  : VdW corrections, initial TS optimization,
                  C. Bannwarth, S. Ehlert          DFT functionals, gCP, sTDA/sTD-DF
   Ed Valeev, F. Pavosevic, A. Kumar             : LibInt (2-el integral package), F12 methods
   Garnet Chan, S. Sharma, J. Yang, R. Olivares  : DMRG
   Ulf Ekstrom                                   : XCFun DFT Library
   Mihaly Kallay                                 : mrcc  (arbitrary order and MRCC methods)
   Jiri Pittner, Ondrej Demel                    : Mk-CCSD
   Frank Weinhold                                : gennbo (NPA and NBO analysis)
   Christopher J. Cramer and Donald G. Truhlar   : smd solvation model
   Lars Goerigk                                  : TD-DFT with DH, B97 family of functionals
   V. Asgeirsson, H. Jonsson                     : NEB implementation
   FAccTs GmbH                                   : IRC, NEB, NEB-TS, DLPNO-Multilevel, CI-OPT
                                                   MM, QMMM, 2- and 3-layer-ONIOM, Crystal-QMMM,
                                                   LR-CPCM, SF, NACMEs, symmetry and pop. for TD-DFT,
                                                   nearIR, NL-DFT gradient (VV10), updates on ESD,
                                                   ML-optimized integration grids
   S Lehtola, MJT Oliveira, MAL Marques          : LibXC Library
   Liviu Ungur et al                             : ANISO software


 Your calculation uses the libint2 library for the computation of 2-el integrals
 For citations please refer to: http://libint.valeyev.net

 Your ORCA version has been built with support for libXC version: 5.1.0
 For citations please refer to: https://tddft.org/programs/libxc/

 This ORCA versions uses:
   CBLAS   interface :  Fast vector & matrix operations
   LAPACKE interface :  Fast linear algebra routines
   SCALAPACK package :  Parallel linear algebra routines
   Shared memory     :  Shared parallel matrices
   BLAS/LAPACK       :  OpenBLAS 0.3.15  USE64BITINT DYNAMIC_ARCH NO_AFFINITY SkylakeX SINGLE_THREADED
        Core in use  :  SkylakeX
   Copyright (c) 2011-2014, The OpenBLAS Project


================================================================================

----- Orbital basis set information -----
Your calculation utilizes the basis: cc-pVTZ 
       H, B-Ne : Obtained from the ccRepo (grant-hill.group.shef.ac.uk/ccrepo) Feb. 2017
                 T. H. Dunning, Jr., J. Chem. Phys. 90, 1007 (1989)
            He : Obtained from the ccRepo (grant-hill.group.shef.ac.uk/ccrepo) Feb. 2017
                 D. E. Woon, T. H. Dunning, Jr., J. Chem. Phys. 100, 2975 (1994)
  Li-Be, Na-Mg : Obtained from the ccRepo (grant-hill.group.shef.ac.uk/ccrepo) Feb. 2017
                 B. P. Prascher, D. E. Woon, K. A. Peterson, T. H. Dunning, Jr., A. K. Wilson, Theor. Chem. Acc. 128, 69 (2011)
         Al-Ar : Obtained from the ccRepo (grant-hill.group.shef.ac.uk/ccrepo) Feb. 2017
                 D. E. Woon, T. H. Dunning, Jr., J. Chem. Phys. 98, 1358 (1993)
            Ca : Obtained from the Peterson Research Group Website (tyr0.chem.wsu.edu/~kipeters) Feb. 2017
                 J. Koput, K. A. Peterson, J. Phys. Chem. 106, 9595 (2002)
         Sc-Zn : Obtained from the ccRepo (grant-hill.group.shef.ac.uk/ccrepo) Feb. 2017
                 N. B. Balabanov, K. A. Peterson, J. Chem. Phys. 123, 064107 (2005)
                 N. B. Balabanov, K. A. Peterson, J. Chem. Phys. 125, 074110 (2006)
         Ga-Kr : Obtained from the ccRepo (grant-hill.group.shef.ac.uk/ccrepo) Feb. 2017
                 A. K. Wilson, D. E. Woon, K. A. Peterson, T. H. Dunning, Jr., J. Chem. Phys. 110, 7667 (1999)
             Y : Obtained from the ccRepo (grant-hill.group.shef.ac.uk/ccrepo) Feb. 2017
                 K. A. Peterson, D. Figgen, M. Dolg, H. Stoll, J. Chem. Phys. 126, 124101 (2007)
        Ag, Au : Obtained from the Peterson Research Group Website (tyr0.chem.wsu.edu/~kipeters) Feb. 2017
                 K. A. Peterson, C. Puzzarini, Theor. Chem. Acc. 114, 283 (2005)

----- AuxC basis set information -----
Your calculation utilizes the auxiliary basis: cc-pVTZ/C 
  Obtained from the EMSL Basis Set Exchange (bse.pnl.gov) Feb. 2017
  H-He, B-F, Al-Ar, Ga-Kr : F. Weigend, A. Kohn, C. Hattig, J. Chem. Phys. 116, 3175 (2002)
             Li-Be, Na-Mg : C. Haettig, Phys. Chem. Chem. Phys. 7, 59 (2005)
                       Ne : C. Haettig, Phys. Chem. Chem. Phys. 7, 59 (2005)
                            F. Weigend, A. Kohn, C. Hattig, J. Chem. Phys. 116, 3175 (2002)
                    Sc-Zn : J. G. Hill, J. A. Platts, J. Chem. Phys. 128, 044104 (2008)

================================================================================
                                        WARNINGS
                       Please study these warnings very carefully!
================================================================================


WARNING: No MP2 level density has been requested!
         To caclulate MP2 level properties use
         %mp2 Density relaxed end
         or
         %mp2 Density unrelaxed end

WARNING: Post HF methods need fully converged wavefunctions
  ===> : Setting SCFConvForced true
         You can overwrite this default with %scf ConvForced false 


INFO   : the flag for use of the SHARK integral package has been found!

================================================================================
                                       INPUT FILE
================================================================================
NAME = qm_input.vacu
|  1> ! RI-MP2 cc-pVTZ cc-pVTZ/c TightSCF KeepDens NoKeepInts
|  2> 
|  3> *xyz  0  1
|  4>     C    -4.6046447    0.4853632   -4.2787155
|  5>     C    -3.2326595    1.1615521   -4.2945117
|  6>     O    -2.1820369    0.1915645   -4.0752109
|  7>     C    -0.9047454    0.6980003   -4.2085889
|  8>     O    -0.6283951    1.8212002   -4.6715612
|  9>     C     0.1305035   -0.3463538   -3.8615553
| 10>     C     1.4385934   -0.2021663   -4.1219636
| 11>     C     2.1990454    1.0105533   -4.8227353
| 12>     N     2.2987040   -1.2169823   -3.7965952
| 13>     C     1.9593582   -2.4772724   -3.4232591
| 14>     S     3.1183870   -3.6391362   -2.9920809
| 15>     N     0.5916197   -2.7329236   -3.1720403
| 16>     C    -0.4107946   -1.6346771   -3.2051528
| 17>     C    -1.0557141   -1.2698352   -1.8076729
| 18>     C    -2.3220966   -1.7964807   -1.4694977
| 19>     C    -2.9236963   -1.5432762   -0.2090221
| 20>     C    -2.1862199   -0.8372595    0.7627666
| 21>     C    -0.9697180   -0.2546577    0.4072095
| 22>     O    -0.3217830    0.3715511    1.3420758
| 23>     C    -0.3863665   -0.4660510   -0.8637638
| 24>     H    -4.6206000   -0.2249388   -3.4430090
| 25>     H    -4.8427888   -0.1031580   -5.1732097
| 26>     H    -5.4109927    1.2253039   -4.2047041
| 27>     H    -3.1441345    1.7409642   -5.2216767
| 28>     H    -3.1733272    1.8237608   -3.4220732
| 29>     H     1.8524893    2.0239540   -4.5858830
| 30>     H     2.1385266    0.9036440   -5.9127346
| 31>     H     3.2600264    0.9611182   -4.5487549
| 32>     H     3.3071186   -1.1236332   -3.7777953
| 33>     H     0.3256471   -3.6976075   -3.0151648
| 34>     H    -1.1210786   -2.0185760   -3.9476540
| 35>     H    -2.8378812   -2.4186449   -2.1949451
| 36>     H    -3.9055706   -1.9313951    0.0453057
| 37>     H    -2.6279653   -0.6924622    1.7442416
| 38>     H     0.5742583    0.5949888    1.0356209
| 39>     H     0.6376957   -0.1351503   -1.0093903
| 40> *
| 41> 
| 42>                          ****END OF INPUT****
================================================================================

                       ****************************
                       * Single Point Calculation *
                       ****************************

---------------------------------
CARTESIAN COORDINATES (ANGSTROEM)
---------------------------------
  C     -4.604645    0.485363   -4.278715
  C     -3.232659    1.161552   -4.294512
  O     -2.182037    0.191564   -4.075211
  C     -0.904745    0.698000   -4.208589
  O     -0.628395    1.821200   -4.671561
  C      0.130503   -0.346354   -3.861555
  C      1.438593   -0.202166   -4.121964
  C      2.199045    1.010553   -4.822735
  N      2.298704   -1.216982   -3.796595
  C      1.959358   -2.477272   -3.423259
  S      3.118387   -3.639136   -2.992081
  N      0.591620   -2.732924   -3.172040
  C     -0.410795   -1.634677   -3.205153
  C     -1.055714   -1.269835   -1.807673
  C     -2.322097   -1.796481   -1.469498
  C     -2.923696   -1.543276   -0.209022
  C     -2.186220   -0.837260    0.762767
  C     -0.969718   -0.254658    0.407210
  O     -0.321783    0.371551    1.342076
  C     -0.386367   -0.466051   -0.863764
  H     -4.620600   -0.224939   -3.443009
  H     -4.842789   -0.103158   -5.173210
  H     -5.410993    1.225304   -4.204704
  H     -3.144134    1.740964   -5.221677
  H     -3.173327    1.823761   -3.422073
  H      1.852489    2.023954   -4.585883
  H      2.138527    0.903644   -5.912735
  H      3.260026    0.961118   -4.548755
  H      3.307119   -1.123633   -3.777795
  H      0.325647   -3.697608   -3.015165
  H     -1.121079   -2.018576   -3.947654
  H     -2.837881   -2.418645   -2.194945
  H     -3.905571   -1.931395    0.045306
  H     -2.627965   -0.692462    1.744242
  H      0.574258    0.594989    1.035621
  H      0.637696   -0.135150   -1.009390

----------------------------
CARTESIAN COORDINATES (A.U.)
----------------------------
  NO LB      ZA    FRAG     MASS         X           Y           Z
   0 C     6.0000    0    12.011   -8.701517    0.917204   -8.085600
   1 C     6.0000    0    12.011   -6.108841    2.195015   -8.115451
   2 O     8.0000    0    15.999   -4.123452    0.362004   -7.701033
   3 C     6.0000    0    12.011   -1.709721    1.319029   -7.953080
   4 O     8.0000    0    15.999   -1.187495    3.441570   -8.827971
   5 C     6.0000    0    12.011    0.246616   -0.654514   -7.297282
   6 C     6.0000    0    12.011    2.718548   -0.382039   -7.789382
   7 C     6.0000    0    12.011    4.155594    1.909669   -9.113649
   8 N     7.0000    0    14.007    4.343921   -2.299763   -7.174525
   9 C     6.0000    0    12.011    3.702650   -4.681366   -6.469022
  10 S    16.0000    0    32.060    5.892897   -6.876971   -5.654213
  11 N     7.0000    0    14.007    1.117999   -5.164477   -5.994287
  12 C     6.0000    0    12.011   -0.776289   -3.089092   -6.056861
  13 C     6.0000    0    12.011   -1.995011   -2.399641   -3.416007
  14 C     6.0000    0    12.011   -4.388127   -3.394857   -2.776948
  15 C     6.0000    0    12.011   -5.524985   -2.916369   -0.394995
  16 C     6.0000    0    12.011   -4.131357   -1.582191    1.441420
  17 C     6.0000    0    12.011   -1.832501   -0.481233    0.769514
  18 O     8.0000    0    15.999   -0.608082    0.702130    2.536156
  19 C     6.0000    0    12.011   -0.730127   -0.880709   -1.632277
  20 H     1.0000    0     1.008   -8.731669   -0.425073   -6.506344
  21 H     1.0000    0     1.008   -9.151545   -0.194940   -9.775950
  22 H     1.0000    0     1.008  -10.225294    2.315489   -7.945739
  23 H     1.0000    0     1.008   -5.941553    3.289946   -9.867539
  24 H     1.0000    0     1.008   -5.996719    3.446408   -6.466781
  25 H     1.0000    0     1.008    3.500697    3.824719   -8.666063
  26 H     1.0000    0     1.008    4.041230    1.707640  -11.173449
  27 H     1.0000    0     1.008    6.160557    1.816250   -8.595901
  28 H     1.0000    0     1.008    6.249548   -2.123359   -7.138999
  29 H     1.0000    0     1.008    0.615384   -6.987466   -5.697836
  30 H     1.0000    0     1.008   -2.118532   -3.814556   -7.459985
  31 H     1.0000    0     1.008   -5.362818   -4.570576   -4.147845
  32 H     1.0000    0     1.008   -7.380459   -3.649808    0.085615
  33 H     1.0000    0     1.008   -4.966135   -1.308564    3.296139
  34 H     1.0000    0     1.008    1.085191    1.124366    1.957040
  35 H     1.0000    0     1.008    1.205070   -0.255397   -1.907471

--------------------------------
INTERNAL COORDINATES (ANGSTROEM)
--------------------------------
 C      0   0   0     0.000000000000     0.00000000     0.00000000
 C      1   0   0     1.529648435895     0.00000000     0.00000000
 O      2   1   0     1.446643229226   110.69698078     0.00000000
 C      3   2   1     1.380485598033   114.28872885   173.79990111
 O      4   3   2     1.245909649307   124.87931403   349.38062420
 C      4   3   2     1.510909689779   110.98969368   175.65179670
 C      6   4   3     1.341529613668   123.31402040   168.16476819
 C      7   6   4     1.593755642515   129.22636270   359.56915224
 N      7   6   4     1.369491275550   119.11955516   181.42301045
 C      9   7   6     1.357522210389   126.60418079    11.56094410
 S     10   9   7     1.696817576858   122.33193361   182.09856759
 N     10   9   7     1.413922567157   117.29239953   351.06765422
 C     12  10   9     1.487305026302   120.96386531   354.95605585
 C     13  12  10     1.581765104047   115.17885706   247.99343917
 C     14  13  12     1.412601353840   119.40848857   261.63552204
 C     15  14  13     1.419448292843   121.73819581   177.54585293
 C     16  15  14     1.409504983561   118.67468346   354.86175035
 C     17  16  15     1.394891602035   119.32551924     8.52174268
 O     18  17  16     1.298434528306   116.94284362   180.75815518
 C     14  13  12     1.408921445240   121.99102338    79.54800531
 H      1   2   3     1.096899656735   107.88869814    43.31938306
 H      1   2   3     1.096900036032   115.05475724   285.61634165
 H      1   2   3     1.096898821200   111.21348189   166.52635083
 H      2   1   3     1.096900175256   108.33790132   127.04147794
 H      2   1   3     1.096900004769   107.88905994   246.60383530
 H      8   7   6     1.096896130553   117.21329455    38.40217060
 H      8   7   6     1.096900450169   109.66035508   276.62351316
 H      8   7   6     1.096900073415   108.50578738   159.72799473
 H      9   7   6     1.012900536185   124.15177742   193.19537024
 H     12  10   9     1.012899981918   116.98319190   172.07170736
 H     13  12  10     1.096900067499   101.13164475   123.96587991
 H     15  14  13     1.085999988732   118.64928119   358.16398394
 H     16  15  14     1.086000023660   121.82985071   178.79218754
 H     17  16  15     1.086001119766   118.49320499   183.30099535
 H     19  18  17     0.973000011727   110.09174827   169.68485414
 H     20  14  13     1.086004484444   122.13881191   354.20080324

---------------------------
INTERNAL COORDINATES (A.U.)
---------------------------
 C      0   0   0     0.000000000000     0.00000000     0.00000000
 C      1   0   0     2.890616625023     0.00000000     0.00000000
 O      2   1   0     2.733759516728   110.69698078     0.00000000
 C      3   2   1     2.608739712106   114.28872885   173.79990111
 O      4   3   2     2.354428024801   124.87931403   349.38062420
 C      4   3   2     2.855205526770   110.98969368   175.65179670
 C      6   4   3     2.535123570377   123.31402040   168.16476819
 C      7   6   4     3.011761688745   129.22636270   359.56915224
 N      7   6   4     2.587963453584   119.11955516   181.42301045
 C      9   7   6     2.565345198350   126.60418079    11.56094410
 S     10   9   7     3.206520519486   122.33193361   182.09856759
 N     10   9   7     2.671926426498   117.29239953   351.06765422
 C     12  10   9     2.810599177315   120.96386531   354.95605585
 C     13  12  10     2.989102854842   115.17885706   247.99343917
 C     14  13  12     2.669429695165   119.40848857   261.63552204
 C     15  14  13     2.682368534736   121.73819581   177.54585293
 C     16  15  14     2.663578403328   118.67468346   354.86175035
 C     17  16  15     2.635963114352   119.32551924     8.52174268
 O     18  17  16     2.453685661326   116.94284362   180.75815518
 C     14  13  12     2.662475675713   121.99102338    79.54800531
 H      1   2   3     2.072839947620   107.88869814    43.31938306
 H      1   2   3     2.072840664390   115.05475724   285.61634165
 H      1   2   3     2.072838368689   111.21348189   166.52635083
 H      2   1   3     2.072840927484   108.33790132   127.04147794
 H      2   1   3     2.072840605309   107.88905994   246.60383530
 H      8   7   6     2.072833284104   117.21329455    38.40217060
 H      8   7   6     2.072841446994   109.66035508   276.62351316
 H      8   7   6     2.072840735032   108.50578738   159.72799473
 H      9   7   6     1.914104614292   124.15177742   193.19537024
 H     12  10   9     1.914103566879   116.98319190   172.07170736
 H     13  12  10     2.072840723852   101.13164475   123.96587991
 H     15  14  13     2.052242560145   118.64928119   358.16398394
 H     16  15  14     2.052242626150   121.82985071   178.79218754
 H     17  16  15     2.052244697490   118.49320499   183.30099535
 H     19  18  17     1.838703550466   110.09174827   169.68485414
 H     20  14  13     2.052251055809   122.13881191   354.20080324

---------------------
BASIS SET INFORMATION
---------------------
There are 5 groups of distinct atoms

 Group   1 Type C   : 18s5p2d1f contracted to 4s3p2d1f pattern {8811/311/11/1}
 Group   2 Type O   : 18s5p2d1f contracted to 4s3p2d1f pattern {8811/311/11/1}
 Group   3 Type N   : 18s5p2d1f contracted to 4s3p2d1f pattern {8811/311/11/1}
 Group   4 Type S   : 41s16p2d1f contracted to 5s4p2d1f pattern {13131311/7711/11/1}
 Group   5 Type H   : 5s2p1d contracted to 3s2p1d pattern {311/11/1}

Atom   0C    basis set group =>   1
Atom   1C    basis set group =>   1
Atom   2O    basis set group =>   2
Atom   3C    basis set group =>   1
Atom   4O    basis set group =>   2
Atom   5C    basis set group =>   1
Atom   6C    basis set group =>   1
Atom   7C    basis set group =>   1
Atom   8N    basis set group =>   3
Atom   9C    basis set group =>   1
Atom  10S    basis set group =>   4
Atom  11N    basis set group =>   3
Atom  12C    basis set group =>   1
Atom  13C    basis set group =>   1
Atom  14C    basis set group =>   1
Atom  15C    basis set group =>   1
Atom  16C    basis set group =>   1
Atom  17C    basis set group =>   1
Atom  18O    basis set group =>   2
Atom  19C    basis set group =>   1
Atom  20H    basis set group =>   5
Atom  21H    basis set group =>   5
Atom  22H    basis set group =>   5
Atom  23H    basis set group =>   5
Atom  24H    basis set group =>   5
Atom  25H    basis set group =>   5
Atom  26H    basis set group =>   5
Atom  27H    basis set group =>   5
Atom  28H    basis set group =>   5
Atom  29H    basis set group =>   5
Atom  30H    basis set group =>   5
Atom  31H    basis set group =>   5
Atom  32H    basis set group =>   5
Atom  33H    basis set group =>   5
Atom  34H    basis set group =>   5
Atom  35H    basis set group =>   5
---------------------------------
AUXILIARY/C BASIS SET INFORMATION
---------------------------------
There are 5 groups of distinct atoms

 Group   1 Type C   : 8s6p5d3f1g contracted to 8s6p5d3f1g pattern {11111111/111111/11111/111/1}
 Group   2 Type O   : 8s6p5d3f1g contracted to 8s6p5d3f1g pattern {11111111/111111/11111/111/1}
 Group   3 Type N   : 8s6p5d3f1g contracted to 8s6p5d3f1g pattern {11111111/111111/11111/111/1}
 Group   4 Type S   : 10s8p7d5f2g contracted to 10s8p7d5f2g pattern {1111111111/11111111/1111111/11111/11}
 Group   5 Type H   : 4s3p2d1f contracted to 4s3p2d1f pattern {1111/111/11/1}

Atom   0C    basis set group =>   1
Atom   1C    basis set group =>   1
Atom   2O    basis set group =>   2
Atom   3C    basis set group =>   1
Atom   4O    basis set group =>   2
Atom   5C    basis set group =>   1
Atom   6C    basis set group =>   1
Atom   7C    basis set group =>   1
Atom   8N    basis set group =>   3
Atom   9C    basis set group =>   1
Atom  10S    basis set group =>   4
Atom  11N    basis set group =>   3
Atom  12C    basis set group =>   1
Atom  13C    basis set group =>   1
Atom  14C    basis set group =>   1
Atom  15C    basis set group =>   1
Atom  16C    basis set group =>   1
Atom  17C    basis set group =>   1
Atom  18O    basis set group =>   2
Atom  19C    basis set group =>   1
Atom  20H    basis set group =>   5
Atom  21H    basis set group =>   5
Atom  22H    basis set group =>   5
Atom  23H    basis set group =>   5
Atom  24H    basis set group =>   5
Atom  25H    basis set group =>   5
Atom  26H    basis set group =>   5
Atom  27H    basis set group =>   5
Atom  28H    basis set group =>   5
Atom  29H    basis set group =>   5
Atom  30H    basis set group =>   5
Atom  31H    basis set group =>   5
Atom  32H    basis set group =>   5
Atom  33H    basis set group =>   5
Atom  34H    basis set group =>   5
Atom  35H    basis set group =>   5
------------------------------------------------------------------------------
                           ORCA GTO INTEGRAL CALCULATION
------------------------------------------------------------------------------
------------------------------------------------------------------------------
                   ___                                                        
                  /   \      - P O W E R E D   B Y -                         
                 /     \                                                     
                 |  |  |   _    _      __       _____    __    __             
                 |  |  |  | |  | |    /  \     |  _  \  |  |  /  |          
                  \  \/   | |  | |   /    \    | | | |  |  | /  /          
                 / \  \   | |__| |  /  /\  \   | |_| |  |  |/  /          
                |  |  |   |  __  | /  /__\  \  |    /   |      \           
                |  |  |   | |  | | |   __   |  |    \   |  |\   \          
                \     /   | |  | | |  |  |  |  | |\  \  |  | \   \       
                 \___/    |_|  |_| |__|  |__|  |_| \__\ |__|  \__/        
                                                                              
                      - O R C A' S   B I G   F R I E N D -                    
                                      &                                       
                       - I N T E G R A L  F E E D E R -                       
                                                                              
 v1 FN, 2020, v2 2021                                                         
------------------------------------------------------------------------------


Reading SHARK input file qm_input.vacu.SHARKINP.tmp ... ok
----------------------
SHARK INTEGRAL PACKAGE
----------------------

Number of atoms                             ...     36
Number of basis functions                   ...    828
Number of shells                            ...    298
Maximum angular momentum                    ...      3
Integral batch strategy                     ... SHARK/LIBINT Hybrid
RI-J (if used) integral strategy            ... SPLIT-RIJ (Revised 2003 algorithm where possible)
Printlevel                                  ...      1
Contraction scheme used                     ... SEGMENTED contraction
Coulomb Range Separation                    ... NOT USED
Exchange Range Separation                   ... NOT USED
Finite Nucleus Model                        ... NOT USED
Auxiliary Coulomb fitting basis             ... NOT available
Auxiliary J/K fitting basis                 ... NOT available
Auxiliary Correlation fitting basis         ... AVAILABLE
   # of basis functions in Aux-C            ...   2141
   # of shells in Aux-C                     ...    629
   Maximum angular momentum in Aux-C        ...      4
Auxiliary 'external' fitting basis          ... NOT available
Integral threshold                          ...     2.500000e-11
Primitive cut-off                           ...     2.500000e-12
Primitive pair pre-selection threshold      ...     2.500000e-12

Calculating pre-screening integrals         ... done (  0.7 sec) Dimension = 298
Organizing shell pair data                  ... done (  0.5 sec)
Shell pair information
Total number of shell pairs                 ...     44551
Shell pairs after pre-screening             ...     32700
Total number of primitive shell pairs       ...    234348
Primitive shell pairs kept                  ...     93577
          la=0 lb=0:   6545 shell pairs
          la=1 lb=0:   9114 shell pairs
          la=1 lb=1:   3210 shell pairs
          la=2 lb=0:   5213 shell pairs
          la=2 lb=1:   3572 shell pairs
          la=2 lb=2:   1011 shell pairs
          la=3 lb=0:   1887 shell pairs
          la=3 lb=1:   1294 shell pairs
          la=3 lb=2:    710 shell pairs
          la=3 lb=3:    144 shell pairs

Calculating one electron integrals          ... done (  0.4 sec)
Calculating RI/C V-Matrix + Cholesky decomp.... done (  0.5 sec)
Calculating Nuclear repulsion               ... done (  0.0 sec) ENN=   1684.989647999678 Eh

SHARK setup successfully completed in   2.3 seconds

Maximum memory used throughout the entire GTOINT-calculation: 481.9 MB
-------------------------------------------------------------------------------
                                 ORCA SCF
-------------------------------------------------------------------------------

------------
SCF SETTINGS
------------
Hamiltonian:
 Ab initio Hamiltonian  Method          .... Hartree-Fock(GTOs)


General Settings:
 Integral files         IntName         .... qm_input.vacu
 Hartree-Fock type      HFTyp           .... RHF
 Total Charge           Charge          ....    0
 Multiplicity           Mult            ....    1
 Number of Electrons    NEL             ....  154
 Basis Dimension        Dim             ....  828
 Nuclear Repulsion      ENuc            ....   1684.9896479997 Eh

Convergence Acceleration:
 DIIS                   CNVDIIS         .... on
   Start iteration      DIISMaxIt       ....    12
   Startup error        DIISStart       ....  0.200000
   # of expansion vecs  DIISMaxEq       ....     5
   Bias factor          DIISBfac        ....   1.050
   Max. coefficient     DIISMaxC        ....  10.000
 Trust-Rad. Augm. Hess. CNVTRAH         .... auto
   Auto Start mean grad. ratio tolernc. ....  1.125000
   Auto Start start iteration           ....    20
   Auto Start num. interpolation iter.  ....    10
   Max. Number of Micro iterations      ....    16
   Max. Number of Macro iterations      .... Maxiter - #DIIS iter
   Number of Davidson start vectors     ....     2
   Converg. threshold I  (grad. norm)   ....   1.000e-05
   Converg. threshold II (energy diff.) ....   1.000e-08
   Grad. Scal. Fac. for Micro threshold ....   0.100
   Minimum threshold for Micro iter.    ....   0.010
   NR start threshold (gradient norm)   ....   0.001
   Initial trust radius                 ....   0.400
   Minimum AH scaling param. (alpha)    ....   1.000
   Maximum AH scaling param. (alpha)    .... 1000.000
   Orbital update algorithm             .... Taylor
   White noise on init. David. guess    .... on
   Maximum white noise                  ....   0.010
   Quad. conv. algorithm                .... NR
 SOSCF                  CNVSOSCF        .... on
   Start iteration      SOSCFMaxIt      ....   150
   Startup grad/error   SOSCFStart      ....  0.003300
 Level Shifting         CNVShift        .... on
   Level shift para.    LevelShift      ....    0.2500
   Turn off err/grad.   ShiftErr        ....    0.0010
 Zerner damping         CNVZerner       .... off
 Static damping         CNVDamp         .... on
   Fraction old density DampFac         ....    0.7000
   Max. Damping (<1)    DampMax         ....    0.9800
   Min. Damping (>=0)   DampMin         ....    0.0000
   Turn off err/grad.   DampErr         ....    0.1000
 Fernandez-Rico         CNVRico         .... off

SCF Procedure:
 Maximum # iterations   MaxIter         ....   125
 SCF integral mode      SCFMode         .... Direct
   Integral package                     .... SHARK and LIBINT hybrid scheme
 Reset frequency        DirectResetFreq ....    20
 Integral Threshold     Thresh          ....  2.500e-11 Eh
 Primitive CutOff       TCut            ....  2.500e-12 Eh

Convergence Tolerance:
 Convergence Check Mode ConvCheckMode   .... Total+1el-Energy
 Convergence forced     ConvForced      .... 1
 Energy Change          TolE            ....  1.000e-08 Eh
 1-El. energy change                    ....  1.000e-05 Eh
 Orbital Gradient       TolG            ....  1.000e-05
 Orbital Rotation angle TolX            ....  1.000e-05
 DIIS Error             TolErr          ....  5.000e-07


Diagonalization of the overlap matrix:
Smallest eigenvalue                        ... 4.049e-05
Time for diagonalization                   ...    0.162 sec
Threshold for overlap eigenvalues          ... 1.000e-08
Number of eigenvalues below threshold      ... 0
Time for construction of square roots      ...    0.084 sec
Total time needed                          ...    0.250 sec

Time for model grid setup =    1.456 sec

------------------------------
INITIAL GUESS: MODEL POTENTIAL
------------------------------
Loading Hartree-Fock densities                     ... done
Calculating cut-offs                               ... done
Initializing the effective Hamiltonian             ... done
Setting up the integral package (SHARK)            ... done
Starting the Coulomb interaction                   ... done (   4.5 sec)
Reading the grid                                   ... done
Mapping shells                                     ... done
Starting the XC term evaluation                    ... done (   1.7 sec)
Transforming the Hamiltonian                       ... done (   0.1 sec)
Diagonalizing the Hamiltonian                      ... done (   0.1 sec)
Back transforming the eigenvectors                 ... done (   0.0 sec)
Now organizing SCF variables                       ... done
                      ------------------
                      INITIAL GUESS DONE (   7.9 sec)
                      ------------------
--------------
SCF ITERATIONS
--------------
ITER       Energy         Delta-E        Max-DP      RMS-DP      [F,P]     Damp
               ***  Starting incremental Fock matrix formation  ***
  0  -1269.9823076494   0.000000000000 0.04894462  0.00043872  0.3239063 0.7000
  1  -1270.2495129542  -0.267205304754 0.04486475  0.00035652  0.1921336 0.7000
                               ***Turning on DIIS***
  2  -1270.4159390182  -0.166426064040 0.02571046  0.00023615  0.1101669 0.7000
  3  -1272.4565401461  -2.040601127828 0.06290513  0.00049714  0.0832318 0.0000
  4  -1270.7308530786   1.725687067451 0.01615439  0.00010928  0.0078708 0.0000
  5  -1270.7850110496  -0.054157971038 0.00487022  0.00005298  0.0059201 0.0000
  6  -1270.7610356794   0.023975370244 0.00174637  0.00002629  0.0039458 0.0000
                      *** Initiating the SOSCF procedure ***
                           *** Shutting down DIIS ***
                      *** Re-Reading the Fockian *** 
                      *** Removing any level shift *** 
ITER      Energy       Delta-E        Grad      Rot      Max-DP    RMS-DP
  7  -1270.77781183  -0.0167761536  0.001180  0.001180  0.001244  0.000014
               *** Restarting incremental Fock matrix formation ***
  8  -1270.77799516  -0.0001833266  0.000646  0.001666  0.000669  0.000008
  9  -1270.77801132  -0.0000161636  0.000307  0.001954  0.000933  0.000010
 10  -1270.77801818  -0.0000068574  0.000088  0.000177  0.000168  0.000002
 11  -1270.77801872  -0.0000005378  0.000053  0.000092  0.000058  0.000001
 12  -1270.77801885  -0.0000001341  0.000012  0.000044  0.000032  0.000000
 13  -1270.77801887  -0.0000000215  0.000010  0.000044  0.000024  0.000000
                  ***Gradient check signals convergence***
              ***Rediagonalizing the Fockian in SOSCF/NRSCF***

               *****************************************************
               *                     SUCCESS                       *
               *           SCF CONVERGED AFTER  14 CYCLES          *
               *****************************************************


----------------
TOTAL SCF ENERGY
----------------

Total Energy       :        -1270.77801888 Eh          -34579.62789 eV

Components:
Nuclear Repulsion  :         1684.98964800 Eh           45850.89934 eV
Electronic Energy  :        -2955.76766688 Eh          -80430.52722 eV
One Electron Energy:        -5091.02625987 Eh         -138533.86746 eV
Two Electron Energy:         2135.25859299 Eh           58103.34023 eV

Virial components:
Potential Energy   :        -2539.32639350 Eh          -69098.58407 eV
Kinetic Energy     :         1268.54837461 Eh           34518.95618 eV
Virial Ratio       :            2.00175763


---------------
SCF CONVERGENCE
---------------

  Last Energy change         ...   -9.0108e-09  Tolerance :   1.0000e-08
  Last MAX-Density change    ...    2.8933e-06  Tolerance :   1.0000e-07
  Last RMS-Density change    ...    4.3295e-08  Tolerance :   5.0000e-09
  Last Orbital Gradient      ...    1.9510e-06  Tolerance :   1.0000e-05
  Last Orbital Rotation      ...    7.6387e-06  Tolerance :   1.0000e-05

             **** THE GBW FILE WAS UPDATED (qm_input.vacu.gbw) ****
             **** DENSITY qm_input.vacu.scfp WAS UPDATED ****
             **** ENERGY FILE WAS UPDATED (qm_input.vacu.en.tmp) ****
             **** THE GBW FILE WAS UPDATED (qm_input.vacu.gbw) ****
             **** DENSITY qm_input.vacu.scfp WAS UPDATED ****
----------------
ORBITAL ENERGIES
----------------

  NO   OCC          E(Eh)            E(eV) 
   0   2.0000     -91.894582     -2500.5787 
   1   2.0000     -20.612695      -560.9000 
   2   2.0000     -20.599856      -560.5506 
   3   2.0000     -20.548565      -559.1549 
   4   2.0000     -15.635184      -425.4550 
   5   2.0000     -15.610242      -424.7763 
   6   2.0000     -11.404225      -310.3247 
   7   2.0000     -11.393362      -310.0291 
   8   2.0000     -11.337370      -308.5055 
   9   2.0000     -11.314399      -307.8805 
  10   2.0000     -11.311606      -307.8044 
  11   2.0000     -11.295971      -307.3790 
  12   2.0000     -11.267661      -306.6087 
  13   2.0000     -11.263061      -306.4835 
  14   2.0000     -11.261632      -306.4446 
  15   2.0000     -11.253855      -306.2330 
  16   2.0000     -11.242335      -305.9195 
  17   2.0000     -11.235767      -305.7408 
  18   2.0000     -11.232892      -305.6625 
  19   2.0000     -11.230875      -305.6077 
  20   2.0000      -8.898030      -242.1277 
  21   2.0000      -6.579411      -179.0349 
  22   2.0000      -6.577578      -178.9850 
  23   2.0000      -6.577000      -178.9693 
  24   2.0000      -1.447320       -39.3836 
  25   2.0000      -1.443956       -39.2920 
  26   2.0000      -1.349726       -36.7279 
  27   2.0000      -1.344291       -36.5800 
  28   2.0000      -1.231310       -33.5056 
  29   2.0000      -1.149419       -31.2773 
  30   2.0000      -1.117728       -30.4149 
  31   2.0000      -1.042124       -28.3576 
  32   2.0000      -1.034540       -28.1513 
  33   2.0000      -1.005441       -27.3594 
  34   2.0000      -0.993441       -27.0329 
  35   2.0000      -0.975972       -26.5575 
  36   2.0000      -0.923386       -25.1266 
  37   2.0000      -0.887894       -24.1608 
  38   2.0000      -0.857641       -23.3376 
  39   2.0000      -0.846231       -23.0271 
  40   2.0000      -0.824096       -22.4248 
  41   2.0000      -0.814112       -22.1531 
  42   2.0000      -0.769937       -20.9511 
  43   2.0000      -0.747696       -20.3458 
  44   2.0000      -0.714934       -19.4543 
  45   2.0000      -0.695134       -18.9156 
  46   2.0000      -0.683846       -18.6084 
  47   2.0000      -0.679978       -18.5031 
  48   2.0000      -0.677494       -18.4355 
  49   2.0000      -0.663896       -18.0655 
  50   2.0000      -0.645147       -17.5553 
  51   2.0000      -0.643745       -17.5172 
  52   2.0000      -0.623061       -16.9544 
  53   2.0000      -0.616552       -16.7772 
  54   2.0000      -0.606615       -16.5068 
  55   2.0000      -0.600505       -16.3406 
  56   2.0000      -0.587542       -15.9878 
  57   2.0000      -0.576396       -15.6845 
  58   2.0000      -0.575425       -15.6581 
  59   2.0000      -0.569308       -15.4917 
  60   2.0000      -0.561465       -15.2782 
  61   2.0000      -0.555756       -15.1229 
  62   2.0000      -0.530259       -14.4291 
  63   2.0000      -0.520112       -14.1530 
  64   2.0000      -0.516188       -14.0462 
  65   2.0000      -0.512070       -13.9341 
  66   2.0000      -0.504074       -13.7165 
  67   2.0000      -0.492903       -13.4126 
  68   2.0000      -0.479383       -13.0447 
  69   2.0000      -0.464671       -12.6443 
  70   2.0000      -0.459711       -12.5094 
  71   2.0000      -0.450230       -12.2514 
  72   2.0000      -0.358516        -9.7557 
  73   2.0000      -0.347671        -9.4606 
  74   2.0000      -0.328211        -8.9311 
  75   2.0000      -0.317880        -8.6500 
  76   2.0000      -0.311426        -8.4743 
  77   0.0000       0.070370         1.9149 
  78   0.0000       0.103248         2.8095 
  79   0.0000       0.118060         3.2126 
  80   0.0000       0.130505         3.5512 
  81   0.0000       0.137136         3.7316 
  82   0.0000       0.144307         3.9268 
  83   0.0000       0.147818         4.0223 
  84   0.0000       0.152458         4.1486 
  85   0.0000       0.156747         4.2653 
  86   0.0000       0.171907         4.6778 
  87   0.0000       0.178192         4.8488 
  88   0.0000       0.191145         5.2013 
  89   0.0000       0.199686         5.4337 
  90   0.0000       0.203167         5.5284 
  91   0.0000       0.203764         5.5447 
  92   0.0000       0.209011         5.6875 
  93   0.0000       0.217637         5.9222 
  94   0.0000       0.221309         6.0221 
  95   0.0000       0.232138         6.3168 
  96   0.0000       0.240200         6.5362 
  97   0.0000       0.248703         6.7676 
  98   0.0000       0.254089         6.9141 
  99   0.0000       0.274557         7.4711 
 100   0.0000       0.284134         7.7317 
 101   0.0000       0.302383         8.2283 
 102   0.0000       0.312136         8.4937 
 103   0.0000       0.319481         8.6935 
 104   0.0000       0.324144         8.8204 
 105   0.0000       0.332402         9.0451 
 106   0.0000       0.342031         9.3071 
 107   0.0000       0.345382         9.3983 
 108   0.0000       0.356859         9.7106 
 109   0.0000       0.364367         9.9149 
 110   0.0000       0.368768        10.0347 
 111   0.0000       0.380897        10.3647 
 112   0.0000       0.384578        10.4649 
 113   0.0000       0.389404        10.5962 
 114   0.0000       0.395058        10.7501 
 115   0.0000       0.406411        11.0590 
 116   0.0000       0.413385        11.2488 
 117   0.0000       0.416703        11.3391 
 118   0.0000       0.422166        11.4877 
 119   0.0000       0.431029        11.7289 
 120   0.0000       0.438579        11.9343 
 121   0.0000       0.442165        12.0319 
 122   0.0000       0.444377        12.0921 
 123   0.0000       0.450270        12.2525 
 124   0.0000       0.464978        12.6527 
 125   0.0000       0.466501        12.6941 
 126   0.0000       0.469286        12.7699 
 127   0.0000       0.477753        13.0003 
 128   0.0000       0.482202        13.1214 
 129   0.0000       0.485227        13.2037 
 130   0.0000       0.488447        13.2913 
 131   0.0000       0.498395        13.5620 
 132   0.0000       0.509301        13.8588 
 133   0.0000       0.511100        13.9077 
 134   0.0000       0.516830        14.0637 
 135   0.0000       0.525462        14.2986 
 136   0.0000       0.528987        14.3945 
 137   0.0000       0.539959        14.6930 
 138   0.0000       0.544739        14.8231 
 139   0.0000       0.545821        14.8525 
 140   0.0000       0.549684        14.9577 
 141   0.0000       0.559420        15.2226 
 142   0.0000       0.565264        15.3816 
 143   0.0000       0.567389        15.4394 
 144   0.0000       0.573827        15.6146 
 145   0.0000       0.577830        15.7235 
 146   0.0000       0.579111        15.7584 
 147   0.0000       0.581932        15.8352 
 148   0.0000       0.588074        16.0023 
 149   0.0000       0.595869        16.2144 
 150   0.0000       0.600481        16.3399 
 151   0.0000       0.605862        16.4863 
 152   0.0000       0.609671        16.5900 
 153   0.0000       0.611339        16.6354 
 154   0.0000       0.614241        16.7144 
 155   0.0000       0.624059        16.9815 
 156   0.0000       0.625658        17.0250 
 157   0.0000       0.627890        17.0858 
 158   0.0000       0.631931        17.1957 
 159   0.0000       0.633366        17.2348 
 160   0.0000       0.638265        17.3681 
 161   0.0000       0.642701        17.4888 
 162   0.0000       0.646914        17.6034 
 163   0.0000       0.653053        17.7705 
 164   0.0000       0.656903        17.8753 
 165   0.0000       0.658302        17.9133 
 166   0.0000       0.670179        18.2365 
 167   0.0000       0.673023        18.3139 
 168   0.0000       0.676323        18.4037 
 169   0.0000       0.687725        18.7140 
 170   0.0000       0.699665        19.0389 
 171   0.0000       0.703822        19.1520 
 172   0.0000       0.715147        19.4601 
 173   0.0000       0.718371        19.5479 
 174   0.0000       0.723660        19.6918 
 175   0.0000       0.727652        19.8004 
 176   0.0000       0.735027        20.0011 
 177   0.0000       0.740030        20.1372 
 178   0.0000       0.748681        20.3726 
 179   0.0000       0.751842        20.4587 
 180   0.0000       0.758248        20.6330 
 181   0.0000       0.768200        20.9038 
 182   0.0000       0.772560        21.0224 
 183   0.0000       0.778675        21.1888 
 184   0.0000       0.790322        21.5057 
 185   0.0000       0.794172        21.6105 
 186   0.0000       0.805735        21.9252 
 187   0.0000       0.813582        22.1387 
 188   0.0000       0.819010        22.2864 
 189   0.0000       0.820819        22.3356 
 190   0.0000       0.824288        22.4300 
 191   0.0000       0.838820        22.8255 
 192   0.0000       0.842819        22.9343 
 193   0.0000       0.849721        23.1221 
 194   0.0000       0.859701        23.3937 
 195   0.0000       0.868724        23.6392 
 196   0.0000       0.882411        24.0116 
 197   0.0000       0.887158        24.1408 
 198   0.0000       0.897095        24.4112 
 199   0.0000       0.901166        24.5220 
 200   0.0000       0.912328        24.8257 
 201   0.0000       0.915183        24.9034 
 202   0.0000       0.919482        25.0204 
 203   0.0000       0.926836        25.2205 
 204   0.0000       0.932363        25.3709 
 205   0.0000       0.937554        25.5121 
 206   0.0000       0.950225        25.8569 
 207   0.0000       0.956277        26.0216 
 208   0.0000       0.961121        26.1534 
 209   0.0000       0.963712        26.2239 
 210   0.0000       0.978834        26.6354 
 211   0.0000       0.980414        26.6784 
 212   0.0000       0.989907        26.9367 
 213   0.0000       0.991961        26.9926 
 214   0.0000       1.000079        27.2135 
 215   0.0000       1.006359        27.3844 
 216   0.0000       1.013224        27.5712 
 217   0.0000       1.019105        27.7313 
 218   0.0000       1.027475        27.9590 
 219   0.0000       1.034984        28.1633 
 220   0.0000       1.039514        28.2866 
 221   0.0000       1.050812        28.5941 
 222   0.0000       1.051776        28.6203 
 223   0.0000       1.056760        28.7559 
 224   0.0000       1.064455        28.9653 
 225   0.0000       1.068766        29.0826 
 226   0.0000       1.089021        29.6338 
 227   0.0000       1.090409        29.6715 
 228   0.0000       1.100944        29.9582 
 229   0.0000       1.109927        30.2026 
 230   0.0000       1.118041        30.4234 
 231   0.0000       1.125355        30.6225 
 232   0.0000       1.130119        30.7521 
 233   0.0000       1.139177        30.9986 
 234   0.0000       1.150462        31.3057 
 235   0.0000       1.158415        31.5221 
 236   0.0000       1.166973        31.7549 
 237   0.0000       1.173180        31.9239 
 238   0.0000       1.180263        32.1166 
 239   0.0000       1.188114        32.3302 
 240   0.0000       1.193082        32.4654 
 241   0.0000       1.195002        32.5177 
 242   0.0000       1.196275        32.5523 
 243   0.0000       1.209363        32.9084 
 244   0.0000       1.212980        33.0069 
 245   0.0000       1.220384        33.2083 
 246   0.0000       1.223191        33.2847 
 247   0.0000       1.231806        33.5191 
 248   0.0000       1.235930        33.6314 
 249   0.0000       1.238937        33.7132 
 250   0.0000       1.254356        34.1328 
 251   0.0000       1.264367        34.4052 
 252   0.0000       1.276055        34.7232 
 253   0.0000       1.284150        34.9435 
 254   0.0000       1.291602        35.1463 
 255   0.0000       1.293139        35.1881 
 256   0.0000       1.298699        35.3394 
 257   0.0000       1.303275        35.4639 
 258   0.0000       1.317451        35.8497 
 259   0.0000       1.322892        35.9977 
 260   0.0000       1.335846        36.3502 
 261   0.0000       1.338467        36.4215 
 262   0.0000       1.346573        36.6421 
 263   0.0000       1.353112        36.8201 
 264   0.0000       1.360224        37.0136 
 265   0.0000       1.363166        37.0936 
 266   0.0000       1.377405        37.4811 
 267   0.0000       1.391187        37.8561 
 268   0.0000       1.395173        37.9646 
 269   0.0000       1.398701        38.0606 
 270   0.0000       1.409467        38.3535 
 271   0.0000       1.423238        38.7283 
 272   0.0000       1.425915        38.8011 
 273   0.0000       1.433582        39.0097 
 274   0.0000       1.440266        39.1916 
 275   0.0000       1.461184        39.7608 
 276   0.0000       1.470408        40.0118 
 277   0.0000       1.474413        40.1208 
 278   0.0000       1.482943        40.3529 
 279   0.0000       1.488175        40.4953 
 280   0.0000       1.490317        40.5536 
 281   0.0000       1.499055        40.7914 
 282   0.0000       1.502386        40.8820 
 283   0.0000       1.508601        41.0511 
 284   0.0000       1.515706        41.2444 
 285   0.0000       1.522748        41.4361 
 286   0.0000       1.525717        41.5169 
 287   0.0000       1.534494        41.7557 
 288   0.0000       1.537435        41.8357 
 289   0.0000       1.543323        41.9959 
 290   0.0000       1.548975        42.1498 
 291   0.0000       1.562369        42.5142 
 292   0.0000       1.566705        42.6322 
 293   0.0000       1.573440        42.8155 
 294   0.0000       1.576341        42.8944 
 295   0.0000       1.578243        42.9462 
 296   0.0000       1.591258        43.3003 
 297   0.0000       1.593451        43.3600 
 298   0.0000       1.599174        43.5157 
 299   0.0000       1.611546        43.8524 
 300   0.0000       1.617957        44.0269 
 301   0.0000       1.630722        44.3742 
 302   0.0000       1.644201        44.7410 
 303   0.0000       1.649725        44.8913 
 304   0.0000       1.658995        45.1436 
 305   0.0000       1.672807        45.5194 
 306   0.0000       1.674076        45.5539 
 307   0.0000       1.678628        45.6778 
 308   0.0000       1.696939        46.1761 
 309   0.0000       1.701264        46.2937 
 310   0.0000       1.710148        46.5355 
 311   0.0000       1.711559        46.5739 
 312   0.0000       1.723275        46.8927 
 313   0.0000       1.730315        47.0843 
 314   0.0000       1.736527        47.2533 
 315   0.0000       1.751332        47.6562 
 316   0.0000       1.758562        47.8529 
 317   0.0000       1.768617        48.1265 
 318   0.0000       1.785794        48.5939 
 319   0.0000       1.797429        48.9105 
 320   0.0000       1.799555        48.9684 
 321   0.0000       1.803231        49.0684 
 322   0.0000       1.814620        49.3783 
 323   0.0000       1.830020        49.7974 
 324   0.0000       1.836653        49.9779 
 325   0.0000       1.845770        50.2259 
 326   0.0000       1.859746        50.6062 
 327   0.0000       1.881023        51.1852 
 328   0.0000       1.889330        51.4113 
 329   0.0000       1.909051        51.9479 
 330   0.0000       1.918605        52.2079 
 331   0.0000       1.930849        52.5411 
 332   0.0000       1.940668        52.8083 
 333   0.0000       1.947527        52.9949 
 334   0.0000       1.952795        53.1382 
 335   0.0000       1.959442        53.3191 
 336   0.0000       1.974700        53.7343 
 337   0.0000       1.983816        53.9824 
 338   0.0000       2.005011        54.5591 
 339   0.0000       2.010523        54.7091 
 340   0.0000       2.017792        54.9069 
 341   0.0000       2.034183        55.3529 
 342   0.0000       2.052919        55.8628 
 343   0.0000       2.060171        56.0601 
 344   0.0000       2.081991        56.6539 
 345   0.0000       2.093560        56.9687 
 346   0.0000       2.097548        57.0772 
 347   0.0000       2.116916        57.6042 
 348   0.0000       2.147757        58.4434 
 349   0.0000       2.156947        58.6935 
 350   0.0000       2.163909        58.8830 
 351   0.0000       2.170405        59.0597 
 352   0.0000       2.182816        59.3975 
 353   0.0000       2.220657        60.4272 
 354   0.0000       2.226700        60.5916 
 355   0.0000       2.249637        61.2157 
 356   0.0000       2.251069        61.2547 
 357   0.0000       2.255803        61.3835 
 358   0.0000       2.272408        61.8354 
 359   0.0000       2.290522        62.3283 
 360   0.0000       2.295896        62.4745 
 361   0.0000       2.307554        62.7917 
 362   0.0000       2.328842        63.3710 
 363   0.0000       2.337923        63.6181 
 364   0.0000       2.345441        63.8227 
 365   0.0000       2.356607        64.1265 
 366   0.0000       2.363366        64.3105 
 367   0.0000       2.375944        64.6527 
 368   0.0000       2.401031        65.3354 
 369   0.0000       2.420185        65.8566 
 370   0.0000       2.431677        66.1693 
 371   0.0000       2.439769        66.3895 
 372   0.0000       2.455264        66.8111 
 373   0.0000       2.466422        67.1148 
 374   0.0000       2.482963        67.5649 
 375   0.0000       2.486972        67.6739 
 376   0.0000       2.512452        68.3673 
 377   0.0000       2.517794        68.5127 
 378   0.0000       2.526162        68.7404 
 379   0.0000       2.540210        69.1226 
 380   0.0000       2.549611        69.3784 
 381   0.0000       2.561057        69.6899 
 382   0.0000       2.578477        70.1639 
 383   0.0000       2.596699        70.6598 
 384   0.0000       2.602139        70.8078 
 385   0.0000       2.613885        71.1274 
 386   0.0000       2.617962        71.2384 
 387   0.0000       2.627561        71.4996 
 388   0.0000       2.639504        71.8246 
 389   0.0000       2.642992        71.9195 
 390   0.0000       2.653744        72.2120 
 391   0.0000       2.666047        72.5468 
 392   0.0000       2.676077        72.8198 
 393   0.0000       2.703345        73.5618 
 394   0.0000       2.705116        73.6099 
 395   0.0000       2.713021        73.8250 
 396   0.0000       2.724046        74.1251 
 397   0.0000       2.732503        74.3552 
 398   0.0000       2.748996        74.8040 
 399   0.0000       2.752033        74.8866 
 400   0.0000       2.760802        75.1252 
 401   0.0000       2.768504        75.3348 
 402   0.0000       2.769721        75.3679 
 403   0.0000       2.788126        75.8688 
 404   0.0000       2.793608        76.0179 
 405   0.0000       2.805422        76.3394 
 406   0.0000       2.814196        76.5782 
 407   0.0000       2.821241        76.7699 
 408   0.0000       2.833357        77.0996 
 409   0.0000       2.851351        77.5892 
 410   0.0000       2.859933        77.8227 
 411   0.0000       2.863421        77.9177 
 412   0.0000       2.872324        78.1599 
 413   0.0000       2.886534        78.5466 
 414   0.0000       2.895852        78.8001 
 415   0.0000       2.899721        78.9054 
 416   0.0000       2.907716        79.1230 
 417   0.0000       2.911255        79.2193 
 418   0.0000       2.935094        79.8680 
 419   0.0000       2.941987        80.0555 
 420   0.0000       2.949805        80.2683 
 421   0.0000       2.964235        80.6609 
 422   0.0000       2.969369        80.8006 
 423   0.0000       2.978479        81.0485 
 424   0.0000       2.989137        81.3385 
 425   0.0000       3.004409        81.7541 
 426   0.0000       3.009495        81.8925 
 427   0.0000       3.012143        81.9646 
 428   0.0000       3.013944        82.0136 
 429   0.0000       3.024430        82.2989 
 430   0.0000       3.032114        82.5080 
 431   0.0000       3.047520        82.9272 
 432   0.0000       3.050227        83.0009 
 433   0.0000       3.070261        83.5461 
 434   0.0000       3.074911        83.6726 
 435   0.0000       3.081527        83.8526 
 436   0.0000       3.083036        83.8937 
 437   0.0000       3.090638        84.1005 
 438   0.0000       3.094174        84.1967 
 439   0.0000       3.098629        84.3180 
 440   0.0000       3.104868        84.4877 
 441   0.0000       3.110750        84.6478 
 442   0.0000       3.120539        84.9142 
 443   0.0000       3.133750        85.2737 
 444   0.0000       3.137856        85.3854 
 445   0.0000       3.149285        85.6964 
 446   0.0000       3.156423        85.8906 
 447   0.0000       3.158084        85.9358 
 448   0.0000       3.168326        86.2145 
 449   0.0000       3.177244        86.4572 
 450   0.0000       3.181175        86.5642 
 451   0.0000       3.192471        86.8716 
 452   0.0000       3.209782        87.3426 
 453   0.0000       3.220234        87.6270 
 454   0.0000       3.222397        87.6859 
 455   0.0000       3.230640        87.9102 
 456   0.0000       3.241873        88.2159 
 457   0.0000       3.243346        88.2559 
 458   0.0000       3.252881        88.5154 
 459   0.0000       3.264949        88.8438 
 460   0.0000       3.275654        89.1351 
 461   0.0000       3.276172        89.1492 
 462   0.0000       3.278966        89.2252 
 463   0.0000       3.286345        89.4260 
 464   0.0000       3.290749        89.5458 
 465   0.0000       3.297080        89.7181 
 466   0.0000       3.301049        89.8261 
 467   0.0000       3.302442        89.8640 
 468   0.0000       3.313043        90.1525 
 469   0.0000       3.318282        90.2951 
 470   0.0000       3.322604        90.4126 
 471   0.0000       3.326047        90.5063 
 472   0.0000       3.336557        90.7923 
 473   0.0000       3.344143        90.9987 
 474   0.0000       3.346023        91.0499 
 475   0.0000       3.351603        91.2018 
 476   0.0000       3.359210        91.4088 
 477   0.0000       3.362114        91.4878 
 478   0.0000       3.377590        91.9089 
 479   0.0000       3.380027        91.9752 
 480   0.0000       3.388124        92.1955 
 481   0.0000       3.390437        92.2585 
 482   0.0000       3.397506        92.4508 
 483   0.0000       3.401249        92.5527 
 484   0.0000       3.403639        92.6177 
 485   0.0000       3.410851        92.8140 
 486   0.0000       3.415561        92.9421 
 487   0.0000       3.421045        93.0914 
 488   0.0000       3.424619        93.1886 
 489   0.0000       3.427444        93.2655 
 490   0.0000       3.433864        93.4402 
 491   0.0000       3.439602        93.5963 
 492   0.0000       3.442107        93.6645 
 493   0.0000       3.455518        94.0294 
 494   0.0000       3.457777        94.0909 
 495   0.0000       3.467264        94.3490 
 496   0.0000       3.470346        94.4329 
 497   0.0000       3.475506        94.5733 
 498   0.0000       3.478666        94.6593 
 499   0.0000       3.482309        94.7585 
 500   0.0000       3.493134        95.0530 
 501   0.0000       3.507144        95.4342 
 502   0.0000       3.508588        95.4735 
 503   0.0000       3.515685        95.6666 
 504   0.0000       3.520484        95.7972 
 505   0.0000       3.539800        96.3228 
 506   0.0000       3.547531        96.5332 
 507   0.0000       3.554624        96.7262 
 508   0.0000       3.562478        96.9399 
 509   0.0000       3.564598        96.9976 
 510   0.0000       3.576860        97.3313 
 511   0.0000       3.590382        97.6993 
 512   0.0000       3.597355        97.8890 
 513   0.0000       3.600772        97.9820 
 514   0.0000       3.612353        98.2971 
 515   0.0000       3.614593        98.3581 
 516   0.0000       3.616206        98.4020 
 517   0.0000       3.624886        98.6382 
 518   0.0000       3.634158        98.8905 
 519   0.0000       3.640155        99.0537 
 520   0.0000       3.641575        99.0923 
 521   0.0000       3.646563        99.2280 
 522   0.0000       3.659707        99.5857 
 523   0.0000       3.666028        99.7577 
 524   0.0000       3.668971        99.8378 
 525   0.0000       3.672917        99.9452 
 526   0.0000       3.677652       100.0740 
 527   0.0000       3.685209       100.2796 
 528   0.0000       3.697031       100.6013 
 529   0.0000       3.701188       100.7145 
 530   0.0000       3.708802       100.9216 
 531   0.0000       3.715262       101.0974 
 532   0.0000       3.723278       101.3155 
 533   0.0000       3.724204       101.3407 
 534   0.0000       3.732075       101.5549 
 535   0.0000       3.737434       101.7008 
 536   0.0000       3.747436       101.9729 
 537   0.0000       3.750221       102.0487 
 538   0.0000       3.756525       102.2202 
 539   0.0000       3.765307       102.4592 
 540   0.0000       3.766935       102.5035 
 541   0.0000       3.772340       102.6506 
 542   0.0000       3.782942       102.9391 
 543   0.0000       3.785478       103.0081 
 544   0.0000       3.789420       103.1154 
 545   0.0000       3.796363       103.3043 
 546   0.0000       3.805780       103.5605 
 547   0.0000       3.807590       103.6098 
 548   0.0000       3.813253       103.7639 
 549   0.0000       3.818702       103.9122 
 550   0.0000       3.839478       104.4775 
 551   0.0000       3.848718       104.7289 
 552   0.0000       3.859056       105.0102 
 553   0.0000       3.875129       105.4476 
 554   0.0000       3.879866       105.5765 
 555   0.0000       3.883094       105.6644 
 556   0.0000       3.887491       105.7840 
 557   0.0000       3.889043       105.8262 
 558   0.0000       3.900779       106.1456 
 559   0.0000       3.904943       106.2589 
 560   0.0000       3.923267       106.7575 
 561   0.0000       3.927124       106.8625 
 562   0.0000       3.941647       107.2577 
 563   0.0000       3.944785       107.3431 
 564   0.0000       3.956711       107.6676 
 565   0.0000       3.967121       107.9508 
 566   0.0000       3.984465       108.4228 
 567   0.0000       3.986635       108.4818 
 568   0.0000       4.005531       108.9960 
 569   0.0000       4.009338       109.0996 
 570   0.0000       4.022673       109.4625 
 571   0.0000       4.027477       109.5932 
 572   0.0000       4.033290       109.7514 
 573   0.0000       4.038014       109.8800 
 574   0.0000       4.049140       110.1827 
 575   0.0000       4.061890       110.5297 
 576   0.0000       4.068078       110.6980 
 577   0.0000       4.073261       110.8391 
 578   0.0000       4.087618       111.2298 
 579   0.0000       4.092534       111.3635 
 580   0.0000       4.100381       111.5770 
 581   0.0000       4.103024       111.6489 
 582   0.0000       4.110410       111.8499 
 583   0.0000       4.116088       112.0044 
 584   0.0000       4.122597       112.1816 
 585   0.0000       4.128964       112.3548 
 586   0.0000       4.134398       112.5027 
 587   0.0000       4.145062       112.7929 
 588   0.0000       4.153349       113.0184 
 589   0.0000       4.161102       113.2293 
 590   0.0000       4.167129       113.3933 
 591   0.0000       4.171766       113.5195 
 592   0.0000       4.175070       113.6094 
 593   0.0000       4.183625       113.8422 
 594   0.0000       4.196429       114.1907 
 595   0.0000       4.207391       114.4889 
 596   0.0000       4.208637       114.5228 
 597   0.0000       4.215711       114.7153 
 598   0.0000       4.227027       115.0232 
 599   0.0000       4.230134       115.1078 
 600   0.0000       4.236027       115.2682 
 601   0.0000       4.237823       115.3170 
 602   0.0000       4.249089       115.6236 
 603   0.0000       4.258708       115.8853 
 604   0.0000       4.271230       116.2261 
 605   0.0000       4.278880       116.4342 
 606   0.0000       4.284596       116.5898 
 607   0.0000       4.291908       116.7888 
 608   0.0000       4.304392       117.1285 
 609   0.0000       4.309636       117.2712 
 610   0.0000       4.323756       117.6554 
 611   0.0000       4.331282       117.8602 
 612   0.0000       4.334846       117.9571 
 613   0.0000       4.343291       118.1870 
 614   0.0000       4.348711       118.3344 
 615   0.0000       4.359519       118.6286 
 616   0.0000       4.369057       118.8881 
 617   0.0000       4.371402       118.9519 
 618   0.0000       4.384901       119.3192 
 619   0.0000       4.386682       119.3677 
 620   0.0000       4.398118       119.6789 
 621   0.0000       4.408046       119.9490 
 622   0.0000       4.419825       120.2696 
 623   0.0000       4.427174       120.4695 
 624   0.0000       4.432430       120.6126 
 625   0.0000       4.434045       120.6565 
 626   0.0000       4.447482       121.0222 
 627   0.0000       4.453627       121.1893 
 628   0.0000       4.455682       121.2453 
 629   0.0000       4.465408       121.5099 
 630   0.0000       4.473933       121.7419 
 631   0.0000       4.476316       121.8067 
 632   0.0000       4.484795       122.0375 
 633   0.0000       4.493746       122.2810 
 634   0.0000       4.504306       122.5684 
 635   0.0000       4.514956       122.8582 
 636   0.0000       4.534383       123.3868 
 637   0.0000       4.537207       123.4637 
 638   0.0000       4.546694       123.7218 
 639   0.0000       4.555212       123.9536 
 640   0.0000       4.565080       124.2222 
 641   0.0000       4.566813       124.2693 
 642   0.0000       4.569975       124.3553 
 643   0.0000       4.587238       124.8251 
 644   0.0000       4.593586       124.9978 
 645   0.0000       4.604159       125.2855 
 646   0.0000       4.611513       125.4857 
 647   0.0000       4.617572       125.6505 
 648   0.0000       4.630040       125.9898 
 649   0.0000       4.641271       126.2954 
 650   0.0000       4.648503       126.4922 
 651   0.0000       4.650374       126.5431 
 652   0.0000       4.656203       126.7017 
 653   0.0000       4.664517       126.9280 
 654   0.0000       4.685491       127.4987 
 655   0.0000       4.696292       127.7926 
 656   0.0000       4.702312       127.9564 
 657   0.0000       4.707295       128.0920 
 658   0.0000       4.722664       128.5102 
 659   0.0000       4.725542       128.5885 
 660   0.0000       4.751349       129.2908 
 661   0.0000       4.759487       129.5122 
 662   0.0000       4.761160       129.5577 
 663   0.0000       4.773413       129.8912 
 664   0.0000       4.786134       130.2373 
 665   0.0000       4.805760       130.7714 
 666   0.0000       4.817587       131.0932 
 667   0.0000       4.836917       131.6192 
 668   0.0000       4.846224       131.8725 
 669   0.0000       4.860475       132.2603 
 670   0.0000       4.883038       132.8742 
 671   0.0000       4.902105       133.3931 
 672   0.0000       4.927089       134.0729 
 673   0.0000       4.952091       134.7533 
 674   0.0000       4.962989       135.0498 
 675   0.0000       4.979511       135.4994 
 676   0.0000       4.990792       135.8064 
 677   0.0000       5.018427       136.5583 
 678   0.0000       5.030786       136.8946 
 679   0.0000       5.049076       137.3923 
 680   0.0000       5.053091       137.5016 
 681   0.0000       5.057502       137.6216 
 682   0.0000       5.063374       137.7814 
 683   0.0000       5.072458       138.0286 
 684   0.0000       5.082900       138.3127 
 685   0.0000       5.086278       138.4046 
 686   0.0000       5.098959       138.7497 
 687   0.0000       5.112198       139.1100 
 688   0.0000       5.131812       139.6437 
 689   0.0000       5.135128       139.7339 
 690   0.0000       5.144794       139.9970 
 691   0.0000       5.160466       140.4234 
 692   0.0000       5.165635       140.5641 
 693   0.0000       5.167808       140.6232 
 694   0.0000       5.190006       141.2272 
 695   0.0000       5.198307       141.4531 
 696   0.0000       5.223033       142.1260 
 697   0.0000       5.235987       142.4785 
 698   0.0000       5.237930       142.5313 
 699   0.0000       5.246853       142.7741 
 700   0.0000       5.261253       143.1660 
 701   0.0000       5.273334       143.4947 
 702   0.0000       5.277938       143.6200 
 703   0.0000       5.289184       143.9260 
 704   0.0000       5.313831       144.5967 
 705   0.0000       5.326306       144.9362 
 706   0.0000       5.326593       144.9440 
 707   0.0000       5.343134       145.3941 
 708   0.0000       5.346018       145.4726 
 709   0.0000       5.359876       145.8497 
 710   0.0000       5.378460       146.3553 
 711   0.0000       5.389213       146.6479 
 712   0.0000       5.390581       146.6852 
 713   0.0000       5.433426       147.8510 
 714   0.0000       5.454527       148.4252 
 715   0.0000       5.470747       148.8666 
 716   0.0000       5.485122       149.2578 
 717   0.0000       5.496959       149.5799 
 718   0.0000       5.499063       149.6371 
 719   0.0000       5.502936       149.7425 
 720   0.0000       5.521956       150.2601 
 721   0.0000       5.526645       150.3877 
 722   0.0000       5.551300       151.0586 
 723   0.0000       5.554165       151.1365 
 724   0.0000       5.573798       151.6707 
 725   0.0000       5.585160       151.9799 
 726   0.0000       5.597067       152.3039 
 727   0.0000       5.604549       152.5075 
 728   0.0000       5.617389       152.8569 
 729   0.0000       5.624081       153.0390 
 730   0.0000       5.633163       153.2861 
 731   0.0000       5.657575       153.9505 
 732   0.0000       5.671911       154.3405 
 733   0.0000       5.680043       154.5618 
 734   0.0000       5.693612       154.9311 
 735   0.0000       5.703365       155.1965 
 736   0.0000       5.717029       155.5683 
 737   0.0000       5.726279       155.8200 
 738   0.0000       5.732065       155.9774 
 739   0.0000       5.743618       156.2918 
 740   0.0000       5.754445       156.5864 
 741   0.0000       5.774807       157.1405 
 742   0.0000       5.788143       157.5034 
 743   0.0000       5.807167       158.0210 
 744   0.0000       5.822805       158.4466 
 745   0.0000       5.827483       158.5739 
 746   0.0000       5.847511       159.1189 
 747   0.0000       5.864609       159.5841 
 748   0.0000       5.870195       159.7361 
 749   0.0000       5.883767       160.1054 
 750   0.0000       5.905891       160.7075 
 751   0.0000       5.935406       161.5106 
 752   0.0000       5.958053       162.1269 
 753   0.0000       5.986590       162.9034 
 754   0.0000       6.005486       163.4176 
 755   0.0000       6.019896       163.8097 
 756   0.0000       6.028451       164.0425 
 757   0.0000       6.038123       164.3057 
 758   0.0000       6.047294       164.5552 
 759   0.0000       6.067146       165.0954 
 760   0.0000       6.096450       165.8928 
 761   0.0000       6.157271       167.5479 
 762   0.0000       6.197384       168.6394 
 763   0.0000       6.198009       168.6564 
 764   0.0000       6.217974       169.1997 
 765   0.0000       6.243304       169.8889 
 766   0.0000       6.274147       170.7282 
 767   0.0000       6.304653       171.5583 
 768   0.0000       6.323032       172.0584 
 769   0.0000       6.342944       172.6003 
 770   0.0000       6.355263       172.9355 
 771   0.0000       6.382479       173.6761 
 772   0.0000       6.399194       174.1309 
 773   0.0000       6.412171       174.4841 
 774   0.0000       6.426405       174.8714 
 775   0.0000       6.459844       175.7813 
 776   0.0000       6.483386       176.4219 
 777   0.0000       6.524796       177.5487 
 778   0.0000       6.580781       179.0722 
 779   0.0000       6.601386       179.6328 
 780   0.0000       6.612947       179.9474 
 781   0.0000       6.627742       180.3500 
 782   0.0000       6.692268       182.1059 
 783   0.0000       6.702332       182.3797 
 784   0.0000       6.772997       184.3026 
 785   0.0000       6.834829       185.9852 
 786   0.0000       6.873430       187.0355 
 787   0.0000       6.902929       187.8382 
 788   0.0000       6.927286       188.5010 
 789   0.0000       6.997227       190.4042 
 790   0.0000       7.022253       191.0852 
 791   0.0000       7.074894       192.5177 
 792   0.0000       7.093020       193.0109 
 793   0.0000       7.121416       193.7836 
 794   0.0000       7.225586       196.6182 
 795   0.0000       7.271944       197.8797 
 796   0.0000       7.275990       197.9898 
 797   0.0000       7.308426       198.8724 
 798   0.0000       7.330904       199.4840 
 799   0.0000       7.344827       199.8629 
 800   0.0000       7.378814       200.7877 
 801   0.0000       7.463882       203.1026 
 802   0.0000       7.561975       205.7718 
 803   0.0000       7.603825       206.9106 
 804   0.0000       7.661627       208.4835 
 805   0.0000       7.824782       212.9232 
 806   0.0000       7.836639       213.2458 
 807   0.0000       7.960996       216.6297 
 808   0.0000       8.000424       217.7026 
 809   0.0000       9.283189       252.6084 
 810   0.0000       9.357657       254.6348 
 811   0.0000      10.613945       288.8201 
 812   0.0000      11.328592       308.2667 
 813   0.0000      11.731765       319.2376 
 814   0.0000      12.255606       333.4920 
 815   0.0000      12.744423       346.7934 
 816   0.0000      12.897396       350.9560 
 817   0.0000      13.060760       355.4014 
 818   0.0000      13.105946       356.6309 
 819   0.0000      13.414204       365.0190 
 820   0.0000      13.460528       366.2796 
 821   0.0000      13.535888       368.3302 
 822   0.0000      13.705439       372.9439 
 823   0.0000      13.826345       376.2340 
 824   0.0000      13.933308       379.1446 
 825   0.0000      14.383340       391.3906 
 826   0.0000      14.959544       407.0699 
 827   0.0000      15.770034       429.1244 

                    ********************************
                    * MULLIKEN POPULATION ANALYSIS *
                    ********************************

-----------------------
MULLIKEN ATOMIC CHARGES
-----------------------
   0 C :   -0.274818
   1 C :    0.048293
   2 O :   -0.344299
   3 C :    0.467485
   4 O :   -0.442796
   5 C :   -0.211899
   6 C :    0.109203
   7 C :   -0.259168
   8 N :   -0.107344
   9 C :    0.223142
  10 S :   -0.444991
  11 N :   -0.247296
  12 C :    0.047781
  13 C :    0.064253
  14 C :   -0.212612
  15 C :   -0.120510
  16 C :   -0.228968
  17 C :    0.317800
  18 O :   -0.327397
  19 C :   -0.312590
  20 H :    0.096368
  21 H :    0.092546
  22 H :    0.099179
  23 H :    0.109282
  24 H :    0.085461
  25 H :    0.148151
  26 H :    0.125077
  27 H :    0.088303
  28 H :    0.200617
  29 H :    0.207704
  30 H :    0.156893
  31 H :    0.149486
  32 H :    0.164370
  33 H :    0.159673
  34 H :    0.243175
  35 H :    0.130447
Sum of atomic charges:   -0.0000000

--------------------------------
MULLIKEN REDUCED ORBITAL CHARGES
--------------------------------
  0 C s       :     3.262149  s :     3.262149
      pz      :     1.020467  p :     2.934269
      px      :     0.920394
      py      :     0.993408
      dz2     :     0.011988  d :     0.073904
      dxz     :     0.010764
      dyz     :     0.024508
      dx2y2   :     0.008283
      dxy     :     0.018361
      f0      :     0.000277  f :     0.004496
      f+1     :     0.000521
      f-1     :     0.001384
      f+2     :     0.000198
      f-2     :     0.000411
      f+3     :     0.000475
      f-3     :     0.001230
  1 C s       :     3.167495  s :     3.167495
      pz      :     1.004972  p :     2.624437
      px      :     0.778522
      py      :     0.840942
      dz2     :     0.022232  d :     0.148331
      dxz     :     0.022454
      dyz     :     0.033909
      dx2y2   :     0.031990
      dxy     :     0.037746
      f0      :     0.001220  f :     0.011445
      f+1     :     0.001190
      f-1     :     0.001983
      f+2     :     0.000195
      f-2     :     0.001902
      f+3     :     0.002357
      f-3     :     0.002599
  2 O s       :     3.732501  s :     3.732501
      pz      :     1.786543  p :     4.573776
      px      :     1.203929
      py      :     1.583304
      dz2     :     0.004133  d :     0.035914
      dxz     :     0.005143
      dyz     :     0.003375
      dx2y2   :     0.008005
      dxy     :     0.015257
      f0      :     0.000251  f :     0.002108
      f+1     :     0.000452
      f-1     :     0.000175
      f+2     :     0.000126
      f-2     :     0.000187
      f+3     :     0.000367
      f-3     :     0.000550
  3 C s       :     3.062229  s :     3.062229
      pz      :     0.649864  p :     2.153392
[...]
 15 C s       :     2.710494  s :     2.710494
      pz      :     0.979861  p :     2.788721
      px      :     0.950301
      py      :     0.858559
      dz2     :     0.121250  d :     0.410880
      dxz     :     0.104847
      dyz     :     0.084514
      dx2y2   :     0.054209
      dxy     :     0.046060
      f0      :     0.007606  f :     0.039981
      f+1     :     0.007599
      f-1     :     0.006295
      f+2     :     0.007344
      f-2     :     0.005825
      f+3     :     0.001999
      f-3     :     0.003312
 16 C s       :     2.702439  s :     2.702439
      pz      :     0.966706  p :     2.858847
      px      :     0.967011
      py      :     0.925129
      dz2     :     0.095311  d :     0.383287
      dxz     :     0.102940
      dyz     :     0.046455
      dx2y2   :     0.069031
      dxy     :     0.069550
      f0      :     0.005600  f :     0.040241
      f+1     :     0.007625
      f-1     :     0.004527
      f+2     :     0.006635
      f-2     :     0.005928
      f+3     :     0.004406
      f-3     :     0.005519
 17 C s       :     2.695838  s :     2.695838
      pz      :     0.930510  p :     2.681469
      px      :     0.941212
      py      :     0.809747
      dz2     :     0.185075  d :     0.751050
      dxz     :     0.185047
      dyz     :     0.149495
      dx2y2   :     0.125486
      dxy     :     0.105946
      f0      :     0.018261  f :     0.113099
      f+1     :     0.021432
      f-1     :     0.016489
      f+2     :     0.023202
      f-2     :     0.016123
      f+3     :     0.008968
      f-3     :     0.008624
 18 O s       :     3.143779  s :     3.143779
      pz      :     1.510204  p :     4.314960
      px      :     1.275750
      py      :     1.529006
      dz2     :     0.019996  d :     0.086946
      dxz     :     0.021954
      dyz     :     0.015338
      dx2y2   :     0.017476
      dxy     :     0.012182
      f0      :     0.000951  f :     0.005894
      f+1     :     0.001074
      f-1     :     0.000839
      f+2     :     0.001136
      f-2     :     0.000858
      f+3     :     0.000588
      f-3     :     0.000448
 19 C s       :     2.700433  s :     2.700433
      pz      :     0.972185  p :     2.872432
      px      :     0.955428
      py      :     0.944819
      dz2     :     0.115919  d :     0.383110
      dxz     :     0.090770
      dyz     :     0.074152
      dx2y2   :     0.053998
      dxy     :     0.048270
      f0      :     0.007397  f :     0.039873
      f+1     :     0.007733
      f-1     :     0.007501
      f+2     :     0.006159
      f-2     :     0.005396
      f+3     :     0.002312
      f-3     :     0.003376
 20 H s       :     0.846385  s :     0.846385
      pz      :     0.060692  p :     0.152479
      px      :     0.037689
      py      :     0.054097
      dz2     :     0.008399  d :     0.027804
      dxz     :     0.004722
      dyz     :     0.007107
      dx2y2   :     0.003138
      dxy     :     0.004438
 21 H s       :     0.848918  s :     0.848918
      pz      :     0.062462  p :     0.152480
      px      :     0.039623
      py      :     0.050396
      dz2     :     0.008482  d :     0.027538
      dxz     :     0.005739
      dyz     :     0.007280
      dx2y2   :     0.002718
      dxy     :     0.003319
 22 H s       :     0.843337  s :     0.843337
      pz      :     0.041065  p :     0.150457
      px      :     0.056392
      py      :     0.053000
      dz2     :     0.002354  d :     0.027403
      dxz     :     0.004402
      dyz     :     0.005061
      dx2y2   :     0.008722
      dxy     :     0.006863
 23 H s       :     0.852414  s :     0.852414
      pz      :     0.068202  p :     0.147339
      px      :     0.032268
      py      :     0.046869
      dz2     :     0.009069  d :     0.027140
      dxz     :     0.004751
      dyz     :     0.008382
      dx2y2   :     0.002023
      dxy     :     0.002914
 24 H s       :     0.853657  s :     0.853657
      pz      :     0.063317  p :     0.146526
      px      :     0.032426
      py      :     0.050783
      dz2     :     0.008519  d :     0.027713
      dxz     :     0.004447
      dyz     :     0.008120
      dx2y2   :     0.002713
      dxy     :     0.003913
 25 H s       :     0.832044  s :     0.832044
      pz      :     0.040214  p :     0.154041
      px      :     0.043991
      py      :     0.069835
      dz2     :     0.003365  d :     0.027483
      dxz     :     0.000913
      dyz     :     0.007711
      dx2y2   :     0.008077
      dxy     :     0.007418
 26 H s       :     0.832112  s :     0.832112
      pz      :     0.074879  p :     0.153459
      px      :     0.039200
      py      :     0.039380
      dz2     :     0.009432  d :     0.027630
      dxz     :     0.008935
      dyz     :     0.008907
      dx2y2   :     0.000298
      dxy     :     0.000058
 27 H s       :     0.847778  s :     0.847778
      pz      :     0.042346  p :     0.153012
      px      :     0.072718
      py      :     0.037948
      dz2     :     0.003637  d :     0.027883
      dxz     :     0.008371
      dyz     :     0.000381
      dx2y2   :     0.006692
      dxy     :     0.008801
 28 H s       :     0.735203  s :     0.735203
      pz      :     0.083889  p :     0.253023
      px      :     0.121536
      py      :     0.047599
      dz2     :     0.004876  d :     0.061149
      dxz     :     0.023006
      dyz     :     0.000387
      dx2y2   :     0.016410
      dxy     :     0.016469
 29 H s       :     0.752908  s :     0.752908
      pz      :     0.094853  p :     0.258505
      px      :     0.046302
      py      :     0.117350
      dz2     :     0.006080  d :     0.061146
      dxz     :     0.002057
      dyz     :     0.022180
      dx2y2   :     0.015585
      dxy     :     0.015244
 30 H s       :     0.831840  s :     0.831840
      pz      :     0.056879  p :     0.158221
      px      :     0.058654
      py      :     0.042688
      dz2     :     0.007526  d :     0.029520
      dxz     :     0.007386
      dyz     :     0.004433
      dx2y2   :     0.004095
      dxy     :     0.006079
 31 H s       :     0.848590  s :     0.848590
      pz      :     0.056032  p :     0.159483
      px      :     0.045434
      py      :     0.058017
      dz2     :     0.006801  d :     0.027767
      dxz     :     0.005643
      dyz     :     0.006079
      dx2y2   :     0.004760
      dxy     :     0.004484
 32 H s       :     0.844612  s :     0.844612
      pz      :     0.036364  p :     0.152053
      px      :     0.071279
      py      :     0.044410
      dz2     :     0.003286  d :     0.026578
      dxz     :     0.007464
      dyz     :     0.001480
      dx2y2   :     0.007049
      dxy     :     0.007299
 33 H s       :     0.842327  s :     0.842327
      pz      :     0.071355  p :     0.156486
      px      :     0.042038
      py      :     0.043094
      dz2     :     0.009107  d :     0.027520
      dxz     :     0.008265
      dyz     :     0.007092
      dx2y2   :     0.001488
      dxy     :     0.001567
 34 H s       :     0.700140  s :     0.700140
      pz      :     0.094849  p :     0.337590
      px      :     0.147649
      py      :     0.095092
      dz2     :     0.010971  d :     0.097270
      dxz     :     0.028696
      dyz     :     0.005388
      dx2y2   :     0.024276
      dxy     :     0.027939
 35 H s       :     0.847499  s :     0.847499
      pz      :     0.035808  p :     0.161353
      px      :     0.075900
      py      :     0.049645
      dz2     :     0.002952  d :     0.028220
      dxz     :     0.008025
      dyz     :     0.001084
      dx2y2   :     0.008035
      dxy     :     0.008124


                      *****************************
                      * MAYER POPULATION ANALYSIS *
                      *****************************

  NA   - Mulliken gross atomic population
  ZA   - Total nuclear charge
  QA   - Mulliken gross atomic charge
  VA   - Mayer's total valence
  BVA  - Mayer's bonded valence
  FA   - Mayer's free valence

  ATOM       NA         ZA         QA         VA         BVA        FA
  0 C      6.2748     6.0000    -0.2748     3.8940     3.8940    -0.0000
  1 C      5.9517     6.0000     0.0483     3.8570     3.8570    -0.0000
  2 O      8.3443     8.0000    -0.3443     2.0860     2.0860    -0.0000
  3 C      5.5325     6.0000     0.4675     4.2131     4.2131     0.0000
  4 O      8.4428     8.0000    -0.4428     2.0699     2.0699     0.0000
  5 C      6.2119     6.0000    -0.2119     3.6423     3.6423    -0.0000
  6 C      5.8908     6.0000     0.1092     3.8392     3.8392     0.0000
  7 C      6.2592     6.0000    -0.2592     3.8970     3.8970    -0.0000
  8 N      7.1073     7.0000    -0.1073     3.3221     3.3221    -0.0000
  9 C      5.7769     6.0000     0.2231     4.1070     4.1070    -0.0000
 10 S     16.4450    16.0000    -0.4450     1.7036     1.7036     0.0000
 11 N      7.2473     7.0000    -0.2473     3.1872     3.1872     0.0000
 12 C      5.9522     6.0000     0.0478     3.9249     3.9249    -0.0000
 13 C      5.9357     6.0000     0.0643     3.7259     3.7259     0.0000
 14 C      6.2126     6.0000    -0.2126     3.8400     3.8400    -0.0000
 15 C      6.1205     6.0000    -0.1205     3.7997     3.7997     0.0000
 16 C      6.2290     6.0000    -0.2290     3.8048     3.8048    -0.0000
 17 C      5.6822     6.0000     0.3178     3.9049     3.9049    -0.0000
 18 O      8.3274     8.0000    -0.3274     2.1502     2.1502     0.0000
 19 C      6.3126     6.0000    -0.3126     3.8396     3.8396    -0.0000
 20 H      0.9036     1.0000     0.0964     0.9861     0.9861    -0.0000
 21 H      0.9075     1.0000     0.0925     0.9808     0.9808    -0.0000
 22 H      0.9008     1.0000     0.0992     0.9831     0.9831    -0.0000
 23 H      0.8907     1.0000     0.1093     0.9831     0.9831    -0.0000
 24 H      0.9145     1.0000     0.0855     0.9802     0.9802     0.0000
 25 H      0.8518     1.0000     0.1482     0.9855     0.9855    -0.0000
 26 H      0.8749     1.0000     0.1251     0.9774     0.9774     0.0000
 27 H      0.9117     1.0000     0.0883     0.9848     0.9848     0.0000
 28 H      0.7994     1.0000     0.2006     1.0208     1.0208    -0.0000
 29 H      0.7923     1.0000     0.2077     1.0112     1.0112    -0.0000
 30 H      0.8431     1.0000     0.1569     0.9907     0.9907    -0.0000
 31 H      0.8505     1.0000     0.1495     0.9841     0.9841    -0.0000
 32 H      0.8356     1.0000     0.1644     0.9741     0.9741     0.0000
 33 H      0.8403     1.0000     0.1597     0.9851     0.9851     0.0000
 34 H      0.7568     1.0000     0.2432     1.0083     1.0083     0.0000
 35 H      0.8696     1.0000     0.1304     0.9966     0.9966    -0.0000

  Mayer bond orders larger than 0.100000
B(  0-C ,  1-C ) :   0.9671 B(  0-C , 20-H ) :   0.9760 B(  0-C , 21-H ) :   0.9793 
B(  0-C , 22-H ) :   0.9782 B(  1-C ,  2-O ) :   0.9036 B(  1-C , 23-H ) :   0.9768 
B(  1-C , 24-H ) :   0.9802 B(  2-O ,  3-C ) :   1.1765 B(  3-C ,  4-O ) :   1.9456 
B(  3-C ,  5-C ) :   1.0627 B(  5-C ,  6-C ) :   1.6470 B(  5-C , 12-C ) :   0.9681 
B(  6-C ,  7-C ) :   0.9621 B(  6-C ,  8-N ) :   1.1544 B(  7-C , 25-H ) :   0.9629 
B(  7-C , 26-H ) :   0.9650 B(  7-C , 27-H ) :   0.9832 B(  8-N ,  9-C ) :   1.2211 
B(  8-N , 28-H ) :   0.9404 B(  9-C , 10-S ) :   1.5586 B(  9-C , 11-N ) :   1.2694 
B( 11-N , 12-C ) :   0.9679 B( 11-N , 29-H ) :   0.9486 B( 12-C , 13-C ) :   0.9590 
B( 12-C , 30-H ) :   0.9938 B( 13-C , 14-C ) :   1.3640 B( 13-C , 19-C ) :   1.3492 
B( 14-C , 15-C ) :   1.3754 B( 14-C , 31-H ) :   0.9729 B( 15-C , 16-C ) :   1.3827 
B( 15-C , 32-H ) :   0.9709 B( 16-C , 17-C ) :   1.3425 B( 16-C , 33-H ) :   0.9675 
B( 17-C , 18-O ) :   1.1457 B( 17-C , 19-C ) :   1.3553 B( 18-O , 34-H ) :   0.9744 
B( 19-C , 35-H ) :   0.9699 

-------
TIMINGS
-------

Total SCF time: 0 days 2 hours 17 min 7 sec 

Total time                  ....    8227.821 sec
Sum of individual times     ....    8223.638 sec  ( 99.9%)

Fock matrix formation       ....    8209.088 sec  ( 99.8%)
Diagonalization             ....       1.892 sec  (  0.0%)
Density matrix formation    ....       0.190 sec  (  0.0%)
Population analysis         ....       0.253 sec  (  0.0%)
Initial guess               ....       6.450 sec  (  0.1%)
Orbital Transformation      ....       0.000 sec  (  0.0%)
Orbital Orthonormalization  ....       0.000 sec  (  0.0%)
DIIS solution               ....       2.228 sec  (  0.0%)
SOSCF solution              ....       2.081 sec  (  0.0%)

Maximum memory used throughout the entire SCF-calculation: 724.3 MB

------------------------------------------------------------------------------
                                ORCA  MP2 
------------------------------------------------------------------------------

Freezing NCore=48 chemical core electrons

-------------
RI-MP2 ENERGY
-------------
Dimension of the basis                    ...  828
Memory devoted to MP2                     ...  256 MB   
Data format for buffers                   ... DOUBLE
Compression type for matrix containers    ... UNCOMPRESSED
Overall scaling of the MP2 energy         ...   1.000e+00
Calculating two index integrals           ... done (    0.072 sec)
Cholesky decomposition of V**-1           ... done (    0.758 sec)

-----------------
RI-TRANSFORMATION (AUX index driven)
-----------------

Dimension of the orbital-basis         ... 828
Dimension of the aux-basis             ... 2141
Transformation of internal/external MOs...   24-  76 to   77- 827
Number Format for Storage              ... Double (8 Byte)
Integral mode                          ... Direct

First Phase: integral generation and transformation of MO indices
  Aux angular momentum 0               ... done (    6.722 sec)
  Aux angular momentum 1               ... done (   12.287 sec)
  Aux angular momentum 2               ... done (   14.573 sec)
  Aux angular momentum 3               ... done (   11.140 sec)
  Aux angular momentum 4               ... done (    3.988 sec)
Closing buffer VIA ( 0.63 GB; CompressionRatio= 1.00)
  Phase 1 completed in    48.938 sec
Second Phase: sorting and transformation of aux index

IA-Transformation
Memory available                       ... 158 MB 
Max. # MO pairs treated in a batch     ... 11    
# of internal orbitals                 ... 53
# batches for internal orbitals        ... 5
Closing buffer IAV ( 0.63 GB; CompressionRatio= 1.00)
(ia|v) transformation done in    21.478 sec

  Phase 2 completed in    21.512 sec
RI-Integral transformation completed in    70.464 sec
Opening buffers                              ... done

Starting loop over batches of integrals:

Operator 0  - window                       ... ( 24- 76)x( 77-827)
Operator 0  - Memory available             ...   256 MB
Operator 0  - Memory needed per MO         ...  12.3 MB
Operator 0  - Number of orbitals per batch ... 13
Operator 0  - Number of batches            ... 5

OPERATOR  0   PASS   0:  MOs    24 ...   36
  Reading integrals       ... ok
  Internal MO  26
  Internal MO  29
  Internal MO  32
  Internal MO  35
OPERATOR  0   PASS   1:  MOs    37 ...   49
  Reading integrals       ... ok
  Internal MO  38
  Internal MO  41
  Internal MO  44
  Internal MO  47
OPERATOR  0   PASS   2:  MOs    50 ...   62
  Reading integrals       ... ok
  Internal MO  50
  Internal MO  53
  Internal MO  56
  Internal MO  59
  Internal MO  62
OPERATOR  0   PASS   3:  MOs    63 ...   75
  Reading integrals       ... ok
  Internal MO  65
  Internal MO  68
  Internal MO  71
  Internal MO  74
OPERATOR  0   PASS   4:  MOs    76 ...   76
  Reading integrals       ... ok
Time spent in pair loops =   117.503 sec
Deleting buffer (Ka|jb)[aa] ...done

-----------------------------------------------
 RI-MP2 CORRELATION ENERGY:     -3.536182421 Eh
-----------------------------------------------


-------
TIMINGS
-------

Total time                :  188.933 sec
Integral trafo            :   70.510 sec ( 37.3%)
I/O of integrals          :    1.195 sec (  0.6%)
K(i,j) Operators          :   78.551 sec ( 41.6%)
T(i,j) pair energies      :   13.998 sec (  7.4%)
V-calculation             :    0.072 sec (  0.0%)
V**(-1/2)                 :    0.758 sec (  0.4%)
Gamma(ia|P)               :    0.000 sec (  0.0%)
Gamma-Trafo               :    0.000 sec (  0.0%)
D(virtual)                :    0.000 sec (  0.0%)
D(internal)               :    0.000 sec (  0.0%)
W(virtual)                :    0.000 sec (  0.0%)
W(internal)               :    0.000 sec (  0.0%)
L(virtual)                :    0.000 sec (  0.0%)
L(internal)               :    0.000 sec (  0.0%)
G(D)                      :    0.000 sec (  0.0%)
G(Z)                      :    0.000 sec (  0.0%)
Z-Vector Solution         :    0.000 sec (  0.0%)
3-Index Derivative        :    0.000 sec (  0.0%)
2-Index Derivative        :    0.000 sec (  0.0%)
Separable Gradient        :    0.000 sec (  0.0%)


---------------------------------------
MP2 TOTAL ENERGY:    -1274.314201304 Eh
---------------------------------------

Maximum memory used throughout the entire MP2-calculation: 303.5 MB

-------------------------   --------------------
FINAL SINGLE POINT ENERGY     -1274.314201303687
-------------------------   --------------------


                            ***************************************
                            *     ORCA property calculations      *
                            ***************************************


  WARNING: The energy has been calculated at the MP2 level but the densities
           used in the property calculations are still SCF densities
           MP2 response densities have not been calculated 
           use %mp2 Density relaxed end
           or  %mp2 Density unrelaxed end

                                    ---------------------
                                    Active property flags
                                    ---------------------
   (+) Dipole Moment


------------------------------------------------------------------------------
                       ORCA ELECTRIC PROPERTIES CALCULATION
------------------------------------------------------------------------------

Dipole Moment Calculation                       ... on
Quadrupole Moment Calculation                   ... off
Polarizability Calculation                      ... off
GBWName                                         ... qm_input.vacu.gbw
Electron density file                           ... qm_input.vacu.scfp
The origin for moment calculation is the CENTER OF MASS  = (-0.573816, -1.465353 -5.075178)

-------------
DIPOLE MOMENT
-------------
                                X             Y             Z
Electronic contribution:     12.91079      -7.90900       4.00598
Nuclear contribution   :    -13.93215       8.89730      -4.36324
                        -----------------------------------------
Total Dipole Moment    :     -1.02137       0.98830      -0.35726
                        -----------------------------------------
Magnitude (a.u.)       :      1.46545
Magnitude (Debye)      :      3.72489



--------------------
Rotational spectrum 
--------------------
 
Rotational constants in cm-1:     0.011307     0.008276     0.006096 
Rotational constants in MHz :   338.979494   248.110187   182.753329 

 Dipole components along the rotational axes: 
x,y,z [a.u.] :    -1.226593     0.774656     0.207196 
x,y,z [Debye]:    -3.117753     1.969019     0.526651 

 

Timings for individual modules:

Sum of individual times         ...     8420.015 sec (= 140.334 min)
GTO integral calculation        ...        2.456 sec (=   0.041 min)   0.0 %
SCF iterations                  ...     8227.961 sec (= 137.133 min)  97.7 %
MP2 module                      ...      189.598 sec (=   3.160 min)   2.3 %
                             ****ORCA TERMINATED NORMALLY****
TOTAL RUN TIME: 0 days 2 hours 20 minutes 21 seconds 128 msec
