
                                        *****************
                                        * O   R   C   A *
                                        *****************

                                            #,                                       
                                            ###                                      
                                            ####                                     
                                            #####                                    
                                            ######                                   
                                           ########,                                 
                                     ,,################,,,,,                         
                               ,,#################################,,                 
                          ,,##########################################,,             
                       ,#########################################, ''#####,          
                    ,#############################################,,   '####,        
                  ,##################################################,,,,####,       
                ,###########''''           ''''###############################       
              ,#####''   ,,,,##########,,,,          '''####'''          '####       
            ,##' ,,,,###########################,,,                        '##       
           ' ,,###''''                  '''############,,,                           
         ,,##''                                '''############,,,,        ,,,,,,###''
      ,#''                                            '''#######################'''  
     '                                                          ''''####''''         
             ,#######,   #######,   ,#######,      ##                                
            ,#'     '#,  ##    ##  ,#'     '#,    #''#        ######   ,####,        
            ##       ##  ##   ,#'  ##            #'  '#       #        #'  '#        
            ##       ##  #######   ##           ,######,      #####,   #    #        
            '#,     ,#'  ##    ##  '#,     ,#' ,#      #,         ##   #,  ,#        
             '#######'   ##     ##  '#######'  #'      '#     #####' # '####'        



                  #######################################################
                  #                        -***-                        #
                  #          Department of theory and spectroscopy      #
                  #    Directorship and core code : Frank Neese         #
                  #        Max Planck Institute fuer Kohlenforschung    #
                  #                Kaiser Wilhelm Platz 1               #
                  #                 D-45470 Muelheim/Ruhr               #
                  #                      Germany                        #
                  #                                                     #
                  #                  All rights reserved                #
                  #                        -***-                        #
                  #######################################################


                         Program Version 5.0.0 -  RELEASE  -
                                (SVN: $Rev: 19529$)
                ($Date: 2021-06-28 11:36:33 +0200 (Mo, 28 Jun 2021) $)


 With contributions from (in alphabetic order):
   Daniel Aravena         : Magnetic Suceptibility
   Michael Atanasov       : Ab Initio Ligand Field Theory (pilot matlab implementation)
   Alexander A. Auer      : GIAO ZORA, VPT2 properties, NMR spectrum
   Ute Becker             : Parallelization
   Giovanni Bistoni       : ED, misc. LED, open-shell LED, HFLD
   Martin Brehm           : Molecular dynamics
   Dmytro Bykov           : SCF Hessian
   Vijay G. Chilkuri      : MRCI spin determinant printing, contributions to CSF-ICE
   Dipayan Datta          : RHF DLPNO-CCSD density
   Achintya Kumar Dutta   : EOM-CC, STEOM-CC
   Dmitry Ganyushin       : Spin-Orbit,Spin-Spin,Magnetic field MRCI
   Miquel Garcia          : C-PCM Hessian, Gaussian charge scheme
   Yang Guo               : DLPNO-NEVPT2, F12-NEVPT2, CIM, IAO-localization
   Andreas Hansen         : Spin unrestricted coupled pair/coupled cluster methods
   Benjamin Helmich-Paris : MC-RPA, TRAH-SCF, COSX integrals
   Lee Huntington         : MR-EOM, pCC
   Robert Izsak           : Overlap fitted RIJCOSX, COSX-SCS-MP3, EOM
   Marcus Kettner         : VPT2
   Christian Kollmar      : KDIIS, OOCD, Brueckner-CCSD(T), CCSD density, CASPT2, CASPT2-K
   Simone Kossmann        : Meta GGA functionals, TD-DFT gradient, OOMP2, MP2 Hessian
   Martin Krupicka        : Initial AUTO-CI
   Lucas Lang             : DCDCAS
   Marvin Lechner         : AUTO-CI (C++ implementation), FIC-MRCC
   Dagmar Lenk            : GEPOL surface, SMD
   Dimitrios Liakos       : Extrapolation schemes; Compound Job, initial MDCI parallelization
   Dimitrios Manganas     : Further ROCIS development; embedding schemes
   Dimitrios Pantazis     : SARC Basis sets
   Anastasios Papadopoulos: AUTO-CI, single reference methods and gradients
   Taras Petrenko         : DFT Hessian,TD-DFT gradient, ASA, ECA, R-Raman, ABS, FL, XAS/XES, NRVS
   Peter Pinski           : DLPNO-MP2, DLPNO-MP2 Gradient
   Christoph Reimann      : Effective Core Potentials
   Marius Retegan         : Local ZFS, SOC
   Christoph Riplinger    : Optimizer, TS searches, QM/MM, DLPNO-CCSD(T), (RO)-DLPNO pert. Triples
   Tobias Risthaus        : Range-separated hybrids, TD-DFT gradient, RPA, STAB
   Michael Roemelt        : Original ROCIS implementation
   Masaaki Saitow         : Open-shell DLPNO-CCSD energy and density
   Barbara Sandhoefer     : DKH picture change effects
   Avijit Sen             : IP-ROCIS
   Kantharuban Sivalingam : CASSCF convergence, NEVPT2, FIC-MRCI
   Bernardo de Souza      : ESD, SOC TD-DFT
   Georgi Stoychev        : AutoAux, RI-MP2 NMR
   Willem Van den Heuvel  : Paramagnetic NMR
   Boris Wezisla          : Elementary symmetry handling
   Frank Wennmohs         : Technical directorship


 We gratefully acknowledge several colleagues who have allowed us to
 interface, adapt or use parts of their codes:
   Stefan Grimme, W. Hujo, H. Kruse, P. Pracht,  : VdW corrections, initial TS optimization,
                  C. Bannwarth, S. Ehlert          DFT functionals, gCP, sTDA/sTD-DF
   Ed Valeev, F. Pavosevic, A. Kumar             : LibInt (2-el integral package), F12 methods
   Garnet Chan, S. Sharma, J. Yang, R. Olivares  : DMRG
   Ulf Ekstrom                                   : XCFun DFT Library
   Mihaly Kallay                                 : mrcc  (arbitrary order and MRCC methods)
   Jiri Pittner, Ondrej Demel                    : Mk-CCSD
   Frank Weinhold                                : gennbo (NPA and NBO analysis)
   Christopher J. Cramer and Donald G. Truhlar   : smd solvation model
   Lars Goerigk                                  : TD-DFT with DH, B97 family of functionals
   V. Asgeirsson, H. Jonsson                     : NEB implementation
   FAccTs GmbH                                   : IRC, NEB, NEB-TS, DLPNO-Multilevel, CI-OPT
                                                   MM, QMMM, 2- and 3-layer-ONIOM, Crystal-QMMM,
                                                   LR-CPCM, SF, NACMEs, symmetry and pop. for TD-DFT,
                                                   nearIR, NL-DFT gradient (VV10), updates on ESD,
                                                   ML-optimized integration grids
   S Lehtola, MJT Oliveira, MAL Marques          : LibXC Library
   Liviu Ungur et al                             : ANISO software


 Your calculation uses the libint2 library for the computation of 2-el integrals
 For citations please refer to: http://libint.valeyev.net

 Your ORCA version has been built with support for libXC version: 5.1.0
 For citations please refer to: https://tddft.org/programs/libxc/

 This ORCA versions uses:
   CBLAS   interface :  Fast vector & matrix operations
   LAPACKE interface :  Fast linear algebra routines
   SCALAPACK package :  Parallel linear algebra routines
   Shared memory     :  Shared parallel matrices
   BLAS/LAPACK       :  OpenBLAS 0.3.15  USE64BITINT DYNAMIC_ARCH NO_AFFINITY SkylakeX SINGLE_THREADED
        Core in use  :  SkylakeX
   Copyright (c) 2011-2014, The OpenBLAS Project


================================================================================

----- Orbital basis set information -----
Your calculation utilizes the basis: cc-pVTZ 
       H, B-Ne : Obtained from the ccRepo (grant-hill.group.shef.ac.uk/ccrepo) Feb. 2017
                 T. H. Dunning, Jr., J. Chem. Phys. 90, 1007 (1989)
            He : Obtained from the ccRepo (grant-hill.group.shef.ac.uk/ccrepo) Feb. 2017
                 D. E. Woon, T. H. Dunning, Jr., J. Chem. Phys. 100, 2975 (1994)
  Li-Be, Na-Mg : Obtained from the ccRepo (grant-hill.group.shef.ac.uk/ccrepo) Feb. 2017
                 B. P. Prascher, D. E. Woon, K. A. Peterson, T. H. Dunning, Jr., A. K. Wilson, Theor. Chem. Acc. 128, 69 (2011)
         Al-Ar : Obtained from the ccRepo (grant-hill.group.shef.ac.uk/ccrepo) Feb. 2017
                 D. E. Woon, T. H. Dunning, Jr., J. Chem. Phys. 98, 1358 (1993)
            Ca : Obtained from the Peterson Research Group Website (tyr0.chem.wsu.edu/~kipeters) Feb. 2017
                 J. Koput, K. A. Peterson, J. Phys. Chem. 106, 9595 (2002)
         Sc-Zn : Obtained from the ccRepo (grant-hill.group.shef.ac.uk/ccrepo) Feb. 2017
                 N. B. Balabanov, K. A. Peterson, J. Chem. Phys. 123, 064107 (2005)
                 N. B. Balabanov, K. A. Peterson, J. Chem. Phys. 125, 074110 (2006)
         Ga-Kr : Obtained from the ccRepo (grant-hill.group.shef.ac.uk/ccrepo) Feb. 2017
                 A. K. Wilson, D. E. Woon, K. A. Peterson, T. H. Dunning, Jr., J. Chem. Phys. 110, 7667 (1999)
             Y : Obtained from the ccRepo (grant-hill.group.shef.ac.uk/ccrepo) Feb. 2017
                 K. A. Peterson, D. Figgen, M. Dolg, H. Stoll, J. Chem. Phys. 126, 124101 (2007)
        Ag, Au : Obtained from the Peterson Research Group Website (tyr0.chem.wsu.edu/~kipeters) Feb. 2017
                 K. A. Peterson, C. Puzzarini, Theor. Chem. Acc. 114, 283 (2005)

----- AuxC basis set information -----
Your calculation utilizes the auxiliary basis: cc-pVTZ/C 
  Obtained from the EMSL Basis Set Exchange (bse.pnl.gov) Feb. 2017
  H-He, B-F, Al-Ar, Ga-Kr : F. Weigend, A. Kohn, C. Hattig, J. Chem. Phys. 116, 3175 (2002)
             Li-Be, Na-Mg : C. Haettig, Phys. Chem. Chem. Phys. 7, 59 (2005)
                       Ne : C. Haettig, Phys. Chem. Chem. Phys. 7, 59 (2005)
                            F. Weigend, A. Kohn, C. Hattig, J. Chem. Phys. 116, 3175 (2002)
                    Sc-Zn : J. G. Hill, J. A. Platts, J. Chem. Phys. 128, 044104 (2008)

================================================================================
                                        WARNINGS
                       Please study these warnings very carefully!
================================================================================


WARNING: No MP2 level density has been requested!
         To caclulate MP2 level properties use
         %mp2 Density relaxed end
         or
         %mp2 Density unrelaxed end

WARNING: Post HF methods need fully converged wavefunctions
  ===> : Setting SCFConvForced true
         You can overwrite this default with %scf ConvForced false 


INFO   : the flag for use of the SHARK integral package has been found!

================================================================================
                                       INPUT FILE
================================================================================
NAME = qm_input.vacu
|  1> ! RI-MP2 cc-pVTZ cc-pVTZ/c TightSCF KeepDens NoKeepInts
|  2> 
|  3> *xyz  0  1
|  4>     C    12.1472730    6.8738066    5.3621989
|  5>     C    11.7865898    8.2662458    4.7983190
|  6>     O    11.0971528    8.1513518    3.5489080
|  7>     C    10.6181436    9.2703305    2.9514667
|  8>     O    10.6920929   10.3767966    3.4658855
|  9>     C     9.8955081    9.1045663    1.6605375
| 10>     C     9.3575448    7.9908688    1.1573053
| 11>     C     9.4645804    6.5602418    1.6959428
| 12>     N     8.8015595    8.0245658   -0.1137895
| 13>     C     9.0299123    9.0464634   -1.0436739
| 14>     S     8.5002551    8.8615145   -2.6268666
| 15>     N     9.7131264   10.1120796   -0.5927499
| 16>     C     9.8758450   10.3404907    0.8744803
| 17>     C     8.7765943   11.3287463    1.2104619
| 18>     C     7.6094401   10.8912837    1.9697787
| 19>     C     6.5325015   11.8293835    2.1519650
| 20>     C     6.5849024   13.0957736    1.5722225
| 21>     C     7.6704791   13.5271411    0.8567214
| 22>     O     7.6601539   14.7254448    0.1496063
| 23>     C     8.7178823   12.6314862    0.6308742
| 24>     H    11.3474412    6.1234251    5.3426040
| 25>     H    12.5187141    6.9049546    6.3938243
| 26>     H    13.0197387    6.5027236    4.8105766
| 27>     H    11.1121241    8.7111685    5.5401613
| 28>     H    12.6968824    8.8750131    4.7353952
| 29>     H     8.6417178    5.9249594    1.3459375
| 30>     H     9.3486305    6.6099931    2.7855620
| 31>     H    10.4641407    6.1487883    1.5094930
| 32>     H     8.2252872    7.2641330   -0.4538200
| 33>     H    10.0189532   10.8109006   -1.2591473
| 34>     H    10.8179254   10.8860892    1.0086316
| 35>     H     7.6168910    9.8916903    2.3942237
| 36>     H     5.7268437   11.4787544    2.7902213
| 37>     H     5.6958276   13.7046039    1.7073801
| 38>     H     6.7838789   15.0667968    0.3993074
| 39>     H     9.5926039   12.9976251    0.1015346
| 40> *
| 41> 
| 42>                          ****END OF INPUT****
================================================================================

                       ****************************
                       * Single Point Calculation *
                       ****************************

---------------------------------
CARTESIAN COORDINATES (ANGSTROEM)
---------------------------------
  C     12.147273    6.873807    5.362199
  C     11.786590    8.266246    4.798319
  O     11.097153    8.151352    3.548908
  C     10.618144    9.270331    2.951467
  O     10.692093   10.376797    3.465885
  C      9.895508    9.104566    1.660537
  C      9.357545    7.990869    1.157305
  C      9.464580    6.560242    1.695943
  N      8.801559    8.024566   -0.113790
  C      9.029912    9.046463   -1.043674
  S      8.500255    8.861514   -2.626867
  N      9.713126   10.112080   -0.592750
  C      9.875845   10.340491    0.874480
  C      8.776594   11.328746    1.210462
  C      7.609440   10.891284    1.969779
  C      6.532501   11.829383    2.151965
  C      6.584902   13.095774    1.572223
  C      7.670479   13.527141    0.856721
  O      7.660154   14.725445    0.149606
  C      8.717882   12.631486    0.630874
  H     11.347441    6.123425    5.342604
  H     12.518714    6.904955    6.393824
  H     13.019739    6.502724    4.810577
  H     11.112124    8.711168    5.540161
  H     12.696882    8.875013    4.735395
  H      8.641718    5.924959    1.345937
  H      9.348631    6.609993    2.785562
  H     10.464141    6.148788    1.509493
  H      8.225287    7.264133   -0.453820
  H     10.018953   10.810901   -1.259147
  H     10.817925   10.886089    1.008632
  H      7.616891    9.891690    2.394224
  H      5.726844   11.478754    2.790221
  H      5.695828   13.704604    1.707380
  H      6.783879   15.066797    0.399307
  H      9.592604   12.997625    0.101535

----------------------------
CARTESIAN COORDINATES (A.U.)
----------------------------
  NO LB      ZA    FRAG     MASS         X           Y           Z
   0 C     6.0000    0    12.011   22.955019   12.989612   10.133087
   1 C     6.0000    0    12.011   22.273427   15.620941    9.067509
   2 O     8.0000    0    15.999   20.970580   15.403823    6.706464
   3 C     6.0000    0    12.011   20.065383   17.518386    5.577464
   4 O     8.0000    0    15.999   20.205127   19.609304    6.549574
   5 C     6.0000    0    12.011   18.699800   17.205137    3.137961
   6 C     6.0000    0    12.011   17.683197   15.100554    2.186990
   7 C     6.0000    0    12.011   17.885465   12.397060    3.204867
   8 N     7.0000    0    14.007   16.632537   15.164232   -0.215031
   9 C     6.0000    0    12.011   17.064061   17.095338   -1.972258
  10 S    16.0000    0    32.060   16.063154   16.745836   -4.964058
  11 N     7.0000    0    14.007   18.355149   19.109061   -1.120135
  12 C     6.0000    0    12.011   18.662642   19.540696    1.652528
  13 C     6.0000    0    12.011   16.585360   21.408228    2.287441
  14 C     6.0000    0    12.011   14.379758   20.581543    3.722342
  15 C     6.0000    0    12.011   12.344639   22.354295    4.066624
  16 C     6.0000    0    12.011   12.443662   24.747426    2.971070
  17 C     6.0000    0    12.011   14.495105   25.562592    1.618969
  18 O     8.0000    0    15.999   14.475593   27.827058    0.282715
  19 C     6.0000    0    12.011   16.474410   23.870050    1.192179
  20 H     1.0000    0     1.008   21.443556   11.571596   10.096058
  21 H     1.0000    0     1.008   23.656941   13.048473   12.082577
  22 H     1.0000    0     1.008   24.603740   12.288367    9.090672
  23 H     1.0000    0     1.008   20.998871   16.461723   10.469388
  24 H     1.0000    0     1.008   23.993630   16.771344    8.948600
  25 H     1.0000    0     1.008   16.330480   11.196551    2.543453
  26 H     1.0000    0     1.008   17.666351   12.491077    5.263949
  27 H     1.0000    0     1.008   19.774360   11.619526    2.852528
  28 H     1.0000    0     1.008   15.543540   13.727222   -0.857596
  29 H     1.0000    0     1.008   18.933078   20.429641   -2.379444
  30 H     1.0000    0     1.008   20.442916   20.571727    1.906037
  31 H     1.0000    0     1.008   14.393838   18.692586    4.524427
  32 H     1.0000    0     1.008   10.822166   21.691702    5.272754
  33 H     1.0000    0     1.008   10.763554   25.897948    3.226481
  34 H     1.0000    0     1.008   12.819673   28.472120    0.754582
  35 H     1.0000    0     1.008   18.127394   24.561952    0.191873

--------------------------------
INTERNAL COORDINATES (ANGSTROEM)
--------------------------------
 C      0   0   0     0.000000000000     0.00000000     0.00000000
 C      1   0   0     1.544972439263     0.00000000     0.00000000
 O      2   1   0     1.431625598795   111.01545702     0.00000000
 C      3   2   1     1.355912700613   119.23784830   175.37843288
 O      4   3   2     1.222441176995   122.69562660   356.37218970
 C      4   3   2     1.488683322696   117.49570933   180.61142331
 C      6   4   3     1.335278727746   127.97013666    18.28547062
 C      7   6   4     1.532410059091   128.17366834   352.91717854
 N      7   6   4     1.387781370466   119.10040154   184.39185503
 C      9   7   6     1.400394481393   124.09559570    15.66223850
 S     10   9   7     1.679655312990   119.61116325   170.45762234
 N     10   9   7     1.343745454287   116.02513864   352.49387156
 C      6   4   3     1.464848689008   112.20356443   201.71196032
 C     13   6   4     1.515877590019   116.15818186   275.48152207
 C     14  13   6     1.459515144059   119.98694899   342.55415935
 C     15  14  13     1.439798538282   117.94923783   185.97074922
 C     16  15  14     1.393768670191   120.74705000     2.58019298
 C     17  16  15     1.369852735056   122.22032049   357.27349759
 O     18  17  16     1.391420185220   122.05653278   172.34675539
 C     18  17  16     1.396516423467   118.48156017     4.29148465
 H      1   2   3     1.096898930595   116.09134303   313.71531403
 H      1   2   3     1.096900020329   113.37329400   189.99750332
 H      1   2   3     1.096898423931   107.88135042    77.44561824
 H      2   1   3     1.096900263251   105.20558319   117.84353411
 H      2   1   3     1.096900017217   109.11058890   234.55319118
 H      8   7   6     1.096900312816   112.09465883   157.52199290
 H      8   7   6     1.096899982756   107.42377756    42.31068998
 H      8   7   6     1.096894846336   110.73800633   286.52032650
 H      9   7   6     1.012901055382   121.14296390   192.40820339
 H     12  10   9     1.012899953779   118.67615661   171.15160899
 H     13   6   4     1.096900075011   110.02991394    35.54260620
 H     15  14  13     1.086000018075   118.27663887     8.09286983
 H     16  15  14     1.086000166187   114.76513604   184.67728931
 H     17  16  15     1.085999959038   115.26688165   175.82304457
 H     19  18  17     0.973000361187   100.27642348     3.94742661
 H     20  18  17     1.085999992508   117.82016618   182.71702624

---------------------------
INTERNAL COORDINATES (A.U.)
---------------------------
 C      0   0   0     0.000000000000     0.00000000     0.00000000
 C      1   0   0     2.919574794664     0.00000000     0.00000000
 O      2   1   0     2.705380308034   111.01545702     0.00000000
 C      3   2   1     2.562303665664   119.23784830   175.37843288
 O      4   3   2     2.310079039349   122.69562660   356.37218970
 C      4   3   2     2.813203780032   117.49570933   180.61142331
 C      6   4   3     2.523311107890   127.97013666    18.28547062
 C      7   6   4     2.895835336548   128.17366834   352.91717854
 N      7   6   4     2.622526723938   119.10040154   184.39185503
 C      9   7   6     2.646362049288   124.09559570    15.66223850
 S     10   9   7     3.174088540937   119.61116325   170.45762234
 N     10   9   7     2.539310902304   116.02513864   352.49387156
 C      6   4   3     2.768162849859   112.20356443   201.71196032
 C     13   6   4     2.864593497684   116.15818186   275.48152207
 C     14  13   6     2.758083910583   119.98694899   342.55415935
 C     15  14  13     2.720824925372   117.94923783   185.97074922
 C     16  15  14     2.633841080700   120.74705000     2.58019298
 C     17  16  15     2.588646513059   122.22032049   357.27349759
 O     18  17  16     2.629403087275   122.05653278   172.34675539
 C     18  17  16     2.639033581875   118.48156017     4.29148465
 H      1   2   3     2.072838575415   116.09134303   313.71531403
 H      1   2   3     2.072840634715   113.37329400   189.99750332
 H      1   2   3     2.072837617960   107.88135042    77.44561824
 H      2   1   3     2.072841093771   105.20558319   117.84353411
 H      2   1   3     2.072840628833   109.11058890   234.55319118
 H      8   7   6     2.072841187435   112.09465883   157.52199290
 H      8   7   6     2.072840563712   107.42377756    42.31068998
 H      8   7   6     2.072830857285   110.73800633   286.52032650
 H      9   7   6     1.914105595431   121.14296390   192.40820339
 H     12  10   9     1.914103513704   118.67615661   171.15160899
 H     13   6   4     2.072840738048   110.02991394    35.54260620
 H     15  14  13     2.052242615596   118.27663887     8.09286983
 H     16  15  14     2.052242895486   114.76513604   184.67728931
 H     17  16  15     2.052242504032   115.26688165   175.82304457
 H     19  18  17     1.838704210850   100.27642348     3.94742661
 H     20  18  17     2.052242567281   117.82016618   182.71702624

---------------------
BASIS SET INFORMATION
---------------------
There are 5 groups of distinct atoms

 Group   1 Type C   : 18s5p2d1f contracted to 4s3p2d1f pattern {8811/311/11/1}
 Group   2 Type O   : 18s5p2d1f contracted to 4s3p2d1f pattern {8811/311/11/1}
 Group   3 Type N   : 18s5p2d1f contracted to 4s3p2d1f pattern {8811/311/11/1}
 Group   4 Type S   : 41s16p2d1f contracted to 5s4p2d1f pattern {13131311/7711/11/1}
 Group   5 Type H   : 5s2p1d contracted to 3s2p1d pattern {311/11/1}

Atom   0C    basis set group =>   1
Atom   1C    basis set group =>   1
Atom   2O    basis set group =>   2
Atom   3C    basis set group =>   1
Atom   4O    basis set group =>   2
Atom   5C    basis set group =>   1
Atom   6C    basis set group =>   1
Atom   7C    basis set group =>   1
Atom   8N    basis set group =>   3
Atom   9C    basis set group =>   1
Atom  10S    basis set group =>   4
Atom  11N    basis set group =>   3
Atom  12C    basis set group =>   1
Atom  13C    basis set group =>   1
Atom  14C    basis set group =>   1
Atom  15C    basis set group =>   1
Atom  16C    basis set group =>   1
Atom  17C    basis set group =>   1
Atom  18O    basis set group =>   2
Atom  19C    basis set group =>   1
Atom  20H    basis set group =>   5
Atom  21H    basis set group =>   5
Atom  22H    basis set group =>   5
Atom  23H    basis set group =>   5
Atom  24H    basis set group =>   5
Atom  25H    basis set group =>   5
Atom  26H    basis set group =>   5
Atom  27H    basis set group =>   5
Atom  28H    basis set group =>   5
Atom  29H    basis set group =>   5
Atom  30H    basis set group =>   5
Atom  31H    basis set group =>   5
Atom  32H    basis set group =>   5
Atom  33H    basis set group =>   5
Atom  34H    basis set group =>   5
Atom  35H    basis set group =>   5
---------------------------------
AUXILIARY/C BASIS SET INFORMATION
---------------------------------
There are 5 groups of distinct atoms

 Group   1 Type C   : 8s6p5d3f1g contracted to 8s6p5d3f1g pattern {11111111/111111/11111/111/1}
 Group   2 Type O   : 8s6p5d3f1g contracted to 8s6p5d3f1g pattern {11111111/111111/11111/111/1}
 Group   3 Type N   : 8s6p5d3f1g contracted to 8s6p5d3f1g pattern {11111111/111111/11111/111/1}
 Group   4 Type S   : 10s8p7d5f2g contracted to 10s8p7d5f2g pattern {1111111111/11111111/1111111/11111/11}
 Group   5 Type H   : 4s3p2d1f contracted to 4s3p2d1f pattern {1111/111/11/1}

Atom   0C    basis set group =>   1
Atom   1C    basis set group =>   1
Atom   2O    basis set group =>   2
Atom   3C    basis set group =>   1
Atom   4O    basis set group =>   2
Atom   5C    basis set group =>   1
Atom   6C    basis set group =>   1
Atom   7C    basis set group =>   1
Atom   8N    basis set group =>   3
Atom   9C    basis set group =>   1
Atom  10S    basis set group =>   4
Atom  11N    basis set group =>   3
Atom  12C    basis set group =>   1
Atom  13C    basis set group =>   1
Atom  14C    basis set group =>   1
Atom  15C    basis set group =>   1
Atom  16C    basis set group =>   1
Atom  17C    basis set group =>   1
Atom  18O    basis set group =>   2
Atom  19C    basis set group =>   1
Atom  20H    basis set group =>   5
Atom  21H    basis set group =>   5
Atom  22H    basis set group =>   5
Atom  23H    basis set group =>   5
Atom  24H    basis set group =>   5
Atom  25H    basis set group =>   5
Atom  26H    basis set group =>   5
Atom  27H    basis set group =>   5
Atom  28H    basis set group =>   5
Atom  29H    basis set group =>   5
Atom  30H    basis set group =>   5
Atom  31H    basis set group =>   5
Atom  32H    basis set group =>   5
Atom  33H    basis set group =>   5
Atom  34H    basis set group =>   5
Atom  35H    basis set group =>   5
------------------------------------------------------------------------------
                           ORCA GTO INTEGRAL CALCULATION
------------------------------------------------------------------------------
------------------------------------------------------------------------------
                   ___                                                        
                  /   \      - P O W E R E D   B Y -                         
                 /     \                                                     
                 |  |  |   _    _      __       _____    __    __             
                 |  |  |  | |  | |    /  \     |  _  \  |  |  /  |          
                  \  \/   | |  | |   /    \    | | | |  |  | /  /          
                 / \  \   | |__| |  /  /\  \   | |_| |  |  |/  /          
                |  |  |   |  __  | /  /__\  \  |    /   |      \           
                |  |  |   | |  | | |   __   |  |    \   |  |\   \          
                \     /   | |  | | |  |  |  |  | |\  \  |  | \   \       
                 \___/    |_|  |_| |__|  |__|  |_| \__\ |__|  \__/        
                                                                              
                      - O R C A' S   B I G   F R I E N D -                    
                                      &                                       
                       - I N T E G R A L  F E E D E R -                       
                                                                              
 v1 FN, 2020, v2 2021                                                         
------------------------------------------------------------------------------


Reading SHARK input file qm_input.vacu.SHARKINP.tmp ... ok
----------------------
SHARK INTEGRAL PACKAGE
----------------------

Number of atoms                             ...     36
Number of basis functions                   ...    828
Number of shells                            ...    298
Maximum angular momentum                    ...      3
Integral batch strategy                     ... SHARK/LIBINT Hybrid
RI-J (if used) integral strategy            ... SPLIT-RIJ (Revised 2003 algorithm where possible)
Printlevel                                  ...      1
Contraction scheme used                     ... SEGMENTED contraction
Coulomb Range Separation                    ... NOT USED
Exchange Range Separation                   ... NOT USED
Finite Nucleus Model                        ... NOT USED
Auxiliary Coulomb fitting basis             ... NOT available
Auxiliary J/K fitting basis                 ... NOT available
Auxiliary Correlation fitting basis         ... AVAILABLE
   # of basis functions in Aux-C            ...   2141
   # of shells in Aux-C                     ...    629
   Maximum angular momentum in Aux-C        ...      4
Auxiliary 'external' fitting basis          ... NOT available
Integral threshold                          ...     2.500000e-11
Primitive cut-off                           ...     2.500000e-12
Primitive pair pre-selection threshold      ...     2.500000e-12

Calculating pre-screening integrals         ... done (  0.6 sec) Dimension = 298
Organizing shell pair data                  ... done (  0.4 sec)
Shell pair information
Total number of shell pairs                 ...     44551
Shell pairs after pre-screening             ...     31410
Total number of primitive shell pairs       ...    234348
Primitive shell pairs kept                  ...     91281
          la=0 lb=0:   6262 shell pairs
          la=1 lb=0:   8743 shell pairs
          la=1 lb=1:   3087 shell pairs
          la=2 lb=0:   5000 shell pairs
          la=2 lb=1:   3434 shell pairs
          la=2 lb=2:    972 shell pairs
          la=3 lb=0:   1826 shell pairs
          la=3 lb=1:   1254 shell pairs
          la=3 lb=2:    692 shell pairs
          la=3 lb=3:    140 shell pairs

Calculating one electron integrals          ... done (  0.4 sec)
Calculating RI/C V-Matrix + Cholesky decomp.... done (  0.4 sec)
Calculating Nuclear repulsion               ... done (  0.0 sec) ENN=   1671.274089931181 Eh

SHARK setup successfully completed in   1.9 seconds

Maximum memory used throughout the entire GTOINT-calculation: 471.0 MB
-------------------------------------------------------------------------------
                                 ORCA SCF
-------------------------------------------------------------------------------

------------
SCF SETTINGS
------------
Hamiltonian:
 Ab initio Hamiltonian  Method          .... Hartree-Fock(GTOs)


General Settings:
 Integral files         IntName         .... qm_input.vacu
 Hartree-Fock type      HFTyp           .... RHF
 Total Charge           Charge          ....    0
 Multiplicity           Mult            ....    1
 Number of Electrons    NEL             ....  154
 Basis Dimension        Dim             ....  828
 Nuclear Repulsion      ENuc            ....   1671.2740899312 Eh

Convergence Acceleration:
 DIIS                   CNVDIIS         .... on
   Start iteration      DIISMaxIt       ....    12
   Startup error        DIISStart       ....  0.200000
   # of expansion vecs  DIISMaxEq       ....     5
   Bias factor          DIISBfac        ....   1.050
   Max. coefficient     DIISMaxC        ....  10.000
 Trust-Rad. Augm. Hess. CNVTRAH         .... auto
   Auto Start mean grad. ratio tolernc. ....  1.125000
   Auto Start start iteration           ....    20
   Auto Start num. interpolation iter.  ....    10
   Max. Number of Micro iterations      ....    16
   Max. Number of Macro iterations      .... Maxiter - #DIIS iter
   Number of Davidson start vectors     ....     2
   Converg. threshold I  (grad. norm)   ....   1.000e-05
   Converg. threshold II (energy diff.) ....   1.000e-08
   Grad. Scal. Fac. for Micro threshold ....   0.100
   Minimum threshold for Micro iter.    ....   0.010
   NR start threshold (gradient norm)   ....   0.001
   Initial trust radius                 ....   0.400
   Minimum AH scaling param. (alpha)    ....   1.000
   Maximum AH scaling param. (alpha)    .... 1000.000
   Orbital update algorithm             .... Taylor
   White noise on init. David. guess    .... on
   Maximum white noise                  ....   0.010
   Quad. conv. algorithm                .... NR
 SOSCF                  CNVSOSCF        .... on
   Start iteration      SOSCFMaxIt      ....   150
   Startup grad/error   SOSCFStart      ....  0.003300
 Level Shifting         CNVShift        .... on
   Level shift para.    LevelShift      ....    0.2500
   Turn off err/grad.   ShiftErr        ....    0.0010
 Zerner damping         CNVZerner       .... off
 Static damping         CNVDamp         .... on
   Fraction old density DampFac         ....    0.7000
   Max. Damping (<1)    DampMax         ....    0.9800
   Min. Damping (>=0)   DampMin         ....    0.0000
   Turn off err/grad.   DampErr         ....    0.1000
 Fernandez-Rico         CNVRico         .... off

SCF Procedure:
 Maximum # iterations   MaxIter         ....   125
 SCF integral mode      SCFMode         .... Direct
   Integral package                     .... SHARK and LIBINT hybrid scheme
 Reset frequency        DirectResetFreq ....    20
 Integral Threshold     Thresh          ....  2.500e-11 Eh
 Primitive CutOff       TCut            ....  2.500e-12 Eh

Convergence Tolerance:
 Convergence Check Mode ConvCheckMode   .... Total+1el-Energy
 Convergence forced     ConvForced      .... 1
 Energy Change          TolE            ....  1.000e-08 Eh
 1-El. energy change                    ....  1.000e-05 Eh
 Orbital Gradient       TolG            ....  1.000e-05
 Orbital Rotation angle TolX            ....  1.000e-05
 DIIS Error             TolErr          ....  5.000e-07


Diagonalization of the overlap matrix:
Smallest eigenvalue                        ... 4.038e-05
Time for diagonalization                   ...    0.146 sec
Threshold for overlap eigenvalues          ... 1.000e-08
Number of eigenvalues below threshold      ... 0
Time for construction of square roots      ...    0.095 sec
Total time needed                          ...    0.243 sec

Time for model grid setup =    1.426 sec

------------------------------
INITIAL GUESS: MODEL POTENTIAL
------------------------------
Loading Hartree-Fock densities                     ... done
Calculating cut-offs                               ... done
Initializing the effective Hamiltonian             ... done
Setting up the integral package (SHARK)            ... done
Starting the Coulomb interaction                   ... done (   4.4 sec)
Reading the grid                                   ... done
Mapping shells                                     ... done
Starting the XC term evaluation                    ... done (   1.4 sec)
Transforming the Hamiltonian                       ... done (   0.1 sec)
Diagonalizing the Hamiltonian                      ... done (   0.1 sec)
Back transforming the eigenvectors                 ... done (   0.0 sec)
Now organizing SCF variables                       ... done
                      ------------------
                      INITIAL GUESS DONE (   7.7 sec)
                      ------------------
--------------
SCF ITERATIONS
--------------
ITER       Energy         Delta-E        Max-DP      RMS-DP      [F,P]     Damp
               ***  Starting incremental Fock matrix formation  ***
  0  -1269.9908259974   0.000000000000 0.04907858  0.00044133  0.3199239 0.7000
  1  -1270.2566836669  -0.265857669500 0.03595077  0.00035712  0.1887467 0.7000
                               ***Turning on DIIS***
  2  -1270.4225558116  -0.165872144620 0.02577068  0.00023784  0.1097943 0.7000
  3  -1272.5481991122  -2.125643300599 0.06308081  0.00050595  0.0830017 0.0000
  4  -1270.7349530672   1.813246044975 0.00831404  0.00010361  0.0073475 0.0000
  5  -1270.7936054677  -0.058652400549 0.00425536  0.00005237  0.0043033 0.0000
                      *** Initiating the SOSCF procedure ***
                           *** Shutting down DIIS ***
                      *** Re-Reading the Fockian *** 
                      *** Removing any level shift *** 
ITER      Energy       Delta-E        Grad      Rot      Max-DP    RMS-DP
  6  -1270.76922541   0.0243800532  0.001648  0.001648  0.001833  0.000026
               *** Restarting incremental Fock matrix formation ***
  7  -1270.78355019  -0.0143247791  0.000733  0.001754  0.001378  0.000015
  8  -1270.78359733  -0.0000471332  0.000395  0.002070  0.001540  0.000017
  9  -1270.78361512  -0.0000177936  0.000149  0.000280  0.000369  0.000004
 10  -1270.78361732  -0.0000022024  0.000050  0.000133  0.000112  0.000001
 11  -1270.78361752  -0.0000001983  0.000018  0.000104  0.000074  0.000001
 12  -1270.78361757  -0.0000000507  0.000008  0.000024  0.000025  0.000000
                  ***Gradient check signals convergence***
              ***Rediagonalizing the Fockian in SOSCF/NRSCF***

               *****************************************************
               *                     SUCCESS                       *
               *           SCF CONVERGED AFTER  13 CYCLES          *
               *****************************************************


----------------
TOTAL SCF ENERGY
----------------

Total Energy       :        -1270.78361757 Eh          -34579.78024 eV

Components:
Nuclear Repulsion  :         1671.27408993 Eh           45477.68003 eV
Electronic Energy  :        -2942.05770750 Eh          -80057.46026 eV
One Electron Energy:        -5063.70725541 Eh         -137790.47955 eV
Two Electron Energy:         2121.64954791 Eh           57733.01929 eV

Virial components:
Potential Energy   :        -2539.68821379 Eh          -69108.42970 eV
Kinetic Energy     :         1268.90459622 Eh           34528.64947 eV
Virial Ratio       :            2.00148082


---------------
SCF CONVERGENCE
---------------

  Last Energy change         ...    8.2218e-10  Tolerance :   1.0000e-08
  Last MAX-Density change    ...    5.5642e-06  Tolerance :   1.0000e-07
  Last RMS-Density change    ...    9.0433e-08  Tolerance :   5.0000e-09
  Last Orbital Gradient      ...    1.6184e-06  Tolerance :   1.0000e-05
  Last Orbital Rotation      ...    5.0715e-06  Tolerance :   1.0000e-05

             **** THE GBW FILE WAS UPDATED (qm_input.vacu.gbw) ****
             **** DENSITY qm_input.vacu.scfp WAS UPDATED ****
             **** ENERGY FILE WAS UPDATED (qm_input.vacu.en.tmp) ****
             **** THE GBW FILE WAS UPDATED (qm_input.vacu.gbw) ****
             **** DENSITY qm_input.vacu.scfp WAS UPDATED ****
----------------
ORBITAL ENERGIES
----------------

  NO   OCC          E(Eh)            E(eV) 
   0   2.0000     -91.885903     -2500.3425 
   1   2.0000     -20.615131      -560.9662 
   2   2.0000     -20.591889      -560.3338 
   3   2.0000     -20.548126      -559.1429 
   4   2.0000     -15.625707      -425.1971 
   5   2.0000     -15.611980      -424.8236 
   6   2.0000     -11.398317      -310.1640 
   7   2.0000     -11.383519      -309.7613 
   8   2.0000     -11.333988      -308.4135 
   9   2.0000     -11.305729      -307.6445 
  10   2.0000     -11.305142      -307.6285 
  11   2.0000     -11.304927      -307.6227 
  12   2.0000     -11.262395      -306.4653 
  13   2.0000     -11.261788      -306.4488 
  14   2.0000     -11.255246      -306.2708 
  15   2.0000     -11.250941      -306.1537 
  16   2.0000     -11.239752      -305.8492 
  17   2.0000     -11.239178      -305.8336 
  18   2.0000     -11.235613      -305.7366 
  19   2.0000     -11.234368      -305.7027 
  20   2.0000      -8.890000      -241.9092 
  21   2.0000      -6.571478      -178.8190 
  22   2.0000      -6.569566      -178.7670 
  23   2.0000      -6.568999      -178.7515 
  24   2.0000      -1.464731       -39.8574 
  25   2.0000      -1.398917       -38.0665 
  26   2.0000      -1.363441       -37.1011 
  27   2.0000      -1.340526       -36.4776 
  28   2.0000      -1.240674       -33.7604 
  29   2.0000      -1.151370       -31.3304 
  30   2.0000      -1.125375       -30.6230 
  31   2.0000      -1.048858       -28.5409 
  32   2.0000      -1.038090       -28.2479 
  33   2.0000      -1.010831       -27.5061 
  34   2.0000      -0.996497       -27.1161 
  35   2.0000      -0.977265       -26.5927 
  36   2.0000      -0.925251       -25.1774 
  37   2.0000      -0.898146       -24.4398 
  38   2.0000      -0.846959       -23.0469 
  39   2.0000      -0.838192       -22.8084 
  40   2.0000      -0.823866       -22.4185 
  41   2.0000      -0.813656       -22.1407 
  42   2.0000      -0.768949       -20.9242 
  43   2.0000      -0.741630       -20.1808 
  44   2.0000      -0.718727       -19.5576 
  45   2.0000      -0.694069       -18.8866 
  46   2.0000      -0.690217       -18.7818 
  47   2.0000      -0.682349       -18.5676 
  48   2.0000      -0.678806       -18.4713 
  49   2.0000      -0.666848       -18.1459 
  50   2.0000      -0.654657       -17.8141 
  51   2.0000      -0.645694       -17.5702 
  52   2.0000      -0.631695       -17.1893 
  53   2.0000      -0.612573       -16.6690 
  54   2.0000      -0.595538       -16.2054 
  55   2.0000      -0.594300       -16.1717 
  56   2.0000      -0.586969       -15.9722 
  57   2.0000      -0.586182       -15.9508 
  58   2.0000      -0.576115       -15.6769 
  59   2.0000      -0.568977       -15.4827 
  60   2.0000      -0.560437       -15.2503 
  61   2.0000      -0.555344       -15.1117 
  62   2.0000      -0.545799       -14.8520 
  63   2.0000      -0.527502       -14.3540 
  64   2.0000      -0.517503       -14.0820 
  65   2.0000      -0.507894       -13.8205 
  66   2.0000      -0.500774       -13.6268 
  67   2.0000      -0.491403       -13.3718 
  68   2.0000      -0.475468       -12.9381 
  69   2.0000      -0.466231       -12.6868 
  70   2.0000      -0.464237       -12.6325 
  71   2.0000      -0.454852       -12.3771 
  72   2.0000      -0.361010        -9.8236 
  73   2.0000      -0.338546        -9.2123 
  74   2.0000      -0.321890        -8.7591 
  75   2.0000      -0.317046        -8.6273 
  76   2.0000      -0.311603        -8.4791 
  77   0.0000       0.080349         2.1864 
  78   0.0000       0.111923         3.0456 
  79   0.0000       0.115835         3.1520 
  80   0.0000       0.129960         3.5364 
  81   0.0000       0.134585         3.6623 
  82   0.0000       0.140973         3.8361 
  83   0.0000       0.142765         3.8848 
  84   0.0000       0.157503         4.2859 
  85   0.0000       0.160100         4.3565 
  86   0.0000       0.169462         4.6113 
  87   0.0000       0.175279         4.7696 
  88   0.0000       0.181386         4.9358 
  89   0.0000       0.191944         5.2231 
  90   0.0000       0.200255         5.4492 
  91   0.0000       0.206052         5.6070 
  92   0.0000       0.208141         5.6638 
  93   0.0000       0.223592         6.0842 
  94   0.0000       0.225584         6.1385 
  95   0.0000       0.228657         6.2221 
  96   0.0000       0.245070         6.6687 
  97   0.0000       0.249067         6.7774 
  98   0.0000       0.259399         7.0586 
  99   0.0000       0.274827         7.4784 
 100   0.0000       0.290574         7.9069 
 101   0.0000       0.293436         7.9848 
 102   0.0000       0.311088         8.4651 
 103   0.0000       0.318905         8.6779 
 104   0.0000       0.326351         8.8805 
 105   0.0000       0.335672         9.1341 
 106   0.0000       0.345793         9.4095 
 107   0.0000       0.354219         9.6388 
 108   0.0000       0.355943         9.6857 
 109   0.0000       0.358707         9.7609 
 110   0.0000       0.368956        10.0398 
 111   0.0000       0.372840        10.1455 
 112   0.0000       0.379105        10.3160 
 113   0.0000       0.381336        10.3767 
 114   0.0000       0.396008        10.7759 
 115   0.0000       0.409639        11.1468 
 116   0.0000       0.424800        11.5594 
 117   0.0000       0.424893        11.5619 
 118   0.0000       0.430606        11.7174 
 119   0.0000       0.434967        11.8361 
 120   0.0000       0.440117        11.9762 
 121   0.0000       0.444155        12.0861 
 122   0.0000       0.451929        12.2976 
 123   0.0000       0.459539        12.5047 
 124   0.0000       0.463514        12.6129 
 125   0.0000       0.468843        12.7579 
 126   0.0000       0.473384        12.8814 
 127   0.0000       0.477110        12.9828 
 128   0.0000       0.485221        13.2035 
 129   0.0000       0.491887        13.3849 
 130   0.0000       0.498045        13.5525 
 131   0.0000       0.504780        13.7358 
 132   0.0000       0.513338        13.9686 
 133   0.0000       0.518414        14.1068 
 134   0.0000       0.519816        14.1449 
 135   0.0000       0.524666        14.2769 
 136   0.0000       0.527983        14.3671 
 137   0.0000       0.540182        14.6991 
 138   0.0000       0.543484        14.7890 
 139   0.0000       0.550927        14.9915 
 140   0.0000       0.556470        15.1423 
 141   0.0000       0.559134        15.2148 
 142   0.0000       0.563015        15.3204 
 143   0.0000       0.570595        15.5267 
 144   0.0000       0.574713        15.6387 
 145   0.0000       0.577681        15.7195 
 146   0.0000       0.580344        15.7920 
 147   0.0000       0.586245        15.9525 
 148   0.0000       0.594236        16.1700 
 149   0.0000       0.596386        16.2285 
 150   0.0000       0.600674        16.3452 
 151   0.0000       0.604627        16.4527 
 152   0.0000       0.606056        16.4916 
 153   0.0000       0.612550        16.6683 
 154   0.0000       0.614932        16.7331 
 155   0.0000       0.619952        16.8698 
 156   0.0000       0.621419        16.9097 
 157   0.0000       0.628659        17.1067 
 158   0.0000       0.636574        17.3221 
 159   0.0000       0.641706        17.4617 
 160   0.0000       0.644540        17.5388 
 161   0.0000       0.647677        17.6242 
 162   0.0000       0.650646        17.7050 
 163   0.0000       0.653839        17.7919 
 164   0.0000       0.658624        17.9221 
 165   0.0000       0.665345        18.1050 
 166   0.0000       0.669554        18.2195 
 167   0.0000       0.675294        18.3757 
 168   0.0000       0.677870        18.4458 
 169   0.0000       0.683050        18.5867 
 170   0.0000       0.691005        18.8032 
 171   0.0000       0.695027        18.9126 
 172   0.0000       0.705032        19.1849 
 173   0.0000       0.712430        19.3862 
 174   0.0000       0.720617        19.6090 
 175   0.0000       0.729015        19.8375 
 176   0.0000       0.735858        20.0237 
 177   0.0000       0.738924        20.1071 
 178   0.0000       0.743124        20.2214 
 179   0.0000       0.754762        20.5381 
 180   0.0000       0.761413        20.7191 
 181   0.0000       0.766727        20.8637 
 182   0.0000       0.769718        20.9451 
 183   0.0000       0.788382        21.4530 
 184   0.0000       0.794421        21.6173 
 185   0.0000       0.802314        21.8321 
 186   0.0000       0.816944        22.2302 
 187   0.0000       0.826304        22.4849 
 188   0.0000       0.830943        22.6111 
 189   0.0000       0.835840        22.7444 
 190   0.0000       0.846159        23.0252 
 191   0.0000       0.848561        23.0905 
 192   0.0000       0.855651        23.2834 
 193   0.0000       0.865421        23.5493 
 194   0.0000       0.870937        23.6994 
 195   0.0000       0.875115        23.8131 
 196   0.0000       0.884094        24.0574 
 197   0.0000       0.891356        24.2550 
 198   0.0000       0.896782        24.4027 
 199   0.0000       0.898175        24.4406 
 200   0.0000       0.903177        24.5767 
 201   0.0000       0.922343        25.0982 
 202   0.0000       0.930178        25.3114 
 203   0.0000       0.934669        25.4336 
 204   0.0000       0.936326        25.4787 
 205   0.0000       0.945225        25.7209 
 206   0.0000       0.950479        25.8638 
 207   0.0000       0.957104        26.0441 
 208   0.0000       0.963218        26.2105 
 209   0.0000       0.964019        26.2323 
 210   0.0000       0.974833        26.5266 
 211   0.0000       0.982376        26.7318 
 212   0.0000       0.986784        26.8518 
 213   0.0000       0.990752        26.9597 
 214   0.0000       0.999022        27.1848 
 215   0.0000       0.999454        27.1965 
 216   0.0000       1.009036        27.4573 
 217   0.0000       1.018698        27.7202 
 218   0.0000       1.026912        27.9437 
 219   0.0000       1.035549        28.1787 
 220   0.0000       1.040854        28.3231 
 221   0.0000       1.046789        28.4846 
 222   0.0000       1.056283        28.7429 
 223   0.0000       1.067833        29.0572 
 224   0.0000       1.074629        29.2421 
 225   0.0000       1.078027        29.3346 
 226   0.0000       1.085723        29.5440 
 227   0.0000       1.092708        29.7341 
 228   0.0000       1.106042        30.0969 
 229   0.0000       1.115182        30.3456 
 230   0.0000       1.119066        30.4513 
 231   0.0000       1.129532        30.7361 
 232   0.0000       1.134965        30.8840 
 233   0.0000       1.144463        31.1424 
 234   0.0000       1.152994        31.3746 
 235   0.0000       1.157958        31.5096 
 236   0.0000       1.165282        31.7089 
 237   0.0000       1.170816        31.8595 
 238   0.0000       1.174572        31.9617 
 239   0.0000       1.181031        32.1375 
 240   0.0000       1.191146        32.4127 
 241   0.0000       1.198469        32.6120 
 242   0.0000       1.201531        32.6953 
 243   0.0000       1.210758        32.9464 
 244   0.0000       1.213334        33.0165 
 245   0.0000       1.229025        33.4435 
 246   0.0000       1.237934        33.6859 
 247   0.0000       1.242607        33.8131 
 248   0.0000       1.246852        33.9286 
 249   0.0000       1.251275        34.0489 
 250   0.0000       1.256611        34.1941 
 251   0.0000       1.267630        34.4940 
 252   0.0000       1.276273        34.7291 
 253   0.0000       1.283553        34.9272 
 254   0.0000       1.285941        34.9922 
 255   0.0000       1.297403        35.3041 
 256   0.0000       1.308439        35.6044 
 257   0.0000       1.316283        35.8179 
 258   0.0000       1.320703        35.9382 
 259   0.0000       1.325317        36.0637 
 260   0.0000       1.338899        36.4333 
 261   0.0000       1.353081        36.8192 
 262   0.0000       1.354066        36.8460 
 263   0.0000       1.365649        37.1612 
 264   0.0000       1.371091        37.3093 
 265   0.0000       1.381265        37.5861 
 266   0.0000       1.388108        37.7723 
 267   0.0000       1.397238        38.0208 
 268   0.0000       1.400028        38.0967 
 269   0.0000       1.407019        38.2869 
 270   0.0000       1.411671        38.4135 
 271   0.0000       1.419770        38.6339 
 272   0.0000       1.435706        39.0675 
 273   0.0000       1.447665        39.3930 
 274   0.0000       1.451383        39.4941 
 275   0.0000       1.454795        39.5870 
 276   0.0000       1.462298        39.7912 
 277   0.0000       1.473870        40.1060 
 278   0.0000       1.480052        40.2743 
 279   0.0000       1.485277        40.4164 
 280   0.0000       1.491426        40.5838 
 281   0.0000       1.492725        40.6191 
 282   0.0000       1.498258        40.7697 
 283   0.0000       1.505065        40.9549 
 284   0.0000       1.509770        41.0829 
 285   0.0000       1.523428        41.4546 
 286   0.0000       1.528011        41.5793 
 287   0.0000       1.533015        41.7155 
 288   0.0000       1.544906        42.0390 
 289   0.0000       1.550325        42.1865 
 290   0.0000       1.553993        42.2863 
 291   0.0000       1.563611        42.5480 
 292   0.0000       1.572433        42.7881 
 293   0.0000       1.583016        43.0761 
 294   0.0000       1.585850        43.1532 
 295   0.0000       1.597712        43.4759 
 296   0.0000       1.601402        43.5764 
 297   0.0000       1.608622        43.7728 
 298   0.0000       1.615136        43.9501 
 299   0.0000       1.624010        44.1916 
 300   0.0000       1.631765        44.4026 
 301   0.0000       1.640235        44.6331 
 302   0.0000       1.645139        44.7665 
 303   0.0000       1.654443        45.0197 
 304   0.0000       1.661424        45.2096 
 305   0.0000       1.665258        45.3140 
 306   0.0000       1.678661        45.6787 
 307   0.0000       1.687811        45.9277 
 308   0.0000       1.694898        46.1205 
 309   0.0000       1.705108        46.3984 
 310   0.0000       1.711076        46.5607 
 311   0.0000       1.724670        46.9306 
 312   0.0000       1.736869        47.2626 
 313   0.0000       1.748141        47.5693 
 314   0.0000       1.756778        47.8044 
 315   0.0000       1.765428        48.0397 
 316   0.0000       1.767666        48.1006 
 317   0.0000       1.785006        48.5725 
 318   0.0000       1.785637        48.5897 
 319   0.0000       1.800362        48.9903 
 320   0.0000       1.809673        49.2437 
 321   0.0000       1.822152        49.5833 
 322   0.0000       1.833032        49.8793 
 323   0.0000       1.850441        50.3530 
 324   0.0000       1.855563        50.4924 
 325   0.0000       1.879658        51.1481 
 326   0.0000       1.888005        51.3752 
 327   0.0000       1.891265        51.4639 
 328   0.0000       1.908236        51.9257 
 329   0.0000       1.912882        52.0522 
 330   0.0000       1.928324        52.4724 
 331   0.0000       1.934256        52.6338 
 332   0.0000       1.940084        52.7924 
 333   0.0000       1.944387        52.9095 
 334   0.0000       1.958010        53.2802 
 335   0.0000       1.968662        53.5700 
 336   0.0000       1.981610        53.9224 
 337   0.0000       1.998715        54.3878 
 338   0.0000       2.004700        54.5506 
 339   0.0000       2.007037        54.6142 
 340   0.0000       2.026808        55.1523 
 341   0.0000       2.028420        55.1961 
 342   0.0000       2.043933        55.6183 
 343   0.0000       2.068760        56.2938 
 344   0.0000       2.074834        56.4591 
 345   0.0000       2.101364        57.1810 
 346   0.0000       2.107819        57.3567 
 347   0.0000       2.127459        57.8911 
 348   0.0000       2.138256        58.1849 
 349   0.0000       2.160591        58.7927 
 350   0.0000       2.164719        58.9050 
 351   0.0000       2.173375        59.1405 
 352   0.0000       2.204275        59.9814 
 353   0.0000       2.214160        60.2504 
 354   0.0000       2.238013        60.8994 
 355   0.0000       2.250571        61.2412 
 356   0.0000       2.258013        61.4437 
 357   0.0000       2.268325        61.7243 
 358   0.0000       2.282275        62.1039 
 359   0.0000       2.296565        62.4927 
 360   0.0000       2.310323        62.8671 
 361   0.0000       2.324414        63.2505 
 362   0.0000       2.333235        63.4906 
 363   0.0000       2.339004        63.6475 
 364   0.0000       2.352084        64.0035 
 365   0.0000       2.373223        64.5787 
 366   0.0000       2.377576        64.6971 
 367   0.0000       2.386830        64.9489 
 368   0.0000       2.397400        65.2366 
 369   0.0000       2.404999        65.4433 
 370   0.0000       2.439063        66.3703 
 371   0.0000       2.452777        66.7434 
 372   0.0000       2.464104        67.0517 
 373   0.0000       2.473307        67.3021 
 374   0.0000       2.484597        67.6093 
 375   0.0000       2.496634        67.9369 
 376   0.0000       2.505982        68.1912 
 377   0.0000       2.514031        68.4103 
 378   0.0000       2.531841        68.8949 
 379   0.0000       2.552439        69.4554 
 380   0.0000       2.559840        69.6568 
 381   0.0000       2.568590        69.8949 
 382   0.0000       2.581392        70.2433 
 383   0.0000       2.583446        70.2991 
 384   0.0000       2.596428        70.6524 
 385   0.0000       2.603510        70.8451 
 386   0.0000       2.616117        71.1882 
 387   0.0000       2.619299        71.2748 
 388   0.0000       2.640872        71.8618 
 389   0.0000       2.659463        72.3677 
 390   0.0000       2.672005        72.7090 
 391   0.0000       2.687220        73.1230 
 392   0.0000       2.694172        73.3122 
 393   0.0000       2.704181        73.5845 
 394   0.0000       2.715557        73.8941 
 395   0.0000       2.726460        74.1908 
 396   0.0000       2.733056        74.3702 
 397   0.0000       2.737582        74.4934 
 398   0.0000       2.746098        74.7251 
 399   0.0000       2.750665        74.8494 
 400   0.0000       2.761974        75.1571 
 401   0.0000       2.772467        75.4427 
 402   0.0000       2.781683        75.6935 
 403   0.0000       2.801805        76.2410 
 404   0.0000       2.814991        76.5998 
 405   0.0000       2.820888        76.7603 
 406   0.0000       2.826395        76.9101 
 407   0.0000       2.840467        77.2930 
 408   0.0000       2.845822        77.4388 
 409   0.0000       2.861552        77.8668 
 410   0.0000       2.866170        77.9925 
 411   0.0000       2.870830        78.1193 
 412   0.0000       2.883389        78.4610 
 413   0.0000       2.893758        78.7432 
 414   0.0000       2.897352        78.8410 
 415   0.0000       2.912566        79.2550 
 416   0.0000       2.923597        79.5551 
 417   0.0000       2.942936        80.0814 
 418   0.0000       2.946704        80.1839 
 419   0.0000       2.962089        80.6025 
 420   0.0000       2.964684        80.6732 
 421   0.0000       2.970863        80.8413 
 422   0.0000       2.978722        81.0551 
 423   0.0000       2.990775        81.3831 
 424   0.0000       2.992190        81.4216 
 425   0.0000       3.008715        81.8713 
 426   0.0000       3.023588        82.2760 
 427   0.0000       3.027623        82.3858 
 428   0.0000       3.032982        82.5316 
 429   0.0000       3.036364        82.6237 
 430   0.0000       3.043594        82.8204 
 431   0.0000       3.044244        82.8381 
 432   0.0000       3.057003        83.1853 
 433   0.0000       3.067598        83.4736 
 434   0.0000       3.074700        83.6668 
 435   0.0000       3.080106        83.8139 
 436   0.0000       3.083217        83.8986 
 437   0.0000       3.090458        84.0956 
 438   0.0000       3.093282        84.1725 
 439   0.0000       3.103528        84.4513 
 440   0.0000       3.110241        84.6340 
 441   0.0000       3.119917        84.8973 
 442   0.0000       3.126062        85.0645 
 443   0.0000       3.137062        85.3638 
 444   0.0000       3.143529        85.5398 
 445   0.0000       3.156326        85.8880 
 446   0.0000       3.160921        86.0130 
 447   0.0000       3.163735        86.0896 
 448   0.0000       3.167467        86.1912 
 449   0.0000       3.184364        86.6509 
 450   0.0000       3.185704        86.6874 
 451   0.0000       3.192114        86.8618 
 452   0.0000       3.198128        87.0255 
 453   0.0000       3.209729        87.3412 
 454   0.0000       3.215232        87.4909 
 455   0.0000       3.223937        87.7278 
 456   0.0000       3.233827        87.9969 
 457   0.0000       3.240752        88.1853 
 458   0.0000       3.243897        88.2709 
 459   0.0000       3.251768        88.4851 
 460   0.0000       3.259206        88.6875 
 461   0.0000       3.264167        88.8225 
 462   0.0000       3.267778        88.9208 
 463   0.0000       3.277862        89.1952 
 464   0.0000       3.291821        89.5750 
 465   0.0000       3.294877        89.6582 
 466   0.0000       3.296504        89.7024 
 467   0.0000       3.307413        89.9993 
 468   0.0000       3.311342        90.1062 
 469   0.0000       3.315099        90.2084 
 470   0.0000       3.328671        90.5777 
 471   0.0000       3.331688        90.6598 
 472   0.0000       3.340876        90.9099 
 473   0.0000       3.350401        91.1691 
 474   0.0000       3.358863        91.3993 
 475   0.0000       3.364277        91.5466 
 476   0.0000       3.370245        91.7090 
 477   0.0000       3.376652        91.8834 
 478   0.0000       3.379573        91.9629 
 479   0.0000       3.384380        92.0937 
 480   0.0000       3.390602        92.2630 
 481   0.0000       3.396398        92.4207 
 482   0.0000       3.406643        92.6995 
 483   0.0000       3.411818        92.8403 
 484   0.0000       3.414312        92.9082 
 485   0.0000       3.420330        93.0719 
 486   0.0000       3.424882        93.1958 
 487   0.0000       3.430394        93.3458 
 488   0.0000       3.430722        93.3547 
 489   0.0000       3.437952        93.5514 
 490   0.0000       3.441341        93.6436 
 491   0.0000       3.449395        93.8628 
 492   0.0000       3.451323        93.9153 
 493   0.0000       3.457238        94.0762 
 494   0.0000       3.459679        94.1426 
 495   0.0000       3.469154        94.4005 
 496   0.0000       3.480392        94.7063 
 497   0.0000       3.486530        94.8733 
 498   0.0000       3.489601        94.9569 
 499   0.0000       3.510486        95.5252 
 500   0.0000       3.513165        95.5981 
 501   0.0000       3.519363        95.7667 
 502   0.0000       3.531803        96.1053 
 503   0.0000       3.539454        96.3134 
 504   0.0000       3.545436        96.4762 
 505   0.0000       3.552861        96.6783 
 506   0.0000       3.559329        96.8543 
 507   0.0000       3.562911        96.9517 
 508   0.0000       3.573077        97.2284 
 509   0.0000       3.578951        97.3882 
 510   0.0000       3.589120        97.6649 
 511   0.0000       3.598714        97.9260 
 512   0.0000       3.601521        98.0024 
 513   0.0000       3.609187        98.2110 
 514   0.0000       3.617379        98.4339 
 515   0.0000       3.623614        98.6035 
 516   0.0000       3.633607        98.8755 
 517   0.0000       3.639359        99.0320 
 518   0.0000       3.647520        99.2541 
 519   0.0000       3.651869        99.3724 
 520   0.0000       3.655471        99.4704 
 521   0.0000       3.665632        99.7469 
 522   0.0000       3.670479        99.8788 
 523   0.0000       3.674160        99.9790 
 524   0.0000       3.677072       100.0582 
 525   0.0000       3.684322       100.2555 
 526   0.0000       3.690240       100.4165 
 527   0.0000       3.692423       100.4759 
 528   0.0000       3.699063       100.6566 
 529   0.0000       3.702777       100.7577 
 530   0.0000       3.714298       101.0712 
 531   0.0000       3.719702       101.2182 
 532   0.0000       3.726657       101.4075 
 533   0.0000       3.727835       101.4396 
 534   0.0000       3.734022       101.6079 
 535   0.0000       3.746184       101.9389 
 536   0.0000       3.748280       101.9959 
 537   0.0000       3.752099       102.0998 
 538   0.0000       3.757321       102.2419 
 539   0.0000       3.766084       102.4804 
 540   0.0000       3.777423       102.7889 
 541   0.0000       3.780299       102.8672 
 542   0.0000       3.795948       103.2930 
 543   0.0000       3.796414       103.3057 
 544   0.0000       3.804467       103.5248 
 545   0.0000       3.807988       103.6206 
 546   0.0000       3.821879       103.9986 
 547   0.0000       3.824779       104.0775 
 548   0.0000       3.828033       104.1661 
 549   0.0000       3.835374       104.3658 
 550   0.0000       3.839580       104.4803 
 551   0.0000       3.860012       105.0363 
 552   0.0000       3.868704       105.2728 
 553   0.0000       3.869887       105.3050 
 554   0.0000       3.878443       105.5378 
 555   0.0000       3.887569       105.7861 
 556   0.0000       3.894954       105.9871 
 557   0.0000       3.903162       106.2104 
 558   0.0000       3.920858       106.6920 
 559   0.0000       3.928707       106.9056 
 560   0.0000       3.931250       106.9747 
 561   0.0000       3.942094       107.2698 
 562   0.0000       3.951768       107.5331 
 563   0.0000       3.964104       107.8688 
 564   0.0000       3.979898       108.2985 
 565   0.0000       3.984539       108.4248 
 566   0.0000       3.998811       108.8132 
 567   0.0000       4.009417       109.1018 
 568   0.0000       4.019707       109.3818 
 569   0.0000       4.027151       109.5843 
 570   0.0000       4.032959       109.7424 
 571   0.0000       4.034290       109.7786 
 572   0.0000       4.038109       109.8825 
 573   0.0000       4.051776       110.2544 
 574   0.0000       4.055028       110.3429 
 575   0.0000       4.055544       110.3570 
 576   0.0000       4.079730       111.0151 
 577   0.0000       4.084206       111.1369 
 578   0.0000       4.093654       111.3940 
 579   0.0000       4.095925       111.4558 
 580   0.0000       4.109764       111.8324 
 581   0.0000       4.116385       112.0125 
 582   0.0000       4.122464       112.1780 
 583   0.0000       4.129914       112.3807 
 584   0.0000       4.136199       112.5517 
 585   0.0000       4.144347       112.7734 
 586   0.0000       4.155725       113.0830 
 587   0.0000       4.162708       113.2730 
 588   0.0000       4.166911       113.3874 
 589   0.0000       4.169279       113.4519 
 590   0.0000       4.172967       113.5522 
 591   0.0000       4.178966       113.7155 
 592   0.0000       4.184212       113.8582 
 593   0.0000       4.197280       114.2138 
 594   0.0000       4.201799       114.3368 
 595   0.0000       4.208224       114.5116 
 596   0.0000       4.222580       114.9022 
 597   0.0000       4.224676       114.9593 
 598   0.0000       4.231345       115.1408 
 599   0.0000       4.237436       115.3065 
 600   0.0000       4.246472       115.5524 
 601   0.0000       4.265300       116.0647 
 602   0.0000       4.271416       116.2311 
 603   0.0000       4.278424       116.4218 
 604   0.0000       4.292797       116.8129 
 605   0.0000       4.293724       116.8382 
 606   0.0000       4.300126       117.0124 
 607   0.0000       4.309591       117.2699 
 608   0.0000       4.315810       117.4392 
 609   0.0000       4.317771       117.4925 
 610   0.0000       4.320128       117.5567 
 611   0.0000       4.336593       118.0047 
 612   0.0000       4.338942       118.0686 
 613   0.0000       4.351022       118.3973 
 614   0.0000       4.363063       118.7250 
 615   0.0000       4.370030       118.9145 
 616   0.0000       4.375040       119.0509 
 617   0.0000       4.391402       119.4961 
 618   0.0000       4.398878       119.6996 
 619   0.0000       4.400655       119.7479 
 620   0.0000       4.407553       119.9356 
 621   0.0000       4.409369       119.9850 
 622   0.0000       4.428787       120.5134 
 623   0.0000       4.435042       120.6836 
 624   0.0000       4.439733       120.8113 
 625   0.0000       4.447531       121.0235 
 626   0.0000       4.457840       121.3040 
 627   0.0000       4.463485       121.4576 
 628   0.0000       4.475524       121.7852 
 629   0.0000       4.478613       121.8693 
 630   0.0000       4.482269       121.9687 
 631   0.0000       4.493920       122.2858 
 632   0.0000       4.500599       122.4675 
 633   0.0000       4.514613       122.8489 
 634   0.0000       4.534059       123.3780 
 635   0.0000       4.538742       123.5054 
 636   0.0000       4.549445       123.7967 
 637   0.0000       4.550262       123.8189 
 638   0.0000       4.553882       123.9174 
 639   0.0000       4.566288       124.2550 
 640   0.0000       4.569425       124.3404 
 641   0.0000       4.585402       124.7751 
 642   0.0000       4.586274       124.7989 
 643   0.0000       4.594446       125.0212 
 644   0.0000       4.607404       125.3738 
 645   0.0000       4.612116       125.5020 
 646   0.0000       4.619731       125.7093 
 647   0.0000       4.632556       126.0582 
 648   0.0000       4.636749       126.1724 
 649   0.0000       4.643416       126.3538 
 650   0.0000       4.656129       126.6997 
 651   0.0000       4.664220       126.9199 
 652   0.0000       4.670897       127.1016 
 653   0.0000       4.678551       127.3099 
 654   0.0000       4.685818       127.5076 
 655   0.0000       4.701777       127.9419 
 656   0.0000       4.707883       128.1080 
 657   0.0000       4.725743       128.5940 
 658   0.0000       4.732724       128.7840 
 659   0.0000       4.734813       128.8408 
 660   0.0000       4.754067       129.3647 
 661   0.0000       4.759939       129.5245 
 662   0.0000       4.770219       129.8043 
 663   0.0000       4.802346       130.6785 
 664   0.0000       4.814582       131.0114 
 665   0.0000       4.822837       131.2361 
 666   0.0000       4.827297       131.3574 
 667   0.0000       4.858660       132.2108 
 668   0.0000       4.889080       133.0386 
 669   0.0000       4.891723       133.1105 
 670   0.0000       4.898712       133.3007 
 671   0.0000       4.936804       134.3373 
 672   0.0000       4.954588       134.8212 
 673   0.0000       4.977442       135.4431 
 674   0.0000       4.980483       135.5258 
 675   0.0000       4.988489       135.7437 
 676   0.0000       5.000525       136.0712 
 677   0.0000       5.017781       136.5408 
 678   0.0000       5.024307       136.7184 
 679   0.0000       5.041857       137.1959 
 680   0.0000       5.057836       137.6307 
 681   0.0000       5.079086       138.2090 
 682   0.0000       5.083467       138.3282 
 683   0.0000       5.092665       138.5785 
 684   0.0000       5.100020       138.7786 
 685   0.0000       5.110460       139.0627 
 686   0.0000       5.121081       139.3517 
 687   0.0000       5.131624       139.6386 
 688   0.0000       5.139984       139.8661 
 689   0.0000       5.150653       140.1564 
 690   0.0000       5.160648       140.4284 
 691   0.0000       5.173416       140.7758 
 692   0.0000       5.180627       140.9720 
 693   0.0000       5.184178       141.0687 
 694   0.0000       5.202092       141.5561 
 695   0.0000       5.206623       141.6794 
 696   0.0000       5.213751       141.8734 
 697   0.0000       5.223225       142.1312 
 698   0.0000       5.231461       142.3553 
 699   0.0000       5.239910       142.5852 
 700   0.0000       5.252854       142.9374 
 701   0.0000       5.265160       143.2723 
 702   0.0000       5.294065       144.0588 
 703   0.0000       5.312101       144.5496 
 704   0.0000       5.316859       144.6791 
 705   0.0000       5.329736       145.0295 
 706   0.0000       5.347303       145.5075 
 707   0.0000       5.361441       145.8922 
 708   0.0000       5.370557       146.1403 
 709   0.0000       5.376410       146.2996 
 710   0.0000       5.396501       146.8463 
 711   0.0000       5.403716       147.0426 
 712   0.0000       5.447371       148.2305 
 713   0.0000       5.463234       148.6622 
 714   0.0000       5.463836       148.6785 
 715   0.0000       5.479717       149.1107 
 716   0.0000       5.486358       149.2914 
 717   0.0000       5.488295       149.3441 
 718   0.0000       5.501050       149.6912 
 719   0.0000       5.517113       150.1283 
 720   0.0000       5.538766       150.7175 
 721   0.0000       5.544758       150.8805 
 722   0.0000       5.554962       151.1582 
 723   0.0000       5.579006       151.8125 
 724   0.0000       5.584248       151.9551 
 725   0.0000       5.601090       152.4134 
 726   0.0000       5.612306       152.7186 
 727   0.0000       5.613748       152.7578 
 728   0.0000       5.628388       153.1562 
 729   0.0000       5.639286       153.4528 
 730   0.0000       5.642704       153.5458 
 731   0.0000       5.653988       153.8528 
 732   0.0000       5.663603       154.1145 
 733   0.0000       5.676708       154.4711 
 734   0.0000       5.693863       154.9379 
 735   0.0000       5.710222       155.3830 
 736   0.0000       5.717788       155.5889 
 737   0.0000       5.727989       155.8665 
 738   0.0000       5.739777       156.1873 
 739   0.0000       5.748335       156.4201 
 740   0.0000       5.769815       157.0046 
 741   0.0000       5.776248       157.1797 
 742   0.0000       5.791395       157.5919 
 743   0.0000       5.813558       158.1950 
 744   0.0000       5.838476       158.8730 
 745   0.0000       5.847324       159.1138 
 746   0.0000       5.852305       159.2493 
 747   0.0000       5.885535       160.1535 
 748   0.0000       5.893274       160.3641 
 749   0.0000       5.905271       160.6906 
 750   0.0000       5.935257       161.5066 
 751   0.0000       5.955698       162.0628 
 752   0.0000       5.967337       162.3795 
 753   0.0000       5.976898       162.6397 
 754   0.0000       5.986257       162.8943 
 755   0.0000       6.047131       164.5508 
 756   0.0000       6.053777       164.7317 
 757   0.0000       6.074344       165.2913 
 758   0.0000       6.093831       165.8216 
 759   0.0000       6.104861       166.1217 
 760   0.0000       6.134451       166.9269 
 761   0.0000       6.168960       167.8659 
 762   0.0000       6.182223       168.2268 
 763   0.0000       6.211135       169.0136 
 764   0.0000       6.224045       169.3649 
 765   0.0000       6.247703       170.0086 
 766   0.0000       6.253849       170.1759 
 767   0.0000       6.277125       170.8092 
 768   0.0000       6.305103       171.5706 
 769   0.0000       6.315349       171.8494 
 770   0.0000       6.340216       172.5261 
 771   0.0000       6.351226       172.8257 
 772   0.0000       6.365484       173.2136 
 773   0.0000       6.390603       173.8972 
 774   0.0000       6.452141       175.5717 
 775   0.0000       6.492952       176.6822 
 776   0.0000       6.505700       177.0291 
 777   0.0000       6.508210       177.0974 
 778   0.0000       6.538710       177.9274 
 779   0.0000       6.596118       179.4895 
 780   0.0000       6.655123       181.0951 
 781   0.0000       6.686297       181.9434 
 782   0.0000       6.705091       182.4548 
 783   0.0000       6.749780       183.6709 
 784   0.0000       6.789436       184.7499 
 785   0.0000       6.804741       185.1664 
 786   0.0000       6.887844       187.4278 
 787   0.0000       6.900953       187.7845 
 788   0.0000       6.939327       188.8287 
 789   0.0000       7.038114       191.5168 
 790   0.0000       7.070254       192.3914 
 791   0.0000       7.081508       192.6976 
 792   0.0000       7.100197       193.2062 
 793   0.0000       7.122600       193.8158 
 794   0.0000       7.129124       193.9933 
 795   0.0000       7.232357       196.8025 
 796   0.0000       7.256470       197.4586 
 797   0.0000       7.272663       197.8992 
 798   0.0000       7.351732       200.0508 
 799   0.0000       7.353447       200.0975 
 800   0.0000       7.467076       203.1895 
 801   0.0000       7.475807       203.4271 
 802   0.0000       7.578196       206.2132 
 803   0.0000       7.580201       206.2677 
 804   0.0000       7.699108       209.5034 
 805   0.0000       7.770290       211.4403 
 806   0.0000       7.853338       213.7002 
 807   0.0000       7.865028       214.0183 
 808   0.0000       7.968046       216.8215 
 809   0.0000       9.364621       254.8243 
 810   0.0000       9.817047       267.1354 
 811   0.0000      10.822851       294.5048 
 812   0.0000      11.437740       311.2367 
 813   0.0000      12.008924       326.7794 
 814   0.0000      12.162893       330.9691 
 815   0.0000      12.735956       346.5630 
 816   0.0000      12.859171       349.9158 
 817   0.0000      13.131603       357.3291 
 818   0.0000      13.225012       359.8709 
 819   0.0000      13.558327       368.9408 
 820   0.0000      13.661553       371.7498 
 821   0.0000      13.732148       373.6708 
 822   0.0000      13.797813       375.4576 
 823   0.0000      13.896921       378.1544 
 824   0.0000      14.091194       383.4409 
 825   0.0000      14.617635       397.7661 
 826   0.0000      15.050010       409.5316 
 827   0.0000      15.602890       424.5762 

                    ********************************
                    * MULLIKEN POPULATION ANALYSIS *
                    ********************************

-----------------------
MULLIKEN ATOMIC CHARGES
-----------------------
   0 C :   -0.277622
   1 C :    0.048774
   2 O :   -0.323947
   3 C :    0.423911
   4 O :   -0.425333
   5 C :   -0.197333
   6 C :    0.141894
   7 C :   -0.262853
   8 N :   -0.148640
   9 C :    0.224497
  10 S :   -0.457267
  11 N :   -0.192586
  12 C :    0.046887
  13 C :    0.116706
  14 C :   -0.207885
  15 C :   -0.142170
  16 C :   -0.261743
  17 C :    0.319228
  18 O :   -0.368637
  19 C :   -0.256433
  20 H :    0.100223
  21 H :    0.102560
  22 H :    0.091043
  23 H :    0.087757
  24 H :    0.097546
  25 H :    0.105646
  26 H :    0.111405
  27 H :    0.134831
  28 H :    0.196921
  29 H :    0.203270
  30 H :    0.150946
  31 H :    0.152796
  32 H :    0.159803
  33 H :    0.123355
  34 H :    0.241766
  35 H :    0.140686
Sum of atomic charges:   -0.0000000

--------------------------------
MULLIKEN REDUCED ORBITAL CHARGES
--------------------------------
  0 C s       :     3.260403  s :     3.260403
      pz      :     1.000433  p :     2.939529
      px      :     1.010817
      py      :     0.928278
      dz2     :     0.014375  d :     0.073290
      dxz     :     0.010642
      dyz     :     0.010030
      dx2y2   :     0.011034
      dxy     :     0.027209
      f0      :     0.000803  f :     0.004400
      f+1     :     0.000629
      f-1     :     0.000344
      f+2     :     0.000598
      f-2     :     0.000373
      f+3     :     0.000801
      f-3     :     0.000853
  1 C s       :     3.165104  s :     3.165104
      pz      :     0.718134  p :     2.627801
      px      :     0.931454
      py      :     0.978214
      dz2     :     0.034797  d :     0.146689
      dxz     :     0.032684
      dyz     :     0.030022
      dx2y2   :     0.018664
      dxy     :     0.030521
      f0      :     0.002578  f :     0.011632
      f+1     :     0.002645
      f-1     :     0.001543
      f+2     :     0.001577
      f-2     :     0.001499
      f+3     :     0.000639
      f-3     :     0.001150
  2 O s       :     3.700477  s :     3.700477
      pz      :     1.418101  p :     4.586161
      px      :     1.647060
      py      :     1.521000
      dz2     :     0.007944  d :     0.035006
      dxz     :     0.005389
      dyz     :     0.009017
      dx2y2   :     0.006202
      dxy     :     0.006454
      f0      :     0.000317  f :     0.002302
      f+1     :     0.000528
      f-1     :     0.000264
      f+2     :     0.000365
      f-2     :     0.000369
      f+3     :     0.000265
      f-3     :     0.000195
  3 C s       :     3.089055  s :     3.089055
      pz      :     0.779894  p :     2.156317
      px      :     0.669253
      py      :     0.707169
      dz2     :     0.058870  d :     0.304036
[...]
 15 C s       :     2.709227  s :     2.709227
      pz      :     0.873492  p :     2.796245
      px      :     0.943489
      py      :     0.979264
      dz2     :     0.038826  d :     0.409316
      dxz     :     0.063849
      dyz     :     0.083844
      dx2y2   :     0.109165
      dxy     :     0.113633
      f0      :     0.003605  f :     0.039626
      f+1     :     0.001598
      f-1     :     0.006617
      f+2     :     0.004335
      f-2     :     0.006414
      f+3     :     0.010174
      f-3     :     0.006882
 16 C s       :     2.692793  s :     2.692793
      pz      :     0.935287  p :     2.869779
      px      :     0.958480
      py      :     0.976012
      dz2     :     0.066905  d :     0.409009
      dxz     :     0.053299
      dyz     :     0.065568
      dx2y2   :     0.089926
      dxy     :     0.133310
      f0      :     0.003089  f :     0.043449
      f+1     :     0.004804
      f-1     :     0.004901
      f+2     :     0.007409
      f-2     :     0.006712
      f+3     :     0.008854
      f-3     :     0.007681
 17 C s       :     2.697897  s :     2.697897
      pz      :     0.856624  p :     2.683408
      px      :     1.009184
      py      :     0.817600
      dz2     :     0.113960  d :     0.697467
      dxz     :     0.098529
      dyz     :     0.146365
      dx2y2   :     0.171121
      dxy     :     0.167491
      f0      :     0.007712  f :     0.095179
      f+1     :     0.006100
      f-1     :     0.017955
      f+2     :     0.014101
      f-2     :     0.014990
      f+3     :     0.020802
      f-3     :     0.013518
 18 O s       :     3.209075  s :     3.209075
      pz      :     1.578057  p :     4.354225
      px      :     1.427953
      py      :     1.348214
      dz2     :     0.010310  d :     0.068652
      dxz     :     0.005209
      dyz     :     0.017483
      dx2y2   :     0.020010
      dxy     :     0.015640
      f0      :     0.000279  f :     0.004974
      f+1     :     0.000216
      f-1     :     0.000767
      f+2     :     0.001329
      f-2     :     0.000656
      f+3     :     0.000771
      f-3     :     0.000955
 19 C s       :     2.699307  s :     2.699307
      pz      :     0.916823  p :     2.848699
      px      :     0.958584
      py      :     0.973292
      dz2     :     0.032632  d :     0.385666
      dxz     :     0.058006
      dyz     :     0.073397
      dx2y2   :     0.107947
      dxy     :     0.113684
      f0      :     0.003781  f :     0.039854
      f+1     :     0.001825
      f-1     :     0.005668
      f+2     :     0.004572
      f-2     :     0.006051
      f+3     :     0.010977
      f-3     :     0.006981
 20 H s       :     0.850570  s :     0.850570
      pz      :     0.039898  p :     0.150644
      px      :     0.055723
      py      :     0.055022
      dz2     :     0.002384  d :     0.027274
      dxz     :     0.005277
      dyz     :     0.004053
      dx2y2   :     0.008619
      dxy     :     0.006942
 21 H s       :     0.839779  s :     0.839779
      pz      :     0.069516  p :     0.153063
      px      :     0.045888
      py      :     0.037659
      dz2     :     0.009144  d :     0.027776
      dxz     :     0.008965
      dyz     :     0.007583
      dx2y2   :     0.000852
      dxy     :     0.001232
 22 H s       :     0.846200  s :     0.846200
      pz      :     0.050132  p :     0.155132
      px      :     0.060946
      py      :     0.044054
      dz2     :     0.006341  d :     0.028019
      dxz     :     0.006111
      dyz     :     0.002911
      dx2y2   :     0.006012
      dxy     :     0.006645
 23 H s       :     0.854578  s :     0.854578
      pz      :     0.049111  p :     0.148720
      px      :     0.049270
      py      :     0.050339
      dz2     :     0.006201  d :     0.027685
      dxz     :     0.006780
      dyz     :     0.005091
      dx2y2   :     0.004816
      dxy     :     0.004798
 24 H s       :     0.853624  s :     0.853624
      pz      :     0.025344  p :     0.144896
      px      :     0.065561
      py      :     0.053991
      dz2     :     0.002604  d :     0.027070
      dxz     :     0.005048
      dyz     :     0.001825
      dx2y2   :     0.009413
      dxy     :     0.008179
 25 H s       :     0.844012  s :     0.844012
      pz      :     0.044800  p :     0.150013
      px      :     0.057375
      py      :     0.047837
      dz2     :     0.004535  d :     0.027454
      dxz     :     0.005050
      dyz     :     0.003656
      dx2y2   :     0.007714
      dxy     :     0.006498
 26 H s       :     0.832309  s :     0.832309
      pz      :     0.076581  p :     0.156045
      px      :     0.041075
      py      :     0.038389
      dz2     :     0.009405  d :     0.028279
      dxz     :     0.009487
      dyz     :     0.008933
      dx2y2   :     0.000182
      dxy     :     0.000271
 27 H s       :     0.829313  s :     0.829313
      pz      :     0.041666  p :     0.150840
      px      :     0.068457
      py      :     0.040717
      dz2     :     0.003193  d :     0.027456
      dxz     :     0.007707
      dyz     :     0.001429
      dx2y2   :     0.007446
      dxy     :     0.007681
 28 H s       :     0.744269  s :     0.744269
      pz      :     0.057217  p :     0.252247
      px      :     0.099281
      py      :     0.095749
      dz2     :     0.007835  d :     0.060788
      dxz     :     0.006571
      dyz     :     0.012263
      dx2y2   :     0.019441
      dxy     :     0.014678
 29 H s       :     0.747137  s :     0.747137
      pz      :     0.080447  p :     0.251562
      px      :     0.082741
      py      :     0.088375
      dz2     :     0.011947  d :     0.060463
      dxz     :     0.011329
      dyz     :     0.014978
      dx2y2   :     0.011756
      dxy     :     0.010453
 30 H s       :     0.820272  s :     0.820272
      pz      :     0.031201  p :     0.149277
      px      :     0.071055
      py      :     0.047021
      dz2     :     0.003430  d :     0.028782
      dxz     :     0.005453
      dyz     :     0.002152
      dx2y2   :     0.009137
      dxy     :     0.008610
 31 H s       :     0.848492  s :     0.848492
      pz      :     0.050900  p :     0.167568
      px      :     0.038232
      py      :     0.078436
      dz2     :     0.004013  d :     0.027767
      dxz     :     0.001338
      dyz     :     0.008152
      dx2y2   :     0.006941
      dxy     :     0.007323
 32 H s       :     0.843506  s :     0.843506
      pz      :     0.053927  p :     0.154713
      px      :     0.062232
      py      :     0.038554
      dz2     :     0.005153  d :     0.026958
      dxz     :     0.006967
      dyz     :     0.003748
      dx2y2   :     0.005595
      dxy     :     0.005495
 33 H s       :     0.843435  s :     0.843435
      pz      :     0.044789  p :     0.159039
      px      :     0.064527
      py      :     0.049723
      dz2     :     0.002623  d :     0.027897
      dxz     :     0.006041
      dyz     :     0.002988
      dx2y2   :     0.008720
      dxy     :     0.007524
 34 H s       :     0.704211  s :     0.704211
      pz      :     0.104579  p :     0.353159
      px      :     0.162118
      py      :     0.086462
      dz2     :     0.010980  d :     0.099827
      dxz     :     0.028094
      dyz     :     0.007014
      dx2y2   :     0.029575
      dxy     :     0.024163
 35 H s       :     0.844796  s :     0.844796
      pz      :     0.054110  p :     0.158605
      px      :     0.064982
      py      :     0.039513
      dz2     :     0.005042  d :     0.028143
      dxz     :     0.006895
      dyz     :     0.003071
      dx2y2   :     0.006551
      dxy     :     0.006585


                      *****************************
                      * MAYER POPULATION ANALYSIS *
                      *****************************

  NA   - Mulliken gross atomic population
  ZA   - Total nuclear charge
  QA   - Mulliken gross atomic charge
  VA   - Mayer's total valence
  BVA  - Mayer's bonded valence
  FA   - Mayer's free valence

  ATOM       NA         ZA         QA         VA         BVA        FA
  0 C      6.2776     6.0000    -0.2776     3.8867     3.8867     0.0000
  1 C      5.9512     6.0000     0.0488     3.8719     3.8719     0.0000
  2 O      8.3239     8.0000    -0.3239     2.1023     2.1023    -0.0000
  3 C      5.5761     6.0000     0.4239     4.2293     4.2293    -0.0000
  4 O      8.4253     8.0000    -0.4253     2.0785     2.0785     0.0000
  5 C      6.1973     6.0000    -0.1973     3.6200     3.6200    -0.0000
  6 C      5.8581     6.0000     0.1419     3.8743     3.8743    -0.0000
  7 C      6.2629     6.0000    -0.2629     3.8857     3.8857    -0.0000
  8 N      7.1486     7.0000    -0.1486     3.2698     3.2698     0.0000
  9 C      5.7755     6.0000     0.2245     4.1339     4.1339     0.0000
 10 S     16.4573    16.0000    -0.4573     1.7132     1.7132    -0.0000
 11 N      7.1926     7.0000    -0.1926     3.2736     3.2736    -0.0000
 12 C      5.9531     6.0000     0.0469     3.9896     3.9896    -0.0000
 13 C      5.8833     6.0000     0.1167     3.6976     3.6976     0.0000
 14 C      6.2079     6.0000    -0.2079     3.8662     3.8662    -0.0000
 15 C      6.1422     6.0000    -0.1422     3.8285     3.8285     0.0000
 16 C      6.2617     6.0000    -0.2617     3.7966     3.7966     0.0000
 17 C      5.6808     6.0000     0.3192     3.8781     3.8781     0.0000
 18 O      8.3686     8.0000    -0.3686     2.1032     2.1032    -0.0000
 19 C      6.2564     6.0000    -0.2564     3.8735     3.8735     0.0000
 20 H      0.8998     1.0000     0.1002     0.9847     0.9847     0.0000
 21 H      0.8974     1.0000     0.1026     0.9796     0.9796    -0.0000
 22 H      0.9090     1.0000     0.0910     0.9809     0.9809    -0.0000
 23 H      0.9122     1.0000     0.0878     0.9791     0.9791    -0.0000
 24 H      0.9025     1.0000     0.0975     0.9817     0.9817     0.0000
 25 H      0.8944     1.0000     0.1056     0.9859     0.9859     0.0000
 26 H      0.8886     1.0000     0.1114     0.9857     0.9857    -0.0000
 27 H      0.8652     1.0000     0.1348     0.9805     0.9805     0.0000
 28 H      0.8031     1.0000     0.1969     1.0239     1.0239     0.0000
 29 H      0.7967     1.0000     0.2033     1.0127     1.0127    -0.0000
 30 H      0.8491     1.0000     0.1509     0.9926     0.9926    -0.0000
 31 H      0.8472     1.0000     0.1528     0.9882     0.9882    -0.0000
 32 H      0.8402     1.0000     0.1598     0.9783     0.9783     0.0000
 33 H      0.8766     1.0000     0.1234     0.9900     0.9900     0.0000
 34 H      0.7582     1.0000     0.2418     1.0090     1.0090    -0.0000
 35 H      0.8593     1.0000     0.1407     0.9940     0.9940    -0.0000

  Mayer bond orders larger than 0.100000
B(  0-C ,  1-C ) :   0.9648 B(  0-C , 20-H ) :   0.9761 B(  0-C , 21-H ) :   0.9770 
B(  0-C , 22-H ) :   0.9808 B(  1-C ,  2-O ) :   0.9075 B(  1-C , 23-H ) :   0.9798 
B(  1-C , 24-H ) :   0.9781 B(  2-O ,  3-C ) :   1.1931 B(  3-C ,  4-O ) :   1.9670 
B(  3-C ,  5-C ) :   1.0386 B(  5-C ,  6-C ) :   1.6374 B(  5-C , 12-C ) :   1.0066 
B(  6-C ,  7-C ) :   0.9626 B(  6-C ,  8-N ) :   1.1636 B(  7-C , 25-H ) :   0.9819 
B(  7-C , 26-H ) :   0.9739 B(  7-C , 27-H ) :   0.9603 B(  8-N ,  9-C ) :   1.1504 
B(  8-N , 28-H ) :   0.9484 B(  9-C , 10-S ) :   1.5629 B(  9-C , 11-N ) :   1.3587 
B( 11-N , 12-C ) :   0.9265 B( 11-N , 29-H ) :   0.9469 B( 12-C , 13-C ) :   0.9685 
B( 12-C , 30-H ) :   0.9936 B( 13-C , 14-C ) :   1.3442 B( 13-C , 19-C ) :   1.3618 
B( 14-C , 15-C ) :   1.4164 B( 14-C , 31-H ) :   0.9639 B( 15-C , 16-C ) :   1.3518 
B( 15-C , 32-H ) :   0.9710 B( 16-C , 17-C ) :   1.3394 B( 16-C , 33-H ) :   0.9887 
B( 17-C , 18-O ) :   1.0829 B( 17-C , 19-C ) :   1.3846 B( 18-O , 34-H ) :   0.9812 
B( 19-C , 35-H ) :   0.9691 

-------
TIMINGS
-------

Total SCF time: 0 days 1 hours 47 min 53 sec 

Total time                  ....    6473.084 sec
Sum of individual times     ....    6467.054 sec  ( 99.9%)

Fock matrix formation       ....    6453.375 sec  ( 99.7%)
Diagonalization             ....       1.438 sec  (  0.0%)
Density matrix formation    ....       0.171 sec  (  0.0%)
Population analysis         ....       0.207 sec  (  0.0%)
Initial guess               ....       6.243 sec  (  0.1%)
Orbital Transformation      ....       0.000 sec  (  0.0%)
Orbital Orthonormalization  ....       0.000 sec  (  0.0%)
DIIS solution               ....       2.155 sec  (  0.0%)
SOSCF solution              ....       2.041 sec  (  0.0%)

Maximum memory used throughout the entire SCF-calculation: 713.4 MB

------------------------------------------------------------------------------
                                ORCA  MP2 
------------------------------------------------------------------------------

Freezing NCore=48 chemical core electrons

-------------
RI-MP2 ENERGY
-------------
Dimension of the basis                    ...  828
Memory devoted to MP2                     ...  256 MB   
Data format for buffers                   ... DOUBLE
Compression type for matrix containers    ... UNCOMPRESSED
Overall scaling of the MP2 energy         ...   1.000e+00
Calculating two index integrals           ... done (    0.053 sec)
Cholesky decomposition of V**-1           ... done (    0.585 sec)

-----------------
RI-TRANSFORMATION (AUX index driven)
-----------------

Dimension of the orbital-basis         ... 828
Dimension of the aux-basis             ... 2141
Transformation of internal/external MOs...   24-  76 to   77- 827
Number Format for Storage              ... Double (8 Byte)
Integral mode                          ... Direct

First Phase: integral generation and transformation of MO indices
  Aux angular momentum 0               ... done (    5.211 sec)
  Aux angular momentum 1               ... done (    8.345 sec)
  Aux angular momentum 2               ... done (   11.066 sec)
  Aux angular momentum 3               ... done (    8.899 sec)
  Aux angular momentum 4               ... done (    2.976 sec)
Closing buffer VIA ( 0.63 GB; CompressionRatio= 1.00)
  Phase 1 completed in    36.800 sec
Second Phase: sorting and transformation of aux index

IA-Transformation
Memory available                       ... 158 MB 
Max. # MO pairs treated in a batch     ... 11    
# of internal orbitals                 ... 53
# batches for internal orbitals        ... 5
Closing buffer IAV ( 0.63 GB; CompressionRatio= 1.00)
(ia|v) transformation done in    25.562 sec

  Phase 2 completed in    25.570 sec
RI-Integral transformation completed in    62.464 sec
Opening buffers                              ... done

Starting loop over batches of integrals:

Operator 0  - window                       ... ( 24- 76)x( 77-827)
Operator 0  - Memory available             ...   256 MB
Operator 0  - Memory needed per MO         ...  12.3 MB
Operator 0  - Number of orbitals per batch ... 13
Operator 0  - Number of batches            ... 5

OPERATOR  0   PASS   0:  MOs    24 ...   36
  Reading integrals       ... ok
  Internal MO  26
  Internal MO  29
  Internal MO  32
  Internal MO  35
OPERATOR  0   PASS   1:  MOs    37 ...   49
  Reading integrals       ... ok
  Internal MO  38
  Internal MO  41
  Internal MO  44
  Internal MO  47
OPERATOR  0   PASS   2:  MOs    50 ...   62
  Reading integrals       ... ok
  Internal MO  50
  Internal MO  53
  Internal MO  56
  Internal MO  59
  Internal MO  62
OPERATOR  0   PASS   3:  MOs    63 ...   75
  Reading integrals       ... ok
  Internal MO  65
  Internal MO  68
  Internal MO  71
  Internal MO  74
OPERATOR  0   PASS   4:  MOs    76 ...   76
  Reading integrals       ... ok
Time spent in pair loops =    96.455 sec
Deleting buffer (Ka|jb)[aa] ...done

-----------------------------------------------
 RI-MP2 CORRELATION ENERGY:     -3.537017479 Eh
-----------------------------------------------


-------
TIMINGS
-------

Total time                :  159.659 sec
Integral trafo            :   62.484 sec ( 39.1%)
I/O of integrals          :    2.895 sec (  1.8%)
K(i,j) Operators          :   65.370 sec ( 40.9%)
T(i,j) pair energies      :    9.290 sec (  5.8%)
V-calculation             :    0.053 sec (  0.0%)
V**(-1/2)                 :    0.585 sec (  0.4%)
Gamma(ia|P)               :    0.000 sec (  0.0%)
Gamma-Trafo               :    0.000 sec (  0.0%)
D(virtual)                :    0.000 sec (  0.0%)
D(internal)               :    0.000 sec (  0.0%)
W(virtual)                :    0.000 sec (  0.0%)
W(internal)               :    0.000 sec (  0.0%)
L(virtual)                :    0.000 sec (  0.0%)
L(internal)               :    0.000 sec (  0.0%)
G(D)                      :    0.000 sec (  0.0%)
G(Z)                      :    0.000 sec (  0.0%)
Z-Vector Solution         :    0.000 sec (  0.0%)
3-Index Derivative        :    0.000 sec (  0.0%)
2-Index Derivative        :    0.000 sec (  0.0%)
Separable Gradient        :    0.000 sec (  0.0%)


---------------------------------------
MP2 TOTAL ENERGY:    -1274.320635050 Eh
---------------------------------------

Maximum memory used throughout the entire MP2-calculation: 302.6 MB

-------------------------   --------------------
FINAL SINGLE POINT ENERGY     -1274.320635050424
-------------------------   --------------------


                            ***************************************
                            *     ORCA property calculations      *
                            ***************************************


  WARNING: The energy has been calculated at the MP2 level but the densities
           used in the property calculations are still SCF densities
           MP2 response densities have not been calculated 
           use %mp2 Density relaxed end
           or  %mp2 Density unrelaxed end

                                    ---------------------
                                    Active property flags
                                    ---------------------
   (+) Dipole Moment


------------------------------------------------------------------------------
                       ORCA ELECTRIC PROPERTIES CALCULATION
------------------------------------------------------------------------------

Dipole Moment Calculation                       ... on
Quadrupole Moment Calculation                   ... off
Polarizability Calculation                      ... off
GBWName                                         ... qm_input.vacu.gbw
Electron density file                           ... qm_input.vacu.scfp
The origin for moment calculation is the CENTER OF MASS  = (17.427098, 18.809026  2.394482)

-------------
DIPOLE MOMENT
-------------
                                X             Y             Z
Electronic contribution:     -5.53732       9.46237     -15.72615
Nuclear contribution   :      5.74730     -10.57748      17.85570
                        -----------------------------------------
Total Dipole Moment    :      0.20998      -1.11511       2.12955
                        -----------------------------------------
Magnitude (a.u.)       :      2.41300
Magnitude (Debye)      :      6.13335



--------------------
Rotational spectrum 
--------------------
 
Rotational constants in cm-1:     0.012736     0.007197     0.005179 
Rotational constants in MHz :   381.812124   215.757809   155.267292 

 Dipole components along the rotational axes: 
x,y,z [a.u.] :    -2.014750     0.944025     0.933891 
x,y,z [Debye]:    -5.121088     2.399520     2.373761 

 

Timings for individual modules:

Sum of individual times         ...     6635.739 sec (= 110.596 min)
GTO integral calculation        ...        2.004 sec (=   0.033 min)   0.0 %
SCF iterations                  ...     6473.202 sec (= 107.887 min)  97.6 %
MP2 module                      ...      160.533 sec (=   2.676 min)   2.4 %
                             ****ORCA TERMINATED NORMALLY****
TOTAL RUN TIME: 0 days 1 hours 50 minutes 37 seconds 845 msec
