
                                        *****************
                                        * O   R   C   A *
                                        *****************

                                            #,                                       
                                            ###                                      
                                            ####                                     
                                            #####                                    
                                            ######                                   
                                           ########,                                 
                                     ,,################,,,,,                         
                               ,,#################################,,                 
                          ,,##########################################,,             
                       ,#########################################, ''#####,          
                    ,#############################################,,   '####,        
                  ,##################################################,,,,####,       
                ,###########''''           ''''###############################       
              ,#####''   ,,,,##########,,,,          '''####'''          '####       
            ,##' ,,,,###########################,,,                        '##       
           ' ,,###''''                  '''############,,,                           
         ,,##''                                '''############,,,,        ,,,,,,###''
      ,#''                                            '''#######################'''  
     '                                                          ''''####''''         
             ,#######,   #######,   ,#######,      ##                                
            ,#'     '#,  ##    ##  ,#'     '#,    #''#        ######   ,####,        
            ##       ##  ##   ,#'  ##            #'  '#       #        #'  '#        
            ##       ##  #######   ##           ,######,      #####,   #    #        
            '#,     ,#'  ##    ##  '#,     ,#' ,#      #,         ##   #,  ,#        
             '#######'   ##     ##  '#######'  #'      '#     #####' # '####'        



                  #######################################################
                  #                        -***-                        #
                  #          Department of theory and spectroscopy      #
                  #    Directorship and core code : Frank Neese         #
                  #        Max Planck Institute fuer Kohlenforschung    #
                  #                Kaiser Wilhelm Platz 1               #
                  #                 D-45470 Muelheim/Ruhr               #
                  #                      Germany                        #
                  #                                                     #
                  #                  All rights reserved                #
                  #                        -***-                        #
                  #######################################################


                         Program Version 5.0.0 -  RELEASE  -
                                (SVN: $Rev: 19529$)
                ($Date: 2021-06-28 11:36:33 +0200 (Mo, 28 Jun 2021) $)


 With contributions from (in alphabetic order):
   Daniel Aravena         : Magnetic Suceptibility
   Michael Atanasov       : Ab Initio Ligand Field Theory (pilot matlab implementation)
   Alexander A. Auer      : GIAO ZORA, VPT2 properties, NMR spectrum
   Ute Becker             : Parallelization
   Giovanni Bistoni       : ED, misc. LED, open-shell LED, HFLD
   Martin Brehm           : Molecular dynamics
   Dmytro Bykov           : SCF Hessian
   Vijay G. Chilkuri      : MRCI spin determinant printing, contributions to CSF-ICE
   Dipayan Datta          : RHF DLPNO-CCSD density
   Achintya Kumar Dutta   : EOM-CC, STEOM-CC
   Dmitry Ganyushin       : Spin-Orbit,Spin-Spin,Magnetic field MRCI
   Miquel Garcia          : C-PCM Hessian, Gaussian charge scheme
   Yang Guo               : DLPNO-NEVPT2, F12-NEVPT2, CIM, IAO-localization
   Andreas Hansen         : Spin unrestricted coupled pair/coupled cluster methods
   Benjamin Helmich-Paris : MC-RPA, TRAH-SCF, COSX integrals
   Lee Huntington         : MR-EOM, pCC
   Robert Izsak           : Overlap fitted RIJCOSX, COSX-SCS-MP3, EOM
   Marcus Kettner         : VPT2
   Christian Kollmar      : KDIIS, OOCD, Brueckner-CCSD(T), CCSD density, CASPT2, CASPT2-K
   Simone Kossmann        : Meta GGA functionals, TD-DFT gradient, OOMP2, MP2 Hessian
   Martin Krupicka        : Initial AUTO-CI
   Lucas Lang             : DCDCAS
   Marvin Lechner         : AUTO-CI (C++ implementation), FIC-MRCC
   Dagmar Lenk            : GEPOL surface, SMD
   Dimitrios Liakos       : Extrapolation schemes; Compound Job, initial MDCI parallelization
   Dimitrios Manganas     : Further ROCIS development; embedding schemes
   Dimitrios Pantazis     : SARC Basis sets
   Anastasios Papadopoulos: AUTO-CI, single reference methods and gradients
   Taras Petrenko         : DFT Hessian,TD-DFT gradient, ASA, ECA, R-Raman, ABS, FL, XAS/XES, NRVS
   Peter Pinski           : DLPNO-MP2, DLPNO-MP2 Gradient
   Christoph Reimann      : Effective Core Potentials
   Marius Retegan         : Local ZFS, SOC
   Christoph Riplinger    : Optimizer, TS searches, QM/MM, DLPNO-CCSD(T), (RO)-DLPNO pert. Triples
   Tobias Risthaus        : Range-separated hybrids, TD-DFT gradient, RPA, STAB
   Michael Roemelt        : Original ROCIS implementation
   Masaaki Saitow         : Open-shell DLPNO-CCSD energy and density
   Barbara Sandhoefer     : DKH picture change effects
   Avijit Sen             : IP-ROCIS
   Kantharuban Sivalingam : CASSCF convergence, NEVPT2, FIC-MRCI
   Bernardo de Souza      : ESD, SOC TD-DFT
   Georgi Stoychev        : AutoAux, RI-MP2 NMR
   Willem Van den Heuvel  : Paramagnetic NMR
   Boris Wezisla          : Elementary symmetry handling
   Frank Wennmohs         : Technical directorship


 We gratefully acknowledge several colleagues who have allowed us to
 interface, adapt or use parts of their codes:
   Stefan Grimme, W. Hujo, H. Kruse, P. Pracht,  : VdW corrections, initial TS optimization,
                  C. Bannwarth, S. Ehlert          DFT functionals, gCP, sTDA/sTD-DF
   Ed Valeev, F. Pavosevic, A. Kumar             : LibInt (2-el integral package), F12 methods
   Garnet Chan, S. Sharma, J. Yang, R. Olivares  : DMRG
   Ulf Ekstrom                                   : XCFun DFT Library
   Mihaly Kallay                                 : mrcc  (arbitrary order and MRCC methods)
   Jiri Pittner, Ondrej Demel                    : Mk-CCSD
   Frank Weinhold                                : gennbo (NPA and NBO analysis)
   Christopher J. Cramer and Donald G. Truhlar   : smd solvation model
   Lars Goerigk                                  : TD-DFT with DH, B97 family of functionals
   V. Asgeirsson, H. Jonsson                     : NEB implementation
   FAccTs GmbH                                   : IRC, NEB, NEB-TS, DLPNO-Multilevel, CI-OPT
                                                   MM, QMMM, 2- and 3-layer-ONIOM, Crystal-QMMM,
                                                   LR-CPCM, SF, NACMEs, symmetry and pop. for TD-DFT,
                                                   nearIR, NL-DFT gradient (VV10), updates on ESD,
                                                   ML-optimized integration grids
   S Lehtola, MJT Oliveira, MAL Marques          : LibXC Library
   Liviu Ungur et al                             : ANISO software


 Your calculation uses the libint2 library for the computation of 2-el integrals
 For citations please refer to: http://libint.valeyev.net

 Your ORCA version has been built with support for libXC version: 5.1.0
 For citations please refer to: https://tddft.org/programs/libxc/

 This ORCA versions uses:
   CBLAS   interface :  Fast vector & matrix operations
   LAPACKE interface :  Fast linear algebra routines
   SCALAPACK package :  Parallel linear algebra routines
   Shared memory     :  Shared parallel matrices
   BLAS/LAPACK       :  OpenBLAS 0.3.15  USE64BITINT DYNAMIC_ARCH NO_AFFINITY SkylakeX SINGLE_THREADED
        Core in use  :  SkylakeX
   Copyright (c) 2011-2014, The OpenBLAS Project


================================================================================

----- Orbital basis set information -----
Your calculation utilizes the basis: cc-pVTZ 
       H, B-Ne : Obtained from the ccRepo (grant-hill.group.shef.ac.uk/ccrepo) Feb. 2017
                 T. H. Dunning, Jr., J. Chem. Phys. 90, 1007 (1989)
            He : Obtained from the ccRepo (grant-hill.group.shef.ac.uk/ccrepo) Feb. 2017
                 D. E. Woon, T. H. Dunning, Jr., J. Chem. Phys. 100, 2975 (1994)
  Li-Be, Na-Mg : Obtained from the ccRepo (grant-hill.group.shef.ac.uk/ccrepo) Feb. 2017
                 B. P. Prascher, D. E. Woon, K. A. Peterson, T. H. Dunning, Jr., A. K. Wilson, Theor. Chem. Acc. 128, 69 (2011)
         Al-Ar : Obtained from the ccRepo (grant-hill.group.shef.ac.uk/ccrepo) Feb. 2017
                 D. E. Woon, T. H. Dunning, Jr., J. Chem. Phys. 98, 1358 (1993)
            Ca : Obtained from the Peterson Research Group Website (tyr0.chem.wsu.edu/~kipeters) Feb. 2017
                 J. Koput, K. A. Peterson, J. Phys. Chem. 106, 9595 (2002)
         Sc-Zn : Obtained from the ccRepo (grant-hill.group.shef.ac.uk/ccrepo) Feb. 2017
                 N. B. Balabanov, K. A. Peterson, J. Chem. Phys. 123, 064107 (2005)
                 N. B. Balabanov, K. A. Peterson, J. Chem. Phys. 125, 074110 (2006)
         Ga-Kr : Obtained from the ccRepo (grant-hill.group.shef.ac.uk/ccrepo) Feb. 2017
                 A. K. Wilson, D. E. Woon, K. A. Peterson, T. H. Dunning, Jr., J. Chem. Phys. 110, 7667 (1999)
             Y : Obtained from the ccRepo (grant-hill.group.shef.ac.uk/ccrepo) Feb. 2017
                 K. A. Peterson, D. Figgen, M. Dolg, H. Stoll, J. Chem. Phys. 126, 124101 (2007)
        Ag, Au : Obtained from the Peterson Research Group Website (tyr0.chem.wsu.edu/~kipeters) Feb. 2017
                 K. A. Peterson, C. Puzzarini, Theor. Chem. Acc. 114, 283 (2005)

----- AuxC basis set information -----
Your calculation utilizes the auxiliary basis: cc-pVTZ/C 
  Obtained from the EMSL Basis Set Exchange (bse.pnl.gov) Feb. 2017
  H-He, B-F, Al-Ar, Ga-Kr : F. Weigend, A. Kohn, C. Hattig, J. Chem. Phys. 116, 3175 (2002)
             Li-Be, Na-Mg : C. Haettig, Phys. Chem. Chem. Phys. 7, 59 (2005)
                       Ne : C. Haettig, Phys. Chem. Chem. Phys. 7, 59 (2005)
                            F. Weigend, A. Kohn, C. Hattig, J. Chem. Phys. 116, 3175 (2002)
                    Sc-Zn : J. G. Hill, J. A. Platts, J. Chem. Phys. 128, 044104 (2008)

================================================================================
                                        WARNINGS
                       Please study these warnings very carefully!
================================================================================


WARNING: No MP2 level density has been requested!
         To caclulate MP2 level properties use
         %mp2 Density relaxed end
         or
         %mp2 Density unrelaxed end

WARNING: Post HF methods need fully converged wavefunctions
  ===> : Setting SCFConvForced true
         You can overwrite this default with %scf ConvForced false 


INFO   : the flag for use of the SHARK integral package has been found!

================================================================================
                                       INPUT FILE
================================================================================
NAME = qm_input.vacu
|  1> ! RI-MP2 cc-pVTZ cc-pVTZ/c TightSCF KeepDens NoKeepInts
|  2> 
|  3> *xyz  0  1
|  4>     C     5.4801521    7.5816505   -6.9554568
|  5>     C     6.7505462    7.6686612   -7.8478409
|  6>     O     6.7763726    8.9916388   -8.4860687
|  7>     C     6.4302429    9.1972615   -9.7231322
|  8>     O     5.9487432    8.2960278  -10.3704871
|  9>     C     6.7441832   10.5271375  -10.2749130
| 10>     C     6.8764608   11.6148683   -9.5498475
| 11>     C     6.8246299   11.8217103   -8.0009478
| 12>     N     7.2715017   12.8255186  -10.1349761
| 13>     C     7.3577377   12.9807073  -11.4911903
| 14>     S     7.7718006   14.3931057  -12.2153724
| 15>     N     7.2214202   11.8762129  -12.2509035
| 16>     C     6.9285418   10.5290131  -11.7904385
| 17>     C     7.9189496    9.5126061  -12.3297991
| 18>     C     9.3344129    9.6121056  -12.1535114
| 19>     C    10.2362790    8.6866897  -12.6402658
| 20>     C     9.7078475    7.5889667  -13.3778524
| 21>     C     8.3024766    7.3636930  -13.4444684
| 22>     O     7.7594877    6.2039442  -14.0285588
| 23>     C     7.4495670    8.3165147  -12.9394061
| 24>     H     4.6760418    7.0989854   -7.5243510
| 25>     H     5.1686034    8.6253652   -6.8258865
| 26>     H     5.6597100    7.0142231   -6.0340585
| 27>     H     7.6327173    7.6572802   -7.1960467
| 28>     H     6.7589215    6.8159897   -8.5378197
| 29>     H     7.4825940   11.0847397   -7.5243430
| 30>     H     5.8016541   11.5228292   -7.7413697
| 31>     H     6.8839594   12.8411767   -7.6005008
| 32>     H     7.4634508   13.5571107   -9.4612583
| 33>     H     7.3299391   12.1338248  -13.2244671
| 34>     H     5.9560952   10.2631615  -12.2227116
| 35>     H     9.6690334   10.5505295  -11.7213244
| 36>     H    11.3063176    8.7874163  -12.4844854
| 37>     H    10.4058062    6.9041689  -13.8504093
| 38>     H     6.7882984    6.1454339  -14.0186105
| 39>     H     6.3950425    8.2732063  -13.1953329
| 40> *
| 41> 
| 42>                          ****END OF INPUT****
================================================================================

                       ****************************
                       * Single Point Calculation *
                       ****************************

---------------------------------
CARTESIAN COORDINATES (ANGSTROEM)
---------------------------------
  C      5.480152    7.581650   -6.955457
  C      6.750546    7.668661   -7.847841
  O      6.776373    8.991639   -8.486069
  C      6.430243    9.197261   -9.723132
  O      5.948743    8.296028  -10.370487
  C      6.744183   10.527138  -10.274913
  C      6.876461   11.614868   -9.549848
  C      6.824630   11.821710   -8.000948
  N      7.271502   12.825519  -10.134976
  C      7.357738   12.980707  -11.491190
  S      7.771801   14.393106  -12.215372
  N      7.221420   11.876213  -12.250903
  C      6.928542   10.529013  -11.790439
  C      7.918950    9.512606  -12.329799
  C      9.334413    9.612106  -12.153511
  C     10.236279    8.686690  -12.640266
  C      9.707847    7.588967  -13.377852
  C      8.302477    7.363693  -13.444468
  O      7.759488    6.203944  -14.028559
  C      7.449567    8.316515  -12.939406
  H      4.676042    7.098985   -7.524351
  H      5.168603    8.625365   -6.825886
  H      5.659710    7.014223   -6.034059
  H      7.632717    7.657280   -7.196047
  H      6.758921    6.815990   -8.537820
  H      7.482594   11.084740   -7.524343
  H      5.801654   11.522829   -7.741370
  H      6.883959   12.841177   -7.600501
  H      7.463451   13.557111   -9.461258
  H      7.329939   12.133825  -13.224467
  H      5.956095   10.263162  -12.222712
  H      9.669033   10.550529  -11.721324
  H     11.306318    8.787416  -12.484485
  H     10.405806    6.904169  -13.850409
  H      6.788298    6.145434  -14.018610
  H      6.395042    8.273206  -13.195333

----------------------------
CARTESIAN COORDINATES (A.U.)
----------------------------
  NO LB      ZA    FRAG     MASS         X           Y           Z
   0 C     6.0000    0    12.011   10.355987   14.327243  -13.143908
   1 C     6.0000    0    12.011   12.756684   14.491669  -14.830270
   2 O     8.0000    0    15.999   12.805488   16.991735  -16.036346
   3 C     6.0000    0    12.011   12.151398   17.380305  -18.374057
   4 O     8.0000    0    15.999   11.241495   15.677221  -19.597380
   5 C     6.0000    0    12.011   12.744659   19.893407  -19.416772
   6 C     6.0000    0    12.011   12.994628   21.948920  -18.046596
   7 C     6.0000    0    12.011   12.896681   22.339795  -15.119600
   8 N     7.0000    0    14.007   13.741147   24.236718  -19.152329
   9 C     6.0000    0    12.011   13.904109   24.529982  -21.715203
  10 S    16.0000    0    32.060   14.686575   27.199028  -23.083708
  11 N     7.0000    0    14.007   13.646506   22.442790  -23.150853
  12 C     6.0000    0    12.011   13.093047   19.896951  -22.280700
  13 C     6.0000    0    12.011   14.964646   17.976220  -23.299944
  14 C     6.0000    0    12.011   17.639484   18.164247  -22.966808
  15 C     6.0000    0    12.011   19.343764   16.415465  -23.886641
  16 C     6.0000    0    12.011   18.345173   14.341069  -25.280477
  17 C     6.0000    0    12.011   15.689407   13.915363  -25.406363
  18 O     8.0000    0    15.999   14.663307   11.723755  -26.510134
  19 C     6.0000    0    12.011   14.077641   15.715935  -24.451934
  20 H     1.0000    0     1.008    8.836438   13.415138  -14.218963
  21 H     1.0000    0     1.008    9.767245   16.299578  -12.899056
  22 H     1.0000    0     1.008   10.695302   13.254961  -11.402718
  23 H     1.0000    0     1.008   14.423745   14.470163  -13.598558
  24 H     1.0000    0     1.008   12.772511   12.880354  -16.134141
  25 H     1.0000    0     1.008   14.140053   20.947122  -14.218948
  26 H     1.0000    0     1.008   10.963537   21.774991  -14.629069
  27 H     1.0000    0     1.008   13.008798   24.266307  -14.362865
  28 H     1.0000    0     1.008   14.103878   25.619226  -17.879187
  29 H     1.0000    0     1.008   13.851577   22.929606  -24.990621
  30 H     1.0000    0     1.008   11.255389   19.394565  -23.097578
  31 H     1.0000    0     1.008   18.271825   19.937611  -22.150093
  32 H     1.0000    0     1.008   21.365844   16.605810  -23.592258
  33 H     1.0000    0     1.008   19.664124   13.046988  -26.173480
  34 H     1.0000    0     1.008   12.828025   11.613187  -26.491335
  35 H     1.0000    0     1.008   12.084879   15.634094  -24.935565

--------------------------------
INTERNAL COORDINATES (ANGSTROEM)
--------------------------------
 C      0   0   0     0.000000000000     0.00000000     0.00000000
 C      1   0   0     1.554934536616     0.00000000     0.00000000
 O      2   1   0     1.469105665952   108.30513734     0.00000000
 C      3   2   1     1.300927579464   123.41955221   258.03976783
 O      4   3   2     1.209600144539   119.80533086     6.75971641
 C      4   3   2     1.473631819210   116.23234183   190.71178971
 C      6   4   3     1.313916144973   124.18838003   334.38116544
 C      7   6   4     1.563508981688   130.75769008     3.42085484
 N      7   6   4     1.401465996769   120.87174661   175.31992050
 C      9   7   6     1.367785486319   121.98945879     9.14644599
 S     10   9   7     1.640352717997   123.45982084   178.08381162
 N     10   9   7     1.347462239431   117.36523527   351.37322713
 C     12  10   9     1.453531243053   126.97713934     3.07026977
 C     13  12  10     1.518189927770   112.11820950   231.90597593
 C     14  13  12     1.429864978702   123.73843762    55.70976603
 C     15  14  13     1.380828336985   123.81125032   179.81664880
 C     16  15  14     1.424173313688   117.18029938     1.12744962
 C     17  16  15     1.424869572254   120.79989201   351.46889952
 O     18  17  16     1.407485637581   122.01776066   187.71598388
 C     18  17  16     1.374922508596   119.01939823     8.62947577
 H      1   2   3     1.096904546493   109.02018188    95.20797777
 H      1   2   3     1.096900829660   104.27635940   342.60708323
 H      1   2   3     1.096900050582   112.16575268   216.21221504
 H      2   1   3     1.096900659125   108.38903131   113.02875939
 H      2   1   3     1.096899984963   108.88929377   233.97532553
 H      8   7   6     1.096902255233   108.76410196    49.47300993
 H      8   7   6     1.096900264073   103.25615361   297.33638332
 H      8   7   6     1.096899963583   118.86985978   184.70442923
 H      9   7   6     1.012900356309   113.55617090   188.07313958
 H     12  10   9     1.012899958497   108.82051762   181.41353006
 H     13  12  10     1.096899948062   106.16631617   116.55908002
 H     15  14  13     1.085999953076   114.46981614   351.68945150
 H     16  15  14     1.085999993767   122.06015082   180.37491669
 H     17  16  15     1.086003866258   118.22405800   174.14634919
 H     19  18  17     0.973001069020   115.49133468   179.68721440
 H     20  18  17     1.086000030188   119.21910193   165.31143052

---------------------------
INTERNAL COORDINATES (A.U.)
---------------------------
 C      0   0   0     0.000000000000     0.00000000     0.00000000
 C      1   0   0     2.938400430381     0.00000000     0.00000000
 O      2   1   0     2.776207370441   108.30513734     0.00000000
 C      3   2   1     2.458396845252   123.41955221   258.03976783
 O      4   3   2     2.285813004731   119.80533086     6.75971641
 C      4   3   2     2.784760560539   116.23234183   190.71178971
 C      6   4   3     2.482941676936   124.18838003   334.38116544
 C      7   6   4     2.954603783316   130.75769008     3.42085484
 N      7   6   4     2.648386919897   120.87174661   175.31992050
 C      9   7   6     2.584739979095   121.98945879     9.14644599
 S     10   9   7     3.099817400047   123.45982084   178.08381162
 N     10   9   7     2.546334608324   117.36523527   351.37322713
 C     12  10   9     2.746775976469   126.97713934     3.07026977
 C     13  12  10     2.868963182763   112.11820950   231.90597593
 C     14  13  12     2.702053218232   123.73843762    55.70976603
 C     15  14  13     2.609387394860   123.81125032   179.81664880
 C     16  15  14     2.691297530109   117.18029938     1.12744962
 C     17  16  15     2.692613268117   120.79989201   351.46889952
 O     18  17  16     2.659762392456   122.01776066   187.71598388
 C     18  17  16     2.598226996611   119.01939823     8.62947577
 H      1   2   3     2.072849187925   109.02018188    95.20797777
 H      1   2   3     2.072842164129   104.27635940   342.60708323
 H      1   2   3     2.072840691884   112.16575268   216.21221504
 H      2   1   3     2.072841841865   108.38903131   113.02875939
 H      2   1   3     2.072840567882   108.88929377   233.97532553
 H      8   7   6     2.072844858072   108.76410196    49.47300993
 H      8   7   6     2.072841095323   103.25615361   297.33638332
 H      8   7   6     2.072840527480   118.86985978   184.70442923
 H      9   7   6     1.914104274374   113.55617090   188.07313958
 H     12  10   9     1.914103522620   108.82051762   181.41353006
 H     13  12  10     2.072840498149   106.16631617   116.55908002
 H     15  14  13     2.052242492764   114.46981614   351.68945150
 H     16  15  14     2.052242569660   122.06015082   180.37491669
 H     17  16  15     2.052249887608   118.22405800   174.14634919
 H     19  18  17     1.838705548460   115.49133468   179.68721440
 H     20  18  17     2.052242638486   119.21910193   165.31143052

---------------------
BASIS SET INFORMATION
---------------------
There are 5 groups of distinct atoms

 Group   1 Type C   : 18s5p2d1f contracted to 4s3p2d1f pattern {8811/311/11/1}
 Group   2 Type O   : 18s5p2d1f contracted to 4s3p2d1f pattern {8811/311/11/1}
 Group   3 Type N   : 18s5p2d1f contracted to 4s3p2d1f pattern {8811/311/11/1}
 Group   4 Type S   : 41s16p2d1f contracted to 5s4p2d1f pattern {13131311/7711/11/1}
 Group   5 Type H   : 5s2p1d contracted to 3s2p1d pattern {311/11/1}

Atom   0C    basis set group =>   1
Atom   1C    basis set group =>   1
Atom   2O    basis set group =>   2
Atom   3C    basis set group =>   1
Atom   4O    basis set group =>   2
Atom   5C    basis set group =>   1
Atom   6C    basis set group =>   1
Atom   7C    basis set group =>   1
Atom   8N    basis set group =>   3
Atom   9C    basis set group =>   1
Atom  10S    basis set group =>   4
Atom  11N    basis set group =>   3
Atom  12C    basis set group =>   1
Atom  13C    basis set group =>   1
Atom  14C    basis set group =>   1
Atom  15C    basis set group =>   1
Atom  16C    basis set group =>   1
Atom  17C    basis set group =>   1
Atom  18O    basis set group =>   2
Atom  19C    basis set group =>   1
Atom  20H    basis set group =>   5
Atom  21H    basis set group =>   5
Atom  22H    basis set group =>   5
Atom  23H    basis set group =>   5
Atom  24H    basis set group =>   5
Atom  25H    basis set group =>   5
Atom  26H    basis set group =>   5
Atom  27H    basis set group =>   5
Atom  28H    basis set group =>   5
Atom  29H    basis set group =>   5
Atom  30H    basis set group =>   5
Atom  31H    basis set group =>   5
Atom  32H    basis set group =>   5
Atom  33H    basis set group =>   5
Atom  34H    basis set group =>   5
Atom  35H    basis set group =>   5
---------------------------------
AUXILIARY/C BASIS SET INFORMATION
---------------------------------
There are 5 groups of distinct atoms

 Group   1 Type C   : 8s6p5d3f1g contracted to 8s6p5d3f1g pattern {11111111/111111/11111/111/1}
 Group   2 Type O   : 8s6p5d3f1g contracted to 8s6p5d3f1g pattern {11111111/111111/11111/111/1}
 Group   3 Type N   : 8s6p5d3f1g contracted to 8s6p5d3f1g pattern {11111111/111111/11111/111/1}
 Group   4 Type S   : 10s8p7d5f2g contracted to 10s8p7d5f2g pattern {1111111111/11111111/1111111/11111/11}
 Group   5 Type H   : 4s3p2d1f contracted to 4s3p2d1f pattern {1111/111/11/1}

Atom   0C    basis set group =>   1
Atom   1C    basis set group =>   1
Atom   2O    basis set group =>   2
Atom   3C    basis set group =>   1
Atom   4O    basis set group =>   2
Atom   5C    basis set group =>   1
Atom   6C    basis set group =>   1
Atom   7C    basis set group =>   1
Atom   8N    basis set group =>   3
Atom   9C    basis set group =>   1
Atom  10S    basis set group =>   4
Atom  11N    basis set group =>   3
Atom  12C    basis set group =>   1
Atom  13C    basis set group =>   1
Atom  14C    basis set group =>   1
Atom  15C    basis set group =>   1
Atom  16C    basis set group =>   1
Atom  17C    basis set group =>   1
Atom  18O    basis set group =>   2
Atom  19C    basis set group =>   1
Atom  20H    basis set group =>   5
Atom  21H    basis set group =>   5
Atom  22H    basis set group =>   5
Atom  23H    basis set group =>   5
Atom  24H    basis set group =>   5
Atom  25H    basis set group =>   5
Atom  26H    basis set group =>   5
Atom  27H    basis set group =>   5
Atom  28H    basis set group =>   5
Atom  29H    basis set group =>   5
Atom  30H    basis set group =>   5
Atom  31H    basis set group =>   5
Atom  32H    basis set group =>   5
Atom  33H    basis set group =>   5
Atom  34H    basis set group =>   5
Atom  35H    basis set group =>   5
------------------------------------------------------------------------------
                           ORCA GTO INTEGRAL CALCULATION
------------------------------------------------------------------------------
------------------------------------------------------------------------------
                   ___                                                        
                  /   \      - P O W E R E D   B Y -                         
                 /     \                                                     
                 |  |  |   _    _      __       _____    __    __             
                 |  |  |  | |  | |    /  \     |  _  \  |  |  /  |          
                  \  \/   | |  | |   /    \    | | | |  |  | /  /          
                 / \  \   | |__| |  /  /\  \   | |_| |  |  |/  /          
                |  |  |   |  __  | /  /__\  \  |    /   |      \           
                |  |  |   | |  | | |   __   |  |    \   |  |\   \          
                \     /   | |  | | |  |  |  |  | |\  \  |  | \   \       
                 \___/    |_|  |_| |__|  |__|  |_| \__\ |__|  \__/        
                                                                              
                      - O R C A' S   B I G   F R I E N D -                    
                                      &                                       
                       - I N T E G R A L  F E E D E R -                       
                                                                              
 v1 FN, 2020, v2 2021                                                         
------------------------------------------------------------------------------


Reading SHARK input file qm_input.vacu.SHARKINP.tmp ... ok
----------------------
SHARK INTEGRAL PACKAGE
----------------------

Number of atoms                             ...     36
Number of basis functions                   ...    828
Number of shells                            ...    298
Maximum angular momentum                    ...      3
Integral batch strategy                     ... SHARK/LIBINT Hybrid
RI-J (if used) integral strategy            ... SPLIT-RIJ (Revised 2003 algorithm where possible)
Printlevel                                  ...      1
Contraction scheme used                     ... SEGMENTED contraction
Coulomb Range Separation                    ... NOT USED
Exchange Range Separation                   ... NOT USED
Finite Nucleus Model                        ... NOT USED
Auxiliary Coulomb fitting basis             ... NOT available
Auxiliary J/K fitting basis                 ... NOT available
Auxiliary Correlation fitting basis         ... AVAILABLE
   # of basis functions in Aux-C            ...   2141
   # of shells in Aux-C                     ...    629
   Maximum angular momentum in Aux-C        ...      4
Auxiliary 'external' fitting basis          ... NOT available
Integral threshold                          ...     2.500000e-11
Primitive cut-off                           ...     2.500000e-12
Primitive pair pre-selection threshold      ...     2.500000e-12

Calculating pre-screening integrals         ... done (  1.3 sec) Dimension = 298
Organizing shell pair data                  ... done (  0.9 sec)
Shell pair information
Total number of shell pairs                 ...     44551
Shell pairs after pre-screening             ...     32126
Total number of primitive shell pairs       ...    234348
Primitive shell pairs kept                  ...     92807
          la=0 lb=0:   6445 shell pairs
          la=1 lb=0:   8953 shell pairs
          la=1 lb=1:   3161 shell pairs
          la=2 lb=0:   5113 shell pairs
          la=2 lb=1:   3501 shell pairs
          la=2 lb=2:    990 shell pairs
          la=3 lb=0:   1855 shell pairs
          la=3 lb=1:   1262 shell pairs
          la=3 lb=2:    706 shell pairs
          la=3 lb=3:    140 shell pairs

Calculating one electron integrals          ... done (  0.7 sec)
Calculating RI/C V-Matrix + Cholesky decomp.... done (  1.2 sec)
Calculating Nuclear repulsion               ... done (  0.1 sec) ENN=   1682.894914470193 Eh

SHARK setup successfully completed in   5.2 seconds

Maximum memory used throughout the entire GTOINT-calculation: 475.1 MB
-------------------------------------------------------------------------------
                                 ORCA SCF
-------------------------------------------------------------------------------

------------
SCF SETTINGS
------------
Hamiltonian:
 Ab initio Hamiltonian  Method          .... Hartree-Fock(GTOs)


General Settings:
 Integral files         IntName         .... qm_input.vacu
 Hartree-Fock type      HFTyp           .... RHF
 Total Charge           Charge          ....    0
 Multiplicity           Mult            ....    1
 Number of Electrons    NEL             ....  154
 Basis Dimension        Dim             ....  828
 Nuclear Repulsion      ENuc            ....   1682.8949144702 Eh

Convergence Acceleration:
 DIIS                   CNVDIIS         .... on
   Start iteration      DIISMaxIt       ....    12
   Startup error        DIISStart       ....  0.200000
   # of expansion vecs  DIISMaxEq       ....     5
   Bias factor          DIISBfac        ....   1.050
   Max. coefficient     DIISMaxC        ....  10.000
 Trust-Rad. Augm. Hess. CNVTRAH         .... auto
   Auto Start mean grad. ratio tolernc. ....  1.125000
   Auto Start start iteration           ....    20
   Auto Start num. interpolation iter.  ....    10
   Max. Number of Micro iterations      ....    16
   Max. Number of Macro iterations      .... Maxiter - #DIIS iter
   Number of Davidson start vectors     ....     2
   Converg. threshold I  (grad. norm)   ....   1.000e-05
   Converg. threshold II (energy diff.) ....   1.000e-08
   Grad. Scal. Fac. for Micro threshold ....   0.100
   Minimum threshold for Micro iter.    ....   0.010
   NR start threshold (gradient norm)   ....   0.001
   Initial trust radius                 ....   0.400
   Minimum AH scaling param. (alpha)    ....   1.000
   Maximum AH scaling param. (alpha)    .... 1000.000
   Orbital update algorithm             .... Taylor
   White noise on init. David. guess    .... on
   Maximum white noise                  ....   0.010
   Quad. conv. algorithm                .... NR
 SOSCF                  CNVSOSCF        .... on
   Start iteration      SOSCFMaxIt      ....   150
   Startup grad/error   SOSCFStart      ....  0.003300
 Level Shifting         CNVShift        .... on
   Level shift para.    LevelShift      ....    0.2500
   Turn off err/grad.   ShiftErr        ....    0.0010
 Zerner damping         CNVZerner       .... off
 Static damping         CNVDamp         .... on
   Fraction old density DampFac         ....    0.7000
   Max. Damping (<1)    DampMax         ....    0.9800
   Min. Damping (>=0)   DampMin         ....    0.0000
   Turn off err/grad.   DampErr         ....    0.1000
 Fernandez-Rico         CNVRico         .... off

SCF Procedure:
 Maximum # iterations   MaxIter         ....   125
 SCF integral mode      SCFMode         .... Direct
   Integral package                     .... SHARK and LIBINT hybrid scheme
 Reset frequency        DirectResetFreq ....    20
 Integral Threshold     Thresh          ....  2.500e-11 Eh
 Primitive CutOff       TCut            ....  2.500e-12 Eh

Convergence Tolerance:
 Convergence Check Mode ConvCheckMode   .... Total+1el-Energy
 Convergence forced     ConvForced      .... 1
 Energy Change          TolE            ....  1.000e-08 Eh
 1-El. energy change                    ....  1.000e-05 Eh
 Orbital Gradient       TolG            ....  1.000e-05
 Orbital Rotation angle TolX            ....  1.000e-05
 DIIS Error             TolErr          ....  5.000e-07


Diagonalization of the overlap matrix:
Smallest eigenvalue                        ... 3.861e-05
Time for diagonalization                   ...    0.280 sec
Threshold for overlap eigenvalues          ... 1.000e-08
Number of eigenvalues below threshold      ... 0
Time for construction of square roots      ...    0.297 sec
Total time needed                          ...    0.580 sec

Time for model grid setup =    2.954 sec

------------------------------
INITIAL GUESS: MODEL POTENTIAL
------------------------------
Loading Hartree-Fock densities                     ... done
Calculating cut-offs                               ... done
Initializing the effective Hamiltonian             ... done
Setting up the integral package (SHARK)            ... done
Starting the Coulomb interaction                   ... done (   6.3 sec)
Reading the grid                                   ... done
Mapping shells                                     ... done
Starting the XC term evaluation                    ... done (   2.3 sec)
Transforming the Hamiltonian                       ... done (   0.1 sec)
Diagonalizing the Hamiltonian                      ... done (   0.3 sec)
Back transforming the eigenvectors                 ... done (   0.0 sec)
Now organizing SCF variables                       ... done
                      ------------------
                      INITIAL GUESS DONE (  13.5 sec)
                      ------------------
--------------
SCF ITERATIONS
--------------
ITER       Energy         Delta-E        Max-DP      RMS-DP      [F,P]     Damp
               ***  Starting incremental Fock matrix formation  ***
  0  -1269.9833982908   0.000000000000 0.05268055  0.00045502  0.3237734 0.7000
  1  -1270.2495237506  -0.266125459808 0.05070432  0.00037431  0.1934113 0.7000
                               ***Turning on DIIS***
  2  -1270.4159227433  -0.166398992675 0.02885437  0.00024923  0.1099397 0.7000
  3  -1272.5699225114  -2.153999768089 0.06329017  0.00052539  0.0828382 0.0000
  4  -1270.7244218337   1.845500677655 0.01747610  0.00010818  0.0082031 0.0000
  5  -1270.7822873326  -0.057865498827 0.00516138  0.00005390  0.0049326 0.0000
                      *** Initiating the SOSCF procedure ***
                           *** Shutting down DIIS ***
                      *** Re-Reading the Fockian *** 
                      *** Removing any level shift *** 
ITER      Energy       Delta-E        Grad      Rot      Max-DP    RMS-DP
  6  -1270.76266177   0.0196255629  0.001368  0.001368  0.001713  0.000027
               *** Restarting incremental Fock matrix formation ***
  7  -1270.77753147  -0.0148697042  0.000672  0.001653  0.001256  0.000016
  8  -1270.77757292  -0.0000414430  0.000388  0.001850  0.001317  0.000017
  9  -1270.77758883  -0.0000159093  0.000132  0.000241  0.000341  0.000004
 10  -1270.77759077  -0.0000019451  0.000051  0.000126  0.000128  0.000001
 11  -1270.77759103  -0.0000002545  0.000016  0.000097  0.000069  0.000001
 12  -1270.77759110  -0.0000000732  0.000013  0.000034  0.000031  0.000000
 13  -1270.77759110  -0.0000000042  0.000004  0.000014  0.000009  0.000000
                  ***Gradient check signals convergence***
              ***Rediagonalizing the Fockian in SOSCF/NRSCF***

               *****************************************************
               *                     SUCCESS                       *
               *           SCF CONVERGED AFTER  14 CYCLES          *
               *****************************************************


----------------
TOTAL SCF ENERGY
----------------

Total Energy       :        -1270.77759110 Eh          -34579.61625 eV

Components:
Nuclear Repulsion  :         1682.89491447 Eh           45793.89874 eV
Electronic Energy  :        -2953.67250557 Eh          -80373.51499 eV
One Electron Energy:        -5087.14483562 Eh         -138428.24853 eV
Two Electron Energy:         2133.47233005 Eh           58054.73355 eV

Virial components:
Potential Energy   :        -2540.00000457 Eh          -69116.91396 eV
Kinetic Energy     :         1269.22241347 Eh           34537.29771 eV
Virial Ratio       :            2.00122530


---------------
SCF CONVERGENCE
---------------

  Last Energy change         ...    4.9040e-09  Tolerance :   1.0000e-08
  Last MAX-Density change    ...    4.2870e-06  Tolerance :   1.0000e-07
  Last RMS-Density change    ...    5.8071e-08  Tolerance :   5.0000e-09
  Last Orbital Gradient      ...    2.0919e-06  Tolerance :   1.0000e-05
  Last Orbital Rotation      ...    7.7439e-06  Tolerance :   1.0000e-05

             **** THE GBW FILE WAS UPDATED (qm_input.vacu.gbw) ****
             **** DENSITY qm_input.vacu.scfp WAS UPDATED ****
             **** ENERGY FILE WAS UPDATED (qm_input.vacu.en.tmp) ****
             **** THE GBW FILE WAS UPDATED (qm_input.vacu.gbw) ****
             **** DENSITY qm_input.vacu.scfp WAS UPDATED ****
----------------
ORBITAL ENERGIES
----------------

  NO   OCC          E(Eh)            E(eV) 
   0   2.0000     -91.883285     -2500.2713 
   1   2.0000     -20.605830      -560.7131 
   2   2.0000     -20.580953      -560.0362 
   3   2.0000     -20.532505      -558.7179 
   4   2.0000     -15.624812      -425.1728 
   5   2.0000     -15.605397      -424.6444 
   6   2.0000     -11.383312      -309.7557 
   7   2.0000     -11.377918      -309.6089 
   8   2.0000     -11.329962      -308.3039 
   9   2.0000     -11.309048      -307.7348 
  10   2.0000     -11.308519      -307.7204 
  11   2.0000     -11.308365      -307.7162 
  12   2.0000     -11.265470      -306.5490 
  13   2.0000     -11.255707      -306.2834 
  14   2.0000     -11.254099      -306.2396 
  15   2.0000     -11.246752      -306.0397 
  16   2.0000     -11.243605      -305.9540 
  17   2.0000     -11.235957      -305.7459 
  18   2.0000     -11.235488      -305.7332 
  19   2.0000     -11.234835      -305.7154 
  20   2.0000      -8.889241      -241.8886 
  21   2.0000      -6.570916      -178.8037 
  22   2.0000      -6.568800      -178.7461 
  23   2.0000      -6.568239      -178.7309 
  24   2.0000      -1.476823       -40.1864 
  25   2.0000      -1.377873       -37.4938 
  26   2.0000      -1.355677       -36.8899 
  27   2.0000      -1.345117       -36.6025 
  28   2.0000      -1.244315       -33.8595 
  29   2.0000      -1.153480       -31.3878 
  30   2.0000      -1.125715       -30.6323 
  31   2.0000      -1.050959       -28.5980 
  32   2.0000      -1.035748       -28.1841 
  33   2.0000      -1.012635       -27.5552 
  34   2.0000      -1.000865       -27.2349 
  35   2.0000      -0.986335       -26.8395 
  36   2.0000      -0.924628       -25.1604 
  37   2.0000      -0.899820       -24.4853 
  38   2.0000      -0.851795       -23.1785 
  39   2.0000      -0.836687       -22.7674 
  40   2.0000      -0.826032       -22.4775 
  41   2.0000      -0.811688       -22.0871 
  42   2.0000      -0.766090       -20.8464 
  43   2.0000      -0.738951       -20.1079 
  44   2.0000      -0.728000       -19.8099 
  45   2.0000      -0.694448       -18.8969 
  46   2.0000      -0.686077       -18.6691 
  47   2.0000      -0.682296       -18.5662 
  48   2.0000      -0.670040       -18.2327 
  49   2.0000      -0.661782       -18.0080 
  50   2.0000      -0.649140       -17.6640 
  51   2.0000      -0.638072       -17.3628 
  52   2.0000      -0.630114       -17.1463 
  53   2.0000      -0.620486       -16.8843 
  54   2.0000      -0.609019       -16.5723 
  55   2.0000      -0.599816       -16.3218 
  56   2.0000      -0.579288       -15.7632 
  57   2.0000      -0.577829       -15.7235 
  58   2.0000      -0.573336       -15.6013 
  59   2.0000      -0.562746       -15.3131 
  60   2.0000      -0.558442       -15.1960 
  61   2.0000      -0.551305       -15.0018 
  62   2.0000      -0.537386       -14.6230 
  63   2.0000      -0.528398       -14.3784 
  64   2.0000      -0.507405       -13.8072 
  65   2.0000      -0.504210       -13.7203 
  66   2.0000      -0.499737       -13.5985 
  67   2.0000      -0.496102       -13.4996 
  68   2.0000      -0.480600       -13.0778 
  69   2.0000      -0.471187       -12.8216 
  70   2.0000      -0.454099       -12.3567 
  71   2.0000      -0.453536       -12.3413 
  72   2.0000      -0.358421        -9.7531 
  73   2.0000      -0.335879        -9.1397 
  74   2.0000      -0.326674        -8.8893 
  75   2.0000      -0.323443        -8.8013 
  76   2.0000      -0.310513        -8.4495 
  77   0.0000       0.083611         2.2752 
  78   0.0000       0.115431         3.1410 
  79   0.0000       0.118077         3.2130 
  80   0.0000       0.134889         3.6705 
  81   0.0000       0.139273         3.7898 
  82   0.0000       0.144203         3.9240 
  83   0.0000       0.154440         4.2025 
  84   0.0000       0.159360         4.3364 
  85   0.0000       0.162207         4.4139 
  86   0.0000       0.167878         4.5682 
  87   0.0000       0.173784         4.7289 
  88   0.0000       0.186680         5.0798 
  89   0.0000       0.190914         5.1950 
  90   0.0000       0.199204         5.4206 
  91   0.0000       0.202903         5.5213 
  92   0.0000       0.206755         5.6261 
  93   0.0000       0.215867         5.8740 
  94   0.0000       0.230658         6.2765 
  95   0.0000       0.241255         6.5649 
  96   0.0000       0.249140         6.7794 
  97   0.0000       0.249732         6.7956 
  98   0.0000       0.251993         6.8571 
  99   0.0000       0.275029         7.4839 
 100   0.0000       0.291141         7.9223 
 101   0.0000       0.298222         8.1150 
 102   0.0000       0.315643         8.5891 
 103   0.0000       0.319210         8.6861 
 104   0.0000       0.327918         8.9231 
 105   0.0000       0.333381         9.0718 
 106   0.0000       0.336147         9.1470 
 107   0.0000       0.340247         9.2586 
 108   0.0000       0.357796         9.7361 
 109   0.0000       0.359026         9.7696 
 110   0.0000       0.364469         9.9177 
 111   0.0000       0.369884        10.0651 
 112   0.0000       0.374359        10.1868 
 113   0.0000       0.381106        10.3704 
 114   0.0000       0.392885        10.6909 
 115   0.0000       0.413023        11.2389 
 116   0.0000       0.415349        11.3022 
 117   0.0000       0.417948        11.3729 
 118   0.0000       0.422408        11.4943 
 119   0.0000       0.432362        11.7652 
 120   0.0000       0.445886        12.1332 
 121   0.0000       0.447302        12.1717 
 122   0.0000       0.457563        12.4509 
 123   0.0000       0.463514        12.6129 
 124   0.0000       0.468507        12.7487 
 125   0.0000       0.476399        12.9635 
 126   0.0000       0.479188        13.0394 
 127   0.0000       0.485273        13.2049 
 128   0.0000       0.486243        13.2313 
 129   0.0000       0.494303        13.4507 
 130   0.0000       0.501525        13.6472 
 131   0.0000       0.505806        13.7637 
 132   0.0000       0.513879        13.9834 
 133   0.0000       0.517874        14.0921 
 134   0.0000       0.523766        14.2524 
 135   0.0000       0.530836        14.4448 
 136   0.0000       0.535445        14.5702 
 137   0.0000       0.541967        14.7477 
 138   0.0000       0.550483        14.9794 
 139   0.0000       0.555333        15.1114 
 140   0.0000       0.560477        15.2514 
 141   0.0000       0.563469        15.3328 
 142   0.0000       0.565745        15.3947 
 143   0.0000       0.570302        15.5187 
 144   0.0000       0.573414        15.6034 
 145   0.0000       0.575782        15.6678 
 146   0.0000       0.579040        15.7565 
 147   0.0000       0.586638        15.9632 
 148   0.0000       0.594058        16.1651 
 149   0.0000       0.596678        16.2364 
 150   0.0000       0.601794        16.3756 
 151   0.0000       0.602491        16.3946 
 152   0.0000       0.608120        16.5478 
 153   0.0000       0.610622        16.6159 
 154   0.0000       0.616477        16.7752 
 155   0.0000       0.621217        16.9042 
 156   0.0000       0.623459        16.9652 
 157   0.0000       0.630541        17.1579 
 158   0.0000       0.634879        17.2759 
 159   0.0000       0.636134        17.3101 
 160   0.0000       0.642562        17.4850 
 161   0.0000       0.650278        17.6950 
 162   0.0000       0.652004        17.7419 
 163   0.0000       0.657200        17.8833 
 164   0.0000       0.664079        18.0705 
 165   0.0000       0.669131        18.2080 
 166   0.0000       0.678834        18.4720 
 167   0.0000       0.683781        18.6066 
 168   0.0000       0.687735        18.7142 
 169   0.0000       0.692229        18.8365 
 170   0.0000       0.701434        19.0870 
 171   0.0000       0.706725        19.2310 
 172   0.0000       0.714749        19.4493 
 173   0.0000       0.719457        19.5774 
 174   0.0000       0.729605        19.8536 
 175   0.0000       0.736577        20.0433 
 176   0.0000       0.737256        20.0618 
 177   0.0000       0.738080        20.0842 
 178   0.0000       0.752140        20.4668 
 179   0.0000       0.753296        20.4982 
 180   0.0000       0.758392        20.6369 
 181   0.0000       0.763045        20.7635 
 182   0.0000       0.778359        21.1802 
 183   0.0000       0.789789        21.4912 
 184   0.0000       0.794116        21.6090 
 185   0.0000       0.806521        21.9466 
 186   0.0000       0.817883        22.2557 
 187   0.0000       0.818733        22.2789 
 188   0.0000       0.824979        22.4488 
 189   0.0000       0.828305        22.5393 
 190   0.0000       0.831153        22.6168 
 191   0.0000       0.848349        23.0847 
 192   0.0000       0.850600        23.1460 
 193   0.0000       0.853472        23.2242 
 194   0.0000       0.872154        23.7325 
 195   0.0000       0.882249        24.0072 
 196   0.0000       0.889190        24.1961 
 197   0.0000       0.892176        24.2774 
 198   0.0000       0.901281        24.5251 
 199   0.0000       0.907180        24.6856 
 200   0.0000       0.913753        24.8645 
 201   0.0000       0.923221        25.1221 
 202   0.0000       0.932953        25.3869 
 203   0.0000       0.939558        25.5667 
 204   0.0000       0.943709        25.6796 
 205   0.0000       0.945455        25.7271 
 206   0.0000       0.959841        26.1186 
 207   0.0000       0.964154        26.2360 
 208   0.0000       0.967487        26.3267 
 209   0.0000       0.982176        26.7264 
 210   0.0000       0.991921        26.9916 
 211   0.0000       0.992294        27.0017 
 212   0.0000       1.003760        27.3137 
 213   0.0000       1.004858        27.3436 
 214   0.0000       1.011659        27.5286 
 215   0.0000       1.018098        27.7039 
 216   0.0000       1.025015        27.8921 
 217   0.0000       1.031082        28.0572 
 218   0.0000       1.043007        28.3817 
 219   0.0000       1.045232        28.4422 
 220   0.0000       1.049860        28.5681 
 221   0.0000       1.058317        28.7983 
 222   0.0000       1.068245        29.0684 
 223   0.0000       1.074763        29.2458 
 224   0.0000       1.082139        29.4465 
 225   0.0000       1.086487        29.5648 
 226   0.0000       1.099244        29.9120 
 227   0.0000       1.103828        30.0367 
 228   0.0000       1.116424        30.3794 
 229   0.0000       1.123174        30.5631 
 230   0.0000       1.126024        30.6407 
 231   0.0000       1.134429        30.8694 
 232   0.0000       1.137627        30.9564 
 233   0.0000       1.148343        31.2480 
 234   0.0000       1.156170        31.4610 
 235   0.0000       1.158666        31.5289 
 236   0.0000       1.168516        31.7969 
 237   0.0000       1.172738        31.9118 
 238   0.0000       1.180992        32.1364 
 239   0.0000       1.186416        32.2840 
 240   0.0000       1.190582        32.3974 
 241   0.0000       1.192415        32.4473 
 242   0.0000       1.202088        32.7105 
 243   0.0000       1.206166        32.8214 
 244   0.0000       1.211143        32.9569 
 245   0.0000       1.223097        33.2822 
 246   0.0000       1.228242        33.4222 
 247   0.0000       1.236611        33.6499 
 248   0.0000       1.239881        33.7389 
 249   0.0000       1.241847        33.7924 
 250   0.0000       1.248465        33.9725 
 251   0.0000       1.251720        34.0610 
 252   0.0000       1.256913        34.2023 
 253   0.0000       1.267279        34.4844 
 254   0.0000       1.274457        34.6797 
 255   0.0000       1.291110        35.1329 
 256   0.0000       1.305003        35.5109 
 257   0.0000       1.309064        35.6215 
 258   0.0000       1.313937        35.7541 
 259   0.0000       1.316191        35.8154 
 260   0.0000       1.326014        36.0827 
 261   0.0000       1.342401        36.5286 
 262   0.0000       1.351590        36.7786 
 263   0.0000       1.354632        36.8614 
 264   0.0000       1.360328        37.0164 
 265   0.0000       1.373533        37.3757 
 266   0.0000       1.383043        37.6345 
 267   0.0000       1.389863        37.8201 
 268   0.0000       1.397835        38.0370 
 269   0.0000       1.403559        38.1928 
 270   0.0000       1.417815        38.5807 
 271   0.0000       1.427204        38.8362 
 272   0.0000       1.430886        38.9364 
 273   0.0000       1.449111        39.4323 
 274   0.0000       1.453896        39.5625 
 275   0.0000       1.454692        39.5842 
 276   0.0000       1.459064        39.7032 
 277   0.0000       1.465321        39.8734 
 278   0.0000       1.477840        40.2141 
 279   0.0000       1.491844        40.5952 
 280   0.0000       1.492379        40.6097 
 281   0.0000       1.498917        40.7876 
 282   0.0000       1.502534        40.8860 
 283   0.0000       1.520452        41.3736 
 284   0.0000       1.523358        41.4527 
 285   0.0000       1.528225        41.5851 
 286   0.0000       1.532993        41.7149 
 287   0.0000       1.535291        41.7774 
 288   0.0000       1.543058        41.9887 
 289   0.0000       1.550243        42.1843 
 290   0.0000       1.552666        42.2502 
 291   0.0000       1.564664        42.5767 
 292   0.0000       1.566368        42.6231 
 293   0.0000       1.568115        42.6706 
 294   0.0000       1.577888        42.9365 
 295   0.0000       1.584438        43.1148 
 296   0.0000       1.588878        43.2356 
 297   0.0000       1.597983        43.4833 
 298   0.0000       1.606795        43.7231 
 299   0.0000       1.619692        44.0741 
 300   0.0000       1.627965        44.2992 
 301   0.0000       1.639945        44.6252 
 302   0.0000       1.644782        44.7568 
 303   0.0000       1.648606        44.8609 
 304   0.0000       1.661650        45.2158 
 305   0.0000       1.668452        45.4009 
 306   0.0000       1.679586        45.7039 
 307   0.0000       1.682759        45.7902 
 308   0.0000       1.696730        46.1704 
 309   0.0000       1.702170        46.3184 
 310   0.0000       1.711975        46.5852 
 311   0.0000       1.727909        47.0188 
 312   0.0000       1.730997        47.1028 
 313   0.0000       1.742705        47.4214 
 314   0.0000       1.749117        47.5959 
 315   0.0000       1.762603        47.9629 
 316   0.0000       1.764576        48.0165 
 317   0.0000       1.776253        48.3343 
 318   0.0000       1.788381        48.6643 
 319   0.0000       1.790451        48.7206 
 320   0.0000       1.795964        48.8707 
 321   0.0000       1.799932        48.9786 
 322   0.0000       1.822838        49.6020 
 323   0.0000       1.839379        50.0521 
 324   0.0000       1.848402        50.2976 
 325   0.0000       1.859550        50.6009 
 326   0.0000       1.868512        50.8448 
 327   0.0000       1.892513        51.4979 
 328   0.0000       1.900088        51.7040 
 329   0.0000       1.912666        52.0463 
 330   0.0000       1.919773        52.2397 
 331   0.0000       1.931671        52.5634 
 332   0.0000       1.938684        52.7543 
 333   0.0000       1.953220        53.1498 
 334   0.0000       1.967248        53.5316 
 335   0.0000       1.974357        53.7250 
 336   0.0000       1.996363        54.3238 
 337   0.0000       2.003273        54.5118 
 338   0.0000       2.016650        54.8758 
 339   0.0000       2.030024        55.2398 
 340   0.0000       2.042706        55.5848 
 341   0.0000       2.050549        55.7983 
 342   0.0000       2.056497        55.9601 
 343   0.0000       2.063071        56.1390 
 344   0.0000       2.084167        56.7131 
 345   0.0000       2.110805        57.4379 
 346   0.0000       2.120520        57.7023 
 347   0.0000       2.132121        58.0180 
 348   0.0000       2.141896        58.2840 
 349   0.0000       2.164043        58.8866 
 350   0.0000       2.175747        59.2051 
 351   0.0000       2.193191        59.6798 
 352   0.0000       2.212644        60.2091 
 353   0.0000       2.228378        60.6372 
 354   0.0000       2.235306        60.8258 
 355   0.0000       2.263469        61.5921 
 356   0.0000       2.271530        61.8115 
 357   0.0000       2.292008        62.3687 
 358   0.0000       2.302427        62.6522 
 359   0.0000       2.314357        62.9768 
 360   0.0000       2.318870        63.0997 
 361   0.0000       2.333576        63.4998 
 362   0.0000       2.343853        63.7795 
 363   0.0000       2.349195        63.9248 
 364   0.0000       2.354533        64.0701 
 365   0.0000       2.374025        64.6005 
 366   0.0000       2.386127        64.9298 
 367   0.0000       2.402918        65.3867 
 368   0.0000       2.404860        65.4396 
 369   0.0000       2.422029        65.9068 
 370   0.0000       2.425938        66.0131 
 371   0.0000       2.445321        66.5406 
 372   0.0000       2.483637        67.5832 
 373   0.0000       2.488169        67.7065 
 374   0.0000       2.500432        68.0402 
 375   0.0000       2.511372        68.3379 
 376   0.0000       2.516220        68.4698 
 377   0.0000       2.526807        68.7579 
 378   0.0000       2.536057        69.0096 
 379   0.0000       2.541899        69.1686 
 380   0.0000       2.559783        69.6552 
 381   0.0000       2.580583        70.2212 
 382   0.0000       2.592600        70.5482 
 383   0.0000       2.596285        70.6485 
 384   0.0000       2.616322        71.1937 
 385   0.0000       2.622992        71.3752 
 386   0.0000       2.631904        71.6178 
 387   0.0000       2.635359        71.7118 
 388   0.0000       2.664715        72.5106 
 389   0.0000       2.669039        72.6282 
 390   0.0000       2.677053        72.8463 
 391   0.0000       2.689398        73.1822 
 392   0.0000       2.694230        73.3137 
 393   0.0000       2.697445        73.4012 
 394   0.0000       2.711905        73.7947 
 395   0.0000       2.723783        74.1179 
 396   0.0000       2.735247        74.4298 
 397   0.0000       2.745472        74.7081 
 398   0.0000       2.760045        75.1046 
 399   0.0000       2.762716        75.1773 
 400   0.0000       2.775064        75.5133 
 401   0.0000       2.788521        75.8795 
 402   0.0000       2.794453        76.0409 
 403   0.0000       2.812688        76.5371 
 404   0.0000       2.822276        76.7980 
 405   0.0000       2.829479        76.9940 
 406   0.0000       2.835176        77.1491 
 407   0.0000       2.838611        77.2425 
 408   0.0000       2.843063        77.3637 
 409   0.0000       2.858515        77.7842 
 410   0.0000       2.873675        78.1967 
 411   0.0000       2.875923        78.2578 
 412   0.0000       2.888921        78.6115 
 413   0.0000       2.898298        78.8667 
 414   0.0000       2.902599        78.9837 
 415   0.0000       2.915477        79.3342 
 416   0.0000       2.922917        79.5366 
 417   0.0000       2.934432        79.8499 
 418   0.0000       2.941249        80.0355 
 419   0.0000       2.948310        80.2276 
 420   0.0000       2.953344        80.3646 
 421   0.0000       2.965920        80.7068 
 422   0.0000       2.982447        81.1565 
 423   0.0000       2.993302        81.4519 
 424   0.0000       2.997967        81.5788 
 425   0.0000       3.005845        81.7932 
 426   0.0000       3.013039        81.9890 
 427   0.0000       3.026529        82.3560 
 428   0.0000       3.035298        82.5947 
 429   0.0000       3.047058        82.9147 
 430   0.0000       3.049821        82.9898 
 431   0.0000       3.057025        83.1859 
 432   0.0000       3.066325        83.4389 
 433   0.0000       3.071692        83.5850 
 434   0.0000       3.074736        83.6678 
 435   0.0000       3.092651        84.1553 
 436   0.0000       3.096239        84.2529 
 437   0.0000       3.100737        84.3753 
 438   0.0000       3.108389        84.5836 
 439   0.0000       3.110722        84.6471 
 440   0.0000       3.120261        84.9066 
 441   0.0000       3.129512        85.1583 
 442   0.0000       3.131072        85.2008 
 443   0.0000       3.138577        85.4050 
 444   0.0000       3.143002        85.5254 
 445   0.0000       3.150009        85.7161 
 446   0.0000       3.159694        85.9797 
 447   0.0000       3.170633        86.2773 
 448   0.0000       3.183722        86.6335 
 449   0.0000       3.187817        86.7449 
 450   0.0000       3.194170        86.9178 
 451   0.0000       3.201409        87.1148 
 452   0.0000       3.207205        87.2725 
 453   0.0000       3.221344        87.6572 
 454   0.0000       3.223801        87.7241 
 455   0.0000       3.227844        87.8341 
 456   0.0000       3.236699        88.0751 
 457   0.0000       3.238548        88.1254 
 458   0.0000       3.245166        88.3055 
 459   0.0000       3.250620        88.4539 
 460   0.0000       3.265260        88.8522 
 461   0.0000       3.272937        89.0611 
 462   0.0000       3.279988        89.2530 
 463   0.0000       3.287734        89.4638 
 464   0.0000       3.297835        89.7386 
 465   0.0000       3.301120        89.8281 
 466   0.0000       3.305867        89.9572 
 467   0.0000       3.312323        90.1329 
 468   0.0000       3.323083        90.4257 
 469   0.0000       3.331562        90.6564 
 470   0.0000       3.336179        90.7820 
 471   0.0000       3.341815        90.9354 
 472   0.0000       3.343877        90.9915 
 473   0.0000       3.350765        91.1789 
 474   0.0000       3.356506        91.3352 
 475   0.0000       3.362725        91.5044 
 476   0.0000       3.364453        91.5514 
 477   0.0000       3.374465        91.8239 
 478   0.0000       3.382568        92.0444 
 479   0.0000       3.383985        92.0829 
 480   0.0000       3.391743        92.2940 
 481   0.0000       3.395112        92.3857 
 482   0.0000       3.400375        92.5289 
 483   0.0000       3.408611        92.7530 
 484   0.0000       3.413139        92.8762 
 485   0.0000       3.420846        93.0859 
 486   0.0000       3.425894        93.2233 
 487   0.0000       3.430373        93.3452 
 488   0.0000       3.437489        93.5388 
 489   0.0000       3.441854        93.6576 
 490   0.0000       3.444307        93.7244 
 491   0.0000       3.447662        93.8157 
 492   0.0000       3.454785        94.0095 
 493   0.0000       3.455138        94.0191 
 494   0.0000       3.463678        94.2515 
 495   0.0000       3.473712        94.5245 
 496   0.0000       3.475045        94.5608 
 497   0.0000       3.485036        94.8326 
 498   0.0000       3.497133        95.1618 
 499   0.0000       3.500370        95.2499 
 500   0.0000       3.503579        95.3372 
 501   0.0000       3.514001        95.6208 
 502   0.0000       3.515489        95.6613 
 503   0.0000       3.527669        95.9927 
 504   0.0000       3.539604        96.3175 
 505   0.0000       3.544452        96.4494 
 506   0.0000       3.549046        96.5744 
 507   0.0000       3.562793        96.9485 
 508   0.0000       3.568682        97.1088 
 509   0.0000       3.583468        97.5111 
 510   0.0000       3.587328        97.6162 
 511   0.0000       3.588565        97.6498 
 512   0.0000       3.604360        98.0796 
 513   0.0000       3.607884        98.1755 
 514   0.0000       3.620540        98.5199 
 515   0.0000       3.623232        98.5932 
 516   0.0000       3.627153        98.6999 
 517   0.0000       3.634246        98.8929 
 518   0.0000       3.639919        99.0472 
 519   0.0000       3.644817        99.1805 
 520   0.0000       3.646798        99.2344 
 521   0.0000       3.659162        99.5709 
 522   0.0000       3.665872        99.7534 
 523   0.0000       3.668216        99.8172 
 524   0.0000       3.673858        99.9708 
 525   0.0000       3.683454       100.2319 
 526   0.0000       3.688648       100.3732 
 527   0.0000       3.693076       100.4937 
 528   0.0000       3.697921       100.6255 
 529   0.0000       3.699053       100.6563 
 530   0.0000       3.716166       101.1220 
 531   0.0000       3.719829       101.2217 
 532   0.0000       3.722621       101.2977 
 533   0.0000       3.730980       101.5251 
 534   0.0000       3.741370       101.8078 
 535   0.0000       3.743950       101.8781 
 536   0.0000       3.750034       102.0436 
 537   0.0000       3.756242       102.2125 
 538   0.0000       3.764395       102.4344 
 539   0.0000       3.767300       102.5134 
 540   0.0000       3.768969       102.5589 
 541   0.0000       3.776297       102.7583 
 542   0.0000       3.788812       103.0988 
 543   0.0000       3.796302       103.3026 
 544   0.0000       3.803792       103.5064 
 545   0.0000       3.804649       103.5298 
 546   0.0000       3.819094       103.9228 
 547   0.0000       3.829281       104.2000 
 548   0.0000       3.835451       104.3679 
 549   0.0000       3.849050       104.7380 
 550   0.0000       3.861243       105.0698 
 551   0.0000       3.865775       105.1931 
 552   0.0000       3.874138       105.4206 
 553   0.0000       3.880133       105.5838 
 554   0.0000       3.881966       105.6337 
 555   0.0000       3.885703       105.7354 
 556   0.0000       3.905171       106.2651 
 557   0.0000       3.914122       106.5087 
 558   0.0000       3.916542       106.5745 
 559   0.0000       3.926271       106.8393 
 560   0.0000       3.936359       107.1138 
 561   0.0000       3.944993       107.3487 
 562   0.0000       3.954481       107.6069 
 563   0.0000       3.959318       107.7385 
 564   0.0000       3.977532       108.2341 
 565   0.0000       3.983943       108.4086 
 566   0.0000       3.987180       108.4967 
 567   0.0000       3.992270       108.6352 
 568   0.0000       4.002301       108.9081 
 569   0.0000       4.013432       109.2110 
 570   0.0000       4.024455       109.5110 
 571   0.0000       4.029613       109.6513 
 572   0.0000       4.033134       109.7472 
 573   0.0000       4.047651       110.1422 
 574   0.0000       4.050837       110.2289 
 575   0.0000       4.064077       110.5892 
 576   0.0000       4.068140       110.6997 
 577   0.0000       4.073423       110.8435 
 578   0.0000       4.076517       110.9277 
 579   0.0000       4.094364       111.4133 
 580   0.0000       4.104850       111.6986 
 581   0.0000       4.109725       111.8313 
 582   0.0000       4.120355       112.1206 
 583   0.0000       4.130048       112.3843 
 584   0.0000       4.132661       112.4554 
 585   0.0000       4.139585       112.6438 
 586   0.0000       4.151466       112.9671 
 587   0.0000       4.158470       113.1577 
 588   0.0000       4.165218       113.3413 
 589   0.0000       4.168355       113.4267 
 590   0.0000       4.173231       113.5594 
 591   0.0000       4.177208       113.6676 
 592   0.0000       4.190960       114.0418 
 593   0.0000       4.197557       114.2213 
 594   0.0000       4.213018       114.6420 
 595   0.0000       4.223118       114.9169 
 596   0.0000       4.227238       115.0290 
 597   0.0000       4.230977       115.1308 
 598   0.0000       4.236272       115.2748 
 599   0.0000       4.242428       115.4423 
 600   0.0000       4.250001       115.6484 
 601   0.0000       4.254734       115.7772 
 602   0.0000       4.276604       116.3723 
 603   0.0000       4.279661       116.4555 
 604   0.0000       4.290313       116.7454 
 605   0.0000       4.304860       117.1412 
 606   0.0000       4.308265       117.2338 
 607   0.0000       4.311639       117.3257 
 608   0.0000       4.326399       117.7273 
 609   0.0000       4.330470       117.8381 
 610   0.0000       4.334891       117.9584 
 611   0.0000       4.337941       118.0414 
 612   0.0000       4.347407       118.2990 
 613   0.0000       4.355051       118.5070 
 614   0.0000       4.364168       118.7550 
 615   0.0000       4.370796       118.9354 
 616   0.0000       4.372114       118.9713 
 617   0.0000       4.382583       119.2561 
 618   0.0000       4.389117       119.4340 
 619   0.0000       4.404556       119.8541 
 620   0.0000       4.410559       120.0174 
 621   0.0000       4.412981       120.0833 
 622   0.0000       4.434990       120.6822 
 623   0.0000       4.436912       120.7345 
 624   0.0000       4.442991       120.8999 
 625   0.0000       4.445130       120.9581 
 626   0.0000       4.448870       121.0599 
 627   0.0000       4.456733       121.2739 
 628   0.0000       4.462451       121.4295 
 629   0.0000       4.471634       121.6794 
 630   0.0000       4.481681       121.9527 
 631   0.0000       4.485573       122.0587 
 632   0.0000       4.492972       122.2600 
 633   0.0000       4.502375       122.5158 
 634   0.0000       4.520014       122.9958 
 635   0.0000       4.529820       123.2627 
 636   0.0000       4.540296       123.5477 
 637   0.0000       4.552180       123.8711 
 638   0.0000       4.564545       124.2076 
 639   0.0000       4.570113       124.3591 
 640   0.0000       4.578113       124.5768 
 641   0.0000       4.582825       124.7050 
 642   0.0000       4.589150       124.8771 
 643   0.0000       4.606640       125.3530 
 644   0.0000       4.615142       125.5844 
 645   0.0000       4.620369       125.7266 
 646   0.0000       4.623971       125.8246 
 647   0.0000       4.642643       126.3327 
 648   0.0000       4.644597       126.3859 
 649   0.0000       4.663257       126.8937 
 650   0.0000       4.672764       127.1524 
 651   0.0000       4.676819       127.2627 
 652   0.0000       4.691933       127.6740 
 653   0.0000       4.693094       127.7056 
 654   0.0000       4.695838       127.7802 
 655   0.0000       4.699486       127.8795 
 656   0.0000       4.713250       128.2540 
 657   0.0000       4.732950       128.7901 
 658   0.0000       4.741159       129.0135 
 659   0.0000       4.756703       129.4365 
 660   0.0000       4.760166       129.5307 
 661   0.0000       4.762966       129.6069 
 662   0.0000       4.783806       130.1740 
 663   0.0000       4.821926       131.2113 
 664   0.0000       4.838149       131.6527 
 665   0.0000       4.845796       131.8608 
 666   0.0000       4.853338       132.0661 
 667   0.0000       4.859798       132.2418 
 668   0.0000       4.869634       132.5095 
 669   0.0000       4.884670       132.9186 
 670   0.0000       4.889085       133.0388 
 671   0.0000       4.915003       133.7440 
 672   0.0000       4.924756       134.0094 
 673   0.0000       4.953109       134.7809 
 674   0.0000       4.983208       135.6000 
 675   0.0000       4.989559       135.7728 
 676   0.0000       5.009088       136.3042 
 677   0.0000       5.017947       136.5453 
 678   0.0000       5.028320       136.8276 
 679   0.0000       5.031580       136.9163 
 680   0.0000       5.046440       137.3206 
 681   0.0000       5.056357       137.5905 
 682   0.0000       5.074649       138.0882 
 683   0.0000       5.081229       138.2673 
 684   0.0000       5.106955       138.9673 
 685   0.0000       5.108258       139.0028 
 686   0.0000       5.122352       139.3863 
 687   0.0000       5.126962       139.5117 
 688   0.0000       5.133586       139.6920 
 689   0.0000       5.141094       139.8963 
 690   0.0000       5.156146       140.3059 
 691   0.0000       5.176712       140.8655 
 692   0.0000       5.187658       141.1634 
 693   0.0000       5.189619       141.2167 
 694   0.0000       5.213440       141.8649 
 695   0.0000       5.220756       142.0640 
 696   0.0000       5.242750       142.6625 
 697   0.0000       5.248911       142.8301 
 698   0.0000       5.267240       143.3289 
 699   0.0000       5.272864       143.4819 
 700   0.0000       5.278064       143.6234 
 701   0.0000       5.295526       144.0986 
 702   0.0000       5.303260       144.3090 
 703   0.0000       5.322259       144.8260 
 704   0.0000       5.331613       145.0806 
 705   0.0000       5.343720       145.4100 
 706   0.0000       5.349434       145.5655 
 707   0.0000       5.365190       145.9943 
 708   0.0000       5.375729       146.2810 
 709   0.0000       5.391505       146.7103 
 710   0.0000       5.416528       147.3912 
 711   0.0000       5.424569       147.6100 
 712   0.0000       5.427545       147.6910 
 713   0.0000       5.447383       148.2308 
 714   0.0000       5.455496       148.4516 
 715   0.0000       5.469491       148.8324 
 716   0.0000       5.484566       149.2426 
 717   0.0000       5.490066       149.3923 
 718   0.0000       5.507490       149.8664 
 719   0.0000       5.524692       150.3345 
 720   0.0000       5.528976       150.4511 
 721   0.0000       5.541507       150.7921 
 722   0.0000       5.557919       151.2387 
 723   0.0000       5.571414       151.6059 
 724   0.0000       5.586353       152.0124 
 725   0.0000       5.600329       152.3927 
 726   0.0000       5.609136       152.6324 
 727   0.0000       5.616531       152.8336 
 728   0.0000       5.627775       153.1395 
 729   0.0000       5.642312       153.5351 
 730   0.0000       5.646785       153.6568 
 731   0.0000       5.657122       153.9381 
 732   0.0000       5.674599       154.4137 
 733   0.0000       5.696016       154.9965 
 734   0.0000       5.704934       155.2391 
 735   0.0000       5.716824       155.5627 
 736   0.0000       5.729825       155.9165 
 737   0.0000       5.742018       156.2483 
 738   0.0000       5.756001       156.6287 
 739   0.0000       5.769320       156.9912 
 740   0.0000       5.782348       157.3457 
 741   0.0000       5.785572       157.4334 
 742   0.0000       5.823076       158.4540 
 743   0.0000       5.826872       158.5572 
 744   0.0000       5.845703       159.0697 
 745   0.0000       5.855614       159.3394 
 746   0.0000       5.870627       159.7479 
 747   0.0000       5.883147       160.0886 
 748   0.0000       5.920721       161.1110 
 749   0.0000       5.940919       161.6606 
 750   0.0000       5.948132       161.8569 
 751   0.0000       5.964990       162.3156 
 752   0.0000       5.975390       162.5986 
 753   0.0000       5.994278       163.1126 
 754   0.0000       6.028593       164.0464 
 755   0.0000       6.040216       164.3626 
 756   0.0000       6.058385       164.8570 
 757   0.0000       6.092225       165.7779 
 758   0.0000       6.102185       166.0489 
 759   0.0000       6.113437       166.3551 
 760   0.0000       6.137786       167.0177 
 761   0.0000       6.153702       167.4507 
 762   0.0000       6.170033       167.8951 
 763   0.0000       6.202851       168.7881 
 764   0.0000       6.211686       169.0286 
 765   0.0000       6.236777       169.7113 
 766   0.0000       6.279445       170.8724 
 767   0.0000       6.288797       171.1269 
 768   0.0000       6.291854       171.2100 
 769   0.0000       6.317702       171.9134 
 770   0.0000       6.326173       172.1439 
 771   0.0000       6.357218       172.9887 
 772   0.0000       6.378135       173.5579 
 773   0.0000       6.422792       174.7731 
 774   0.0000       6.445206       175.3830 
 775   0.0000       6.483771       176.4324 
 776   0.0000       6.493972       176.7100 
 777   0.0000       6.523041       177.5010 
 778   0.0000       6.607589       179.8016 
 779   0.0000       6.623774       180.2421 
 780   0.0000       6.674631       181.6259 
 781   0.0000       6.694864       182.1765 
 782   0.0000       6.756345       183.8495 
 783   0.0000       6.821448       185.6210 
 784   0.0000       6.842078       186.1824 
 785   0.0000       6.857160       186.5928 
 786   0.0000       6.872230       187.0029 
 787   0.0000       6.929142       188.5516 
 788   0.0000       6.958112       189.3398 
 789   0.0000       6.978599       189.8973 
 790   0.0000       7.067496       192.3163 
 791   0.0000       7.068172       192.3347 
 792   0.0000       7.136571       194.1960 
 793   0.0000       7.177731       195.3160 
 794   0.0000       7.186079       195.5431 
 795   0.0000       7.263120       197.6395 
 796   0.0000       7.268519       197.7864 
 797   0.0000       7.283179       198.1854 
 798   0.0000       7.315333       199.0603 
 799   0.0000       7.393486       201.1870 
 800   0.0000       7.500438       204.0973 
 801   0.0000       7.573862       206.0953 
 802   0.0000       7.578757       206.2285 
 803   0.0000       7.592425       206.6004 
 804   0.0000       7.681163       209.0151 
 805   0.0000       7.730262       210.3511 
 806   0.0000       7.882018       214.4806 
 807   0.0000       7.955697       216.4855 
 808   0.0000       8.012512       218.0315 
 809   0.0000       9.302055       253.1218 
 810   0.0000       9.530694       259.3434 
 811   0.0000      10.967001       298.4273 
 812   0.0000      11.628017       316.4144 
 813   0.0000      12.296224       334.5973 
 814   0.0000      12.391345       337.1856 
 815   0.0000      12.622327       343.4710 
 816   0.0000      12.697167       345.5075 
 817   0.0000      12.863047       350.0213 
 818   0.0000      13.108921       356.7119 
 819   0.0000      13.413454       364.9987 
 820   0.0000      13.647602       371.3701 
 821   0.0000      13.877999       377.6395 
 822   0.0000      13.961064       379.8999 
 823   0.0000      14.057489       382.5237 
 824   0.0000      14.329418       389.9233 
 825   0.0000      14.770636       401.9294 
 826   0.0000      15.487852       421.4459 
 827   0.0000      15.561862       423.4598 

                    ********************************
                    * MULLIKEN POPULATION ANALYSIS *
                    ********************************

-----------------------
MULLIKEN ATOMIC CHARGES
-----------------------
   0 C :   -0.292413
   1 C :    0.032158
   2 O :   -0.323791
   3 C :    0.412861
   4 O :   -0.456013
   5 C :   -0.146904
   6 C :    0.140673
   7 C :   -0.299975
   8 N :   -0.136863
   9 C :    0.205819
  10 S :   -0.456574
  11 N :   -0.178343
  12 C :    0.062361
  13 C :   -0.073056
  14 C :   -0.176124
  15 C :   -0.145657
  16 C :   -0.200971
  17 C :    0.266894
  18 O :   -0.386519
  19 C :   -0.159247
  20 H :    0.106876
  21 H :    0.096559
  22 H :    0.105702
  23 H :    0.109542
  24 H :    0.130367
  25 H :    0.136572
  26 H :    0.116089
  27 H :    0.118102
  28 H :    0.199747
  29 H :    0.196632
  30 H :    0.140156
  31 H :    0.153254
  32 H :    0.168909
  33 H :    0.160582
  34 H :    0.247517
  35 H :    0.125078
Sum of atomic charges:    0.0000000

--------------------------------
MULLIKEN REDUCED ORBITAL CHARGES
--------------------------------
  0 C s       :     3.268855  s :     3.268855
      pz      :     0.982096  p :     2.948156
      px      :     0.943508
      py      :     1.022552
      dz2     :     0.011583  d :     0.071054
      dxz     :     0.019808
      dyz     :     0.010997
      dx2y2   :     0.017310
      dxy     :     0.011358
      f0      :     0.000316  f :     0.004347
      f+1     :     0.000634
      f-1     :     0.000796
      f+2     :     0.001146
      f-2     :     0.000610
      f+3     :     0.000455
      f-3     :     0.000390
  1 C s       :     3.176141  s :     3.176141
      pz      :     0.927913  p :     2.637059
      px      :     0.988153
      py      :     0.720993
      dz2     :     0.014311  d :     0.143629
      dxz     :     0.027989
      dyz     :     0.043571
      dx2y2   :     0.033978
      dxy     :     0.023780
      f0      :     0.000847  f :     0.011012
      f+1     :     0.000629
      f-1     :     0.001802
      f+2     :     0.003213
      f-2     :     0.001300
      f+3     :     0.001750
      f-3     :     0.001471
  2 O s       :     3.693159  s :     3.693159
      pz      :     1.361430  p :     4.593371
      px      :     1.752196
      py      :     1.479744
      dz2     :     0.012214  d :     0.034737
      dxz     :     0.007249
      dyz     :     0.006167
      dx2y2   :     0.006166
      dxy     :     0.002941
      f0      :     0.000683  f :     0.002524
      f+1     :     0.000479
      f-1     :     0.000472
      f+2     :     0.000363
      f-2     :     0.000205
      f+3     :     0.000104
      f-3     :     0.000219
  3 C s       :     3.096902  s :     3.096902
      pz      :     0.683212  p :     2.151563
      px      :     0.651675
[...]
 15 C s       :     2.704291  s :     2.704291
      pz      :     0.878799  p :     2.812052
      px      :     0.978550
      py      :     0.954703
      dz2     :     0.065432  d :     0.410133
      dxz     :     0.049132
      dyz     :     0.070245
      dx2y2   :     0.136066
      dxy     :     0.089257
      f0      :     0.002850  f :     0.041291
      f+1     :     0.004968
      f-1     :     0.004019
      f+2     :     0.005112
      f-2     :     0.007377
      f+3     :     0.008149
      f-3     :     0.008815
 16 C s       :     2.710981  s :     2.710981
      pz      :     0.909803  p :     2.833378
      px      :     0.973837
      py      :     0.949738
      dz2     :     0.040765  d :     0.377850
      dxz     :     0.079073
      dyz     :     0.045669
      dx2y2   :     0.096160
      dxy     :     0.116183
      f0      :     0.004004  f :     0.037669
      f+1     :     0.003377
      f-1     :     0.003346
      f+2     :     0.006191
      f-2     :     0.004576
      f+3     :     0.006571
      f-3     :     0.009605
 17 C s       :     2.709315  s :     2.709315
      pz      :     0.828170  p :     2.693070
      px      :     1.010602
      py      :     0.854298
      dz2     :     0.082998  d :     0.664002
      dxz     :     0.110351
      dyz     :     0.111276
      dx2y2   :     0.192881
      dxy     :     0.166497
      f0      :     0.006450  f :     0.088350
      f+1     :     0.007510
      f-1     :     0.011258
      f+2     :     0.013398
      f-2     :     0.011990
      f+3     :     0.015146
      f-3     :     0.022598
 18 O s       :     3.194995  s :     3.194995
      pz      :     1.620720  p :     4.391553
      px      :     1.315099
      py      :     1.455734
      dz2     :     0.009233  d :     0.066505
      dxz     :     0.004749
      dyz     :     0.012098
      dx2y2   :     0.027104
      dxy     :     0.013320
      f0      :     0.000247  f :     0.003815
      f+1     :     0.000388
      f-1     :     0.000499
      f+2     :     0.000687
      f-2     :     0.000480
      f+3     :     0.000780
      f-3     :     0.000733
 19 C s       :     2.698485  s :     2.698485
      pz      :     0.895161  p :     2.828535
      px      :     0.966849
      py      :     0.966525
      dz2     :     0.054257  d :     0.407427
      dxz     :     0.052575
      dyz     :     0.069978
      dx2y2   :     0.134299
      dxy     :     0.096318
      f0      :     0.003083  f :     0.042505
      f+1     :     0.004013
      f-1     :     0.004310
      f+2     :     0.006191
      f-2     :     0.007086
      f+3     :     0.008568
      f-3     :     0.009253
 20 H s       :     0.844568  s :     0.844568
      pz      :     0.048098  p :     0.152891
      px      :     0.058447
      py      :     0.046346
      dz2     :     0.005185  d :     0.027652
      dxz     :     0.006227
      dyz     :     0.003695
      dx2y2   :     0.007049
      dxy     :     0.005497
 21 H s       :     0.846627  s :     0.846627
      pz      :     0.038825  p :     0.154962
      px      :     0.044279
      py      :     0.071858
      dz2     :     0.002317  d :     0.028444
      dxz     :     0.001096
      dyz     :     0.008457
      dx2y2   :     0.007395
      dxy     :     0.009179
 22 H s       :     0.851303  s :     0.851303
      pz      :     0.064231  p :     0.149696
      px      :     0.038132
      py      :     0.047333
      dz2     :     0.008220  d :     0.026936
      dxz     :     0.006727
      dyz     :     0.007014
      dx2y2   :     0.002784
      dxy     :     0.002190
 23 H s       :     0.856473  s :     0.856473
      pz      :     0.051820  p :     0.145862
      px      :     0.067531
      py      :     0.026511
      dz2     :     0.005852  d :     0.027095
      dxz     :     0.008152
      dyz     :     0.003055
      dx2y2   :     0.005980
      dxy     :     0.004057
 24 H s       :     0.848074  s :     0.848074
      pz      :     0.053474  p :     0.150423
      px      :     0.040645
      py      :     0.056304
      dz2     :     0.004035  d :     0.027068
      dxz     :     0.004703
      dyz     :     0.008052
      dx2y2   :     0.005055
      dxy     :     0.005223
 25 H s       :     0.831130  s :     0.831130
      pz      :     0.044391  p :     0.158488
      px      :     0.053175
      py      :     0.060921
      dz2     :     0.004898  d :     0.027965
      dxz     :     0.003945
      dyz     :     0.005143
      dx2y2   :     0.008266
      dxy     :     0.005713
 26 H s       :     0.827236  s :     0.827236
      pz      :     0.044130  p :     0.158526
      px      :     0.070063
      py      :     0.044333
      dz2     :     0.003679  d :     0.028655
      dxz     :     0.007901
      dyz     :     0.000910
      dx2y2   :     0.007641
      dxy     :     0.008525
 27 H s       :     0.843245  s :     0.843245
      pz      :     0.038449  p :     0.151889
      px      :     0.044470
      py      :     0.068970
      dz2     :     0.003883  d :     0.027470
      dxz     :     0.001006
      dyz     :     0.007833
      dx2y2   :     0.005890
      dxy     :     0.008858
 28 H s       :     0.740163  s :     0.740163
      pz      :     0.075640  p :     0.253194
      px      :     0.090436
      py      :     0.087117
      dz2     :     0.011791  d :     0.060750
      dxz     :     0.011010
      dyz     :     0.016068
      dx2y2   :     0.009794
      dxy     :     0.012085
 29 H s       :     0.742733  s :     0.742733
      pz      :     0.115190  p :     0.258845
      px      :     0.088215
      py      :     0.055440
      dz2     :     0.019914  d :     0.062221
      dxz     :     0.022501
      dyz     :     0.016373
      dx2y2   :     0.001636
      dxy     :     0.001796
 30 H s       :     0.827141  s :     0.827141
      pz      :     0.043849  p :     0.151721
      px      :     0.073021
      py      :     0.034851
      dz2     :     0.005222  d :     0.029139
      dxz     :     0.007570
      dyz     :     0.001590
      dx2y2   :     0.007647
      dxy     :     0.007112
 31 H s       :     0.843735  s :     0.843735
      pz      :     0.050534  p :     0.158646
      px      :     0.038628
      py      :     0.069483
      dz2     :     0.003984  d :     0.027773
      dxz     :     0.002237
      dyz     :     0.007049
      dx2y2   :     0.007100
      dxy     :     0.007403
 32 H s       :     0.841630  s :     0.841630
      pz      :     0.039010  p :     0.152117
      px      :     0.077338
      py      :     0.035769
      dz2     :     0.002696  d :     0.026657
      dxz     :     0.007728
      dyz     :     0.000281
      dx2y2   :     0.007768
      dxy     :     0.008184
 33 H s       :     0.844514  s :     0.844514
      pz      :     0.049188  p :     0.157816
      px      :     0.051588
      py      :     0.057040
      dz2     :     0.004319  d :     0.027435
      dxz     :     0.004856
      dyz     :     0.004680
      dx2y2   :     0.007010
      dxy     :     0.006571
 34 H s       :     0.711976  s :     0.711976
      pz      :     0.099980  p :     0.349731
      px      :     0.171733
      py      :     0.078018
      dz2     :     0.008069  d :     0.097943
      dxz     :     0.034625
      dyz     :     0.000247
      dx2y2   :     0.025457
      dxy     :     0.029546
 35 H s       :     0.843375  s :     0.843375
      pz      :     0.043548  p :     0.156710
      px      :     0.078183
      py      :     0.034980
      dz2     :     0.002973  d :     0.028204
      dxz     :     0.008768
      dyz     :     0.000505
      dx2y2   :     0.007351
      dxy     :     0.008607


                      *****************************
                      * MAYER POPULATION ANALYSIS *
                      *****************************

  NA   - Mulliken gross atomic population
  ZA   - Total nuclear charge
  QA   - Mulliken gross atomic charge
  VA   - Mayer's total valence
  BVA  - Mayer's bonded valence
  FA   - Mayer's free valence

  ATOM       NA         ZA         QA         VA         BVA        FA
  0 C      6.2924     6.0000    -0.2924     3.8693     3.8693    -0.0000
  1 C      5.9678     6.0000     0.0322     3.7957     3.7957    -0.0000
  2 O      8.3238     8.0000    -0.3238     2.0872     2.0872    -0.0000
  3 C      5.5871     6.0000     0.4129     4.2451     4.2451    -0.0000
  4 O      8.4560     8.0000    -0.4560     2.0541     2.0541     0.0000
  5 C      6.1469     6.0000    -0.1469     3.5432     3.5432     0.0000
  6 C      5.8593     6.0000     0.1407     3.8403     3.8403     0.0000
  7 C      6.3000     6.0000    -0.3000     3.8748     3.8748     0.0000
  8 N      7.1369     7.0000    -0.1369     3.2790     3.2790    -0.0000
  9 C      5.7942     6.0000     0.2058     4.1646     4.1646    -0.0000
 10 S     16.4566    16.0000    -0.4566     1.7450     1.7450    -0.0000
 11 N      7.1783     7.0000    -0.1783     3.2642     3.2642    -0.0000
 12 C      5.9376     6.0000     0.0624     3.9909     3.9909     0.0000
 13 C      6.0731     6.0000    -0.0731     3.7719     3.7719     0.0000
 14 C      6.1761     6.0000    -0.1761     3.8566     3.8566    -0.0000
 15 C      6.1457     6.0000    -0.1457     3.8153     3.8153    -0.0000
 16 C      6.2010     6.0000    -0.2010     3.8346     3.8346     0.0000
 17 C      5.7331     6.0000     0.2669     3.8954     3.8954     0.0000
 18 O      8.3865     8.0000    -0.3865     2.0843     2.0843    -0.0000
 19 C      6.1592     6.0000    -0.1592     3.8185     3.8185     0.0000
 20 H      0.8931     1.0000     0.1069     0.9808     0.9808     0.0000
 21 H      0.9034     1.0000     0.0966     0.9875     0.9875     0.0000
 22 H      0.8943     1.0000     0.1057     0.9863     0.9863    -0.0000
 23 H      0.8905     1.0000     0.1095     0.9785     0.9785     0.0000
 24 H      0.8696     1.0000     0.1304     0.9886     0.9886    -0.0000
 25 H      0.8634     1.0000     0.1366     0.9876     0.9876     0.0000
 26 H      0.8839     1.0000     0.1161     0.9727     0.9727     0.0000
 27 H      0.8819     1.0000     0.1181     0.9870     0.9870     0.0000
 28 H      0.8003     1.0000     0.1997     1.0177     1.0177     0.0000
 29 H      0.8034     1.0000     0.1966     1.0206     1.0206    -0.0000
 30 H      0.8598     1.0000     0.1402     0.9923     0.9923     0.0000
 31 H      0.8467     1.0000     0.1533     0.9834     0.9834    -0.0000
 32 H      0.8311     1.0000     0.1689     0.9734     0.9734    -0.0000
 33 H      0.8394     1.0000     0.1606     0.9845     0.9845     0.0000
 34 H      0.7525     1.0000     0.2475     1.0085     1.0085    -0.0000
 35 H      0.8749     1.0000     0.1251     0.9981     0.9981     0.0000

  Mayer bond orders larger than 0.100000
B(  0-C ,  1-C ) :   0.9479 B(  0-C , 20-H ) :   0.9799 B(  0-C , 21-H ) :   0.9781 
B(  0-C , 22-H ) :   0.9795 B(  1-C ,  2-O ) :   0.8565 B(  1-C , 23-H ) :   0.9885 
B(  1-C , 24-H ) :   0.9755 B(  2-O ,  3-C ) :   1.2388 B(  3-C ,  4-O ) :   1.9721 
B(  3-C ,  5-C ) :   1.0130 B(  5-C ,  6-C ) :   1.6738 B(  5-C , 12-C ) :   0.9522 
B(  6-C ,  7-C ) :   0.9540 B(  6-C ,  8-N ) :   1.1169 B(  7-C , 25-H ) :   0.9621 
B(  7-C , 26-H ) :   0.9678 B(  7-C , 27-H ) :   0.9888 B(  8-N ,  9-C ) :   1.1932 
B(  8-N , 28-H ) :   0.9508 B(  9-C , 10-S ) :   1.6030 B(  9-C , 11-N ) :   1.3130 
B( 11-N , 12-C ) :   1.0241 B( 11-N , 29-H ) :   0.9373 B( 12-C , 13-C ) :   0.9528 
B( 12-C , 30-H ) :   1.0010 B( 13-C , 14-C ) :   1.3715 B( 13-C , 19-C ) :   1.3464 
B( 14-C , 15-C ) :   1.4048 B( 14-C , 31-H ) :   0.9671 B( 15-C , 16-C ) :   1.3733 
B( 15-C , 32-H ) :   0.9688 B( 16-C , 17-C ) :   1.3621 B( 16-C , 33-H ) :   0.9674 
B( 17-C , 18-O ) :   1.0802 B( 17-C , 19-C ) :   1.3728 B( 18-O , 34-H ) :   0.9731 
B( 19-C , 35-H ) :   0.9741 

-------
TIMINGS
-------

Total SCF time: 0 days 2 hours 29 min 10 sec 

Total time                  ....    8950.620 sec
Sum of individual times     ....    8934.215 sec  ( 99.8%)

Fock matrix formation       ....    8886.445 sec  ( 99.3%)
Diagonalization             ....       2.436 sec  (  0.0%)
Density matrix formation    ....       0.285 sec  (  0.0%)
Population analysis         ....       0.782 sec  (  0.0%)
Initial guess               ....      10.526 sec  (  0.1%)
Orbital Transformation      ....       0.000 sec  (  0.0%)
Orbital Orthonormalization  ....       0.000 sec  (  0.0%)
DIIS solution               ....      21.885 sec  (  0.2%)
SOSCF solution              ....       8.900 sec  (  0.1%)

Maximum memory used throughout the entire SCF-calculation: 717.5 MB

------------------------------------------------------------------------------
                                ORCA  MP2 
------------------------------------------------------------------------------

Freezing NCore=48 chemical core electrons

-------------
RI-MP2 ENERGY
-------------
Dimension of the basis                    ...  828
Memory devoted to MP2                     ...  256 MB   
Data format for buffers                   ... DOUBLE
Compression type for matrix containers    ... UNCOMPRESSED
Overall scaling of the MP2 energy         ...   1.000e+00
Calculating two index integrals           ... done (    0.095 sec)
Cholesky decomposition of V**-1           ... done (    0.778 sec)

-----------------
RI-TRANSFORMATION (AUX index driven)
-----------------

Dimension of the orbital-basis         ... 828
Dimension of the aux-basis             ... 2141
Transformation of internal/external MOs...   24-  76 to   77- 827
Number Format for Storage              ... Double (8 Byte)
Integral mode                          ... Direct

First Phase: integral generation and transformation of MO indices
  Aux angular momentum 0               ... done (   12.881 sec)
  Aux angular momentum 1               ... done (   25.183 sec)
  Aux angular momentum 2               ... done (   35.916 sec)
  Aux angular momentum 3               ... done (   27.039 sec)
  Aux angular momentum 4               ... done (    9.092 sec)
Closing buffer VIA ( 0.63 GB; CompressionRatio= 1.00)
  Phase 1 completed in   110.988 sec
Second Phase: sorting and transformation of aux index

IA-Transformation
Memory available                       ... 158 MB 
Max. # MO pairs treated in a batch     ... 11    
# of internal orbitals                 ... 53
# batches for internal orbitals        ... 5
Closing buffer IAV ( 0.63 GB; CompressionRatio= 1.00)
(ia|v) transformation done in   363.534 sec

  Phase 2 completed in   363.821 sec
RI-Integral transformation completed in   474.981 sec
Opening buffers                              ... done

Starting loop over batches of integrals:

Operator 0  - window                       ... ( 24- 76)x( 77-827)
Operator 0  - Memory available             ...   256 MB
Operator 0  - Memory needed per MO         ...  12.3 MB
Operator 0  - Number of orbitals per batch ... 13
Operator 0  - Number of batches            ... 5

OPERATOR  0   PASS   0:  MOs    24 ...   36
  Reading integrals       ... ok
  Internal MO  26
  Internal MO  29
  Internal MO  32
  Internal MO  35
OPERATOR  0   PASS   1:  MOs    37 ...   49
  Reading integrals       ... ok
  Internal MO  38
  Internal MO  41
  Internal MO  44
  Internal MO  47
OPERATOR  0   PASS   2:  MOs    50 ...   62
  Reading integrals       ... ok
  Internal MO  50
  Internal MO  53
  Internal MO  56
  Internal MO  59
  Internal MO  62
OPERATOR  0   PASS   3:  MOs    63 ...   75
  Reading integrals       ... ok
  Internal MO  65
  Internal MO  68
  Internal MO  71
  Internal MO  74
OPERATOR  0   PASS   4:  MOs    76 ...   76
  Reading integrals       ... ok
Time spent in pair loops =   441.138 sec
Deleting buffer (Ka|jb)[aa] ...done

-----------------------------------------------
 RI-MP2 CORRELATION ENERGY:     -3.527807327 Eh
-----------------------------------------------


-------
TIMINGS
-------

Total time                :  919.232 sec
Integral trafo            :  475.016 sec ( 51.7%)
I/O of integrals          :   21.342 sec (  2.3%)
K(i,j) Operators          :   84.444 sec (  9.2%)
T(i,j) pair energies      :   14.255 sec (  1.6%)
V-calculation             :    0.095 sec (  0.0%)
V**(-1/2)                 :    0.778 sec (  0.1%)
Gamma(ia|P)               :    0.000 sec (  0.0%)
Gamma-Trafo               :    0.000 sec (  0.0%)
D(virtual)                :    0.000 sec (  0.0%)
D(internal)               :    0.000 sec (  0.0%)
W(virtual)                :    0.000 sec (  0.0%)
W(internal)               :    0.000 sec (  0.0%)
L(virtual)                :    0.000 sec (  0.0%)
L(internal)               :    0.000 sec (  0.0%)
G(D)                      :    0.000 sec (  0.0%)
G(Z)                      :    0.000 sec (  0.0%)
Z-Vector Solution         :    0.000 sec (  0.0%)
3-Index Derivative        :    0.000 sec (  0.0%)
2-Index Derivative        :    0.000 sec (  0.0%)
Separable Gradient        :    0.000 sec (  0.0%)


---------------------------------------
MP2 TOTAL ENERGY:    -1274.305398425 Eh
---------------------------------------

Maximum memory used throughout the entire MP2-calculation: 302.9 MB

-------------------------   --------------------
FINAL SINGLE POINT ENERGY     -1274.305398425404
-------------------------   --------------------


                            ***************************************
                            *     ORCA property calculations      *
                            ***************************************


  WARNING: The energy has been calculated at the MP2 level but the densities
           used in the property calculations are still SCF densities
           MP2 response densities have not been calculated 
           use %mp2 Density relaxed end
           or  %mp2 Density unrelaxed end

                                    ---------------------
                                    Active property flags
                                    ---------------------
   (+) Dipole Moment


------------------------------------------------------------------------------
                       ORCA ELECTRIC PROPERTIES CALCULATION
------------------------------------------------------------------------------

Dipole Moment Calculation                       ... on
Quadrupole Moment Calculation                   ... off
Polarizability Calculation                      ... off
GBWName                                         ... qm_input.vacu.gbw
Electron density file                           ... qm_input.vacu.scfp
The origin for moment calculation is the CENTER OF MASS  = (14.049016, 18.947059 -20.837229)

-------------
DIPOLE MOMENT
-------------
                                X             Y             Z
Electronic contribution:      2.90209       9.61985     -14.15845
Nuclear contribution   :     -3.39039     -10.65533      16.23065
                        -----------------------------------------
Total Dipole Moment    :     -0.48830      -1.03548       2.07219
                        -----------------------------------------
Magnitude (a.u.)       :      2.36741
Magnitude (Debye)      :      6.01748



--------------------
Rotational spectrum 
--------------------
 
Rotational constants in cm-1:     0.010511     0.008877     0.005382 
Rotational constants in MHz :   315.115479   266.112479   161.352609 

 Dipole components along the rotational axes: 
x,y,z [a.u.] :    -0.715377     2.221734     0.395936 
x,y,z [Debye]:    -1.818345     5.647198     1.006389 

 

Timings for individual modules:

Sum of individual times         ...     9879.942 sec (= 164.666 min)
GTO integral calculation        ...        5.980 sec (=   0.100 min)   0.1 %
SCF iterations                  ...     8951.449 sec (= 149.191 min)  90.6 %
MP2 module                      ...      922.513 sec (=  15.375 min)   9.3 %
                             ****ORCA TERMINATED NORMALLY****
TOTAL RUN TIME: 0 days 2 hours 44 minutes 50 seconds 677 msec
