
                                 *****************
                                 * O   R   C   A *
                                 *****************

           --- An Ab Initio, DFT and Semiempirical electronic structure package ---

                  #######################################################
                  #                        -***-                        #
                  #          Department of theory and spectroscopy      #
                  #               Directorship: Frank Neese             #
                  #        Max Planck Institute fuer Kohlenforschung    #
                  #                Kaiser Wilhelm Platz 1               #
                  #                 D-45470 Muelheim/Ruhr               #
                  #                      Germany                        #
                  #                                                     #
                  #                  All rights reserved                #
                  #                        -***-                        #
                  #######################################################


                         Program Version 4.2.0 -  RELEASE  -


 With contributions from (in alphabetic order):
   Daniel Aravena         : Magnetic Suceptibility
   Michael Atanasov       : Ab Initio Ligand Field Theory (pilot matlab implementation)
   Alexander A. Auer      : GIAO ZORA, VPT2
   Ute Becker             : Parallelization
   Giovanni Bistoni       : ED, misc. LED, open-shell LED, HFLED
   Martin Brehm           : Molecular dynamics
   Dmytro Bykov           : SCF Hessian
   Vijay G. Chilkuri      : MRCI spin determinant printing, contributions to CSF-ICE
   Dipayan Datta          : RHF DLPNO-CCSD density
   Achintya Kumar Dutta   : EOM-CC, STEOM-CC
   Dmitry Ganyushin       : Spin-Orbit,Spin-Spin,Magnetic field MRCI
   Miquel Garcia          : C-PCM Hessian, Gaussian charge scheme
   Yang Guo               : DLPNO-NEVPT2, CIM, IAO-localization
   Andreas Hansen         : Spin unrestricted coupled pair/coupled cluster methods
   Benjamin Helmich-Paris : CASSCF linear response (MC-RPA)
   Lee Huntington         : MR-EOM, pCC
   Robert Izsak           : Overlap fitted RIJCOSX, COSX-SCS-MP3, EOM
   Christian Kollmar      : KDIIS, OOCD, Brueckner-CCSD(T), CCSD density
   Simone Kossmann        : Meta GGA functionals, TD-DFT gradient, OOMP2, MP2 Hessian
   Martin Krupicka        : AUTO-CI
   Lucas Lang             : DCDCAS
   Dagmar Lenk            : GEPOL surface, SMD
   Dimitrios Liakos       : Extrapolation schemes; Compound Job, initial MDCI parallelization
   Dimitrios Manganas     : Further ROCIS development; embedding schemes
   Dimitrios Pantazis     : SARC Basis sets
   Taras Petrenko         : DFT Hessian,TD-DFT gradient, ASA, ECA, R-Raman, ABS, FL, XAS/XES, NRVS
   Peter Pinski           : DLPNO-MP2, DLPNO-MP2 Gradient
   Christoph Reimann      : Effective Core Potentials
   Marius Retegan         : Local ZFS, SOC
   Christoph Riplinger    : Optimizer, TS searches, QM/MM, DLPNO-CCSD(T), (RO)-DLPNO pert. Triples
   Tobias Risthaus        : Range-separated hybrids, TD-DFT gradient, RPA, STAB
   Michael Roemelt        : Original ROCIS implementation
   Masaaki Saitow         : Open-shell DLPNO-CCSD energy and density
   Barbara Sandhoefer     : DKH picture change effects
   Avijit Sen             : IP-ROCIS
   Kantharuban Sivalingam : CASSCF convergence, NEVPT2, FIC-MRCI
   Bernardo de Souza      : ESD, SOC TD-DFT
   Georgi Stoychev        : AutoAux, RI-MP2 NMR
   Willem Van den Heuvel  : Paramagnetic NMR
   Boris Wezisla          : Elementary symmetry handling
   Frank Wennmohs         : Technical directorship


 We gratefully acknowledge several colleagues who have allowed us to
 interface, adapt or use parts of their codes:
   Stefan Grimme, W. Hujo, H. Kruse,             : VdW corrections, initial TS optimization,
                  C. Bannwarth                     DFT functionals, gCP, sTDA/sTD-DF
   Ed Valeev, F. Pavosevic, A. Kumar             : LibInt (2-el integral package), F12 methods
   Garnet Chan, S. Sharma, J. Yang, R. Olivares  : DMRG
   Ulf Ekstrom                                   : XCFun DFT Library
   Mihaly Kallay                                 : mrcc  (arbitrary order and MRCC methods)
   Andreas Klamt, Michael Diedenhofen            : otool_cosmo (COSMO solvation model)
   Jiri Pittner, Ondrej Demel                    : Mk-CCSD
   Frank Weinhold                                : gennbo (NPA and NBO analysis)
   Christopher J. Cramer and Donald G. Truhlar   : smd solvation model
   Lars Goerigk                                  : TD-DFT with DH, B97 family of functionals
   V. Asgeirsson, H. Jonsson                     : NEB implementation
   FAccTs GmbH                                   : IRC, NEB, NEB-TS, Multilevel, MM, QM/MM, CI optimization
   S Lehtola, MJT Oliveira, MAL Marques          : LibXC Library


 Your calculation uses the libint2 library for the computation of 2-el integrals
 For citations please refer to: http://libint.valeyev.net

 Your ORCA version has been built with support for libXC version: 4.2.3
 For citations please refer to: https://tddft.org/programs/libxc/

 This ORCA versions uses:
   CBLAS   interface :  Fast vector & matrix operations
   LAPACKE interface :  Fast linear algebra routines
   SCALAPACK package :  Parallel linear algebra routines


----- Orbital basis set information -----
Your calculation utilizes the basis: cc-pVTZ 
       H, B-Ne : Obtained from the ccRepo (grant-hill.group.shef.ac.uk/ccrepo) Feb. 2017
                 T. H. Dunning, Jr., J. Chem. Phys. 90, 1007 (1989)
            He : Obtained from the ccRepo (grant-hill.group.shef.ac.uk/ccrepo) Feb. 2017
                 D. E. Woon, T. H. Dunning, Jr., J. Chem. Phys. 100, 2975 (1994)
  Li-Be, Na-Mg : Obtained from the ccRepo (grant-hill.group.shef.ac.uk/ccrepo) Feb. 2017
                 B. P. Prascher, D. E. Woon, K. A. Peterson, T. H. Dunning, Jr., A. K. Wilson, Theor. Chem. Acc. 128, 69 (2011)
         Al-Ar : Obtained from the ccRepo (grant-hill.group.shef.ac.uk/ccrepo) Feb. 2017
                 D. E. Woon, T. H. Dunning, Jr., J. Chem. Phys. 98, 1358 (1993)
            Ca : Obtained from the Peterson Research Group Website (tyr0.chem.wsu.edu/~kipeters) Feb. 2017
                 J. Koput, K. A. Peterson, J. Phys. Chem. 106, 9595 (2002)
         Sc-Zn : Obtained from the ccRepo (grant-hill.group.shef.ac.uk/ccrepo) Feb. 2017
                 N. B. Balabanov, K. A. Peterson, J. Chem. Phys. 123, 064107 (2005)
                 N. B. Balabanov, K. A. Peterson, J. Chem. Phys. 125, 074110 (2006)
         Ga-Kr : Obtained from the ccRepo (grant-hill.group.shef.ac.uk/ccrepo) Feb. 2017
                 A. K. Wilson, D. E. Woon, K. A. Peterson, T. H. Dunning, Jr., J. Chem. Phys. 110, 7667 (1999)
             Y : Obtained from the ccRepo (grant-hill.group.shef.ac.uk/ccrepo) Feb. 2017
                 K. A. Peterson, D. Figgen, M. Dolg, H. Stoll, J. Chem. Phys. 126, 124101 (2007)
        Ag, Au : Obtained from the Peterson Research Group Website (tyr0.chem.wsu.edu/~kipeters) Feb. 2017
                 K. A. Peterson, C. Puzzarini, Theor. Chem. Acc. 114, 283 (2005)

----- AuxC basis set information -----
Your calculation utilizes the auxiliary basis: cc-pVTZ/C 
  Obtained from the EMSL Basis Set Exchange (bse.pnl.gov) Feb. 2017
  H-He, B-F, Al-Ar, Ga-Kr : F. Weigend, A. Kohn, C. Hattig, J. Chem. Phys. 116, 3175 (2002)
             Li-Be, Na-Mg : C. Haettig, Phys. Chem. Chem. Phys. 7, 59 (2005)
                       Ne : C. Haettig, Phys. Chem. Chem. Phys. 7, 59 (2005)
                            F. Weigend, A. Kohn, C. Hattig, J. Chem. Phys. 116, 3175 (2002)
                    Sc-Zn : J. G. Hill, J. A. Platts, J. Chem. Phys. 128, 044104 (2008)

================================================================================
                                        WARNINGS
                       Please study these warnings very carefully!
================================================================================


WARNING: No MP2 level density has been requested!
         To caclulate MP2 level properties use
         %mp2 Density relaxed end
         or
         %mp2 Density unrelaxed end

WARNING: Post HF methods need fully converged wavefunctions
  ===> : Setting SCFConvForced true
         You can overwrite this default with %scf ConvForced false 


INFO   : the flag for use of LIBINT has been found!

================================================================================
                                       INPUT FILE
================================================================================
NAME = CONFS/Conf105.orca
|  1> ! ri-mp2 cc-pvtz cc-pvtz/c TightSCF  NoKeepInts
|  2> 
|  3> %scf
|  4>   MaxCore 4096
|  5> end
|  6> *xyz  0  1
|  7>     C       14.6425834   14.2991611   16.3400539
|  8>     C       15.5723032   15.4302719   16.8075452
|  9>     O       16.7682724   15.3558471   16.0087792
| 10>     C       17.9777259   15.6133791   16.5907343
| 11>     O       18.8147119   14.7344956   16.6850566
| 12>     C       18.0336294   16.8575766   17.4230292
| 13>     C       17.5177165   18.0465563   17.0259620
| 14>     C       16.8632540   18.3713055   15.6990115
| 15>     N       17.6546929   19.1706436   17.8444938
| 16>     C       18.4029257   19.2143963   18.9920020
| 17>     S       18.5906396   20.6127673   19.8540893
| 18>     N       18.9860608   18.0372140   19.3912615
| 19>     C       18.7596231   16.7211247   18.7623179
| 20>     C       17.9838222   15.7937635   19.6934573
| 21>     C       18.4033733   14.4640654   19.8804813
| 22>     C       17.6793955   13.5943825   20.7128550
| 23>     C       16.5228537   14.0563356   21.3635089
| 24>     C       16.0978546   15.3782282   21.1759421
| 25>     O       14.9737031   15.8240426   21.7906578
| 26>     C       16.8198523   16.2416216   20.3459020
| 27>     H       15.1326049   13.3244845   16.4602513
| 28>     H       14.3798930   14.4254457   15.2823921
| 29>     H       13.7165494   14.2925552   16.9276475
| 30>     H       15.0780378   16.4025606   16.6978685
| 31>     H       15.8033411   15.2690720   17.8693636
| 32>     H       17.1294405   17.6461005   14.9202021
| 33>     H       17.1840269   19.3527328   15.3272554
| 34>     H       15.7707821   18.3889363   15.7869170
| 35>     H       17.2442437   20.0472746   17.5631585
| 36>     H       19.5146340   18.0937130   20.2527118
| 37>     H       19.7436897   16.2695994   18.5674216
| 38>     H       19.2867681   14.0975252   19.3618037
| 39>     H       18.0127884   12.5662608   20.8441602
| 40>     H       15.9593419   13.3863805   22.0045765
| 41>     H       14.6550715   15.1117266   22.3657419
| 42>     H       16.4707936   17.2604538   20.2153874
| 43> *
| 44> 
| 45>                          ****END OF INPUT****
================================================================================

                       ****************************
                       * Single Point Calculation *
                       ****************************

---------------------------------
CARTESIAN COORDINATES (ANGSTROEM)
---------------------------------
  C     14.642583   14.299161   16.340054
  C     15.572303   15.430272   16.807545
  O     16.768272   15.355847   16.008779
  C     17.977726   15.613379   16.590734
  O     18.814712   14.734496   16.685057
  C     18.033629   16.857577   17.423029
  C     17.517716   18.046556   17.025962
  C     16.863254   18.371305   15.699011
  N     17.654693   19.170644   17.844494
  C     18.402926   19.214396   18.992002
  S     18.590640   20.612767   19.854089
  N     18.986061   18.037214   19.391261
  C     18.759623   16.721125   18.762318
  C     17.983822   15.793764   19.693457
  C     18.403373   14.464065   19.880481
  C     17.679395   13.594383   20.712855
  C     16.522854   14.056336   21.363509
  C     16.097855   15.378228   21.175942
  O     14.973703   15.824043   21.790658
  C     16.819852   16.241622   20.345902
  H     15.132605   13.324485   16.460251
  H     14.379893   14.425446   15.282392
  H     13.716549   14.292555   16.927647
  H     15.078038   16.402561   16.697868
  H     15.803341   15.269072   17.869364
  H     17.129441   17.646100   14.920202
  H     17.184027   19.352733   15.327255
  H     15.770782   18.388936   15.786917
  H     17.244244   20.047275   17.563159
  H     19.514634   18.093713   20.252712
  H     19.743690   16.269599   18.567422
  H     19.286768   14.097525   19.361804
  H     18.012788   12.566261   20.844160
  H     15.959342   13.386380   22.004576
  H     14.655072   15.111727   22.365742
  H     16.470794   17.260454   20.215387

----------------------------
CARTESIAN COORDINATES (A.U.)
----------------------------
  NO LB      ZA    FRAG     MASS         X           Y           Z
   0 C     6.0000    0    12.011   27.670473   27.021498   30.878227
   1 C     6.0000    0    12.011   29.427388   29.158988   31.761657
   2 O     8.0000    0    15.999   31.687443   29.018346   30.252208
   3 C     6.0000    0    12.011   33.972978   29.505011   31.351944
   4 O     8.0000    0    15.999   35.554653   27.844161   31.530188
   5 C     6.0000    0    12.011   34.078621   31.856203   32.924754
   6 C     6.0000    0    12.011   33.103687   34.103049   32.174405
   7 C     6.0000    0    12.011   31.866932   34.716736   29.666832
   8 N     7.0000    0    14.007   33.362535   36.227266   33.721206
   9 C     6.0000    0    12.011   34.776490   36.309947   35.889683
  10 S    16.0000    0    32.060   35.131217   38.952485   37.518791
  11 N     7.0000    0    14.007   35.878455   34.085395   36.644174
  12 C     6.0000    0    12.011   35.450550   31.598346   35.455642
  13 C     6.0000    0    12.011   33.984499   29.845888   37.215241
  14 C     6.0000    0    12.011   34.777335   27.333122   37.568665
  15 C     6.0000    0    12.011   33.409216   25.689660   39.141623
  16 C     6.0000    0    12.011   31.223668   26.562625   40.371181
  17 C     6.0000    0    12.011   30.420537   29.060640   40.016731
  18 O     8.0000    0    15.999   28.296198   29.903107   41.178376
  19 C     6.0000    0    12.011   31.784914   30.692217   38.448183
  20 H     1.0000    0     1.008   28.596479   25.179627   31.105367
  21 H     1.0000    0     1.008   27.174060   27.260142   28.879536
  22 H     1.0000    0     1.008   25.920522   27.009015   31.988618
  23 H     1.0000    0     1.008   28.493362   30.996347   31.554398
  24 H     1.0000    0     1.008   29.863987   28.854364   33.768203
  25 H     1.0000    0     1.008   32.369951   33.346297   28.195096
  26 H     1.0000    0     1.008   32.473105   36.571365   28.964315
  27 H     1.0000    0     1.008   29.802459   34.750054   29.832950
  28 H     1.0000    0     1.008   32.586898   37.883859   33.189560
  29 H     1.0000    0     1.008   36.877314   34.192162   38.272079
  30 H     1.0000    0     1.008   37.310166   30.745087   35.087342
  31 H     1.0000    0     1.008   36.446710   26.640462   36.588506
  32 H     1.0000    0     1.008   34.039237   23.746791   39.389754
  33 H     1.0000    0     1.008   30.158785   25.296593   41.582623
  34 H     1.0000    0     1.008   27.694072   28.557025   42.265127
  35 H     1.0000    0     1.008   31.125289   32.617531   38.201546

--------------------------------
INTERNAL COORDINATES (ANGSTROEM)
--------------------------------
 C      0   0   0     0.000000000000     0.00000000     0.00000000
 C      1   0   0     1.536990131382     0.00000000     0.00000000
 O      2   1   0     1.440107114405   107.19426088     0.00000000
 C      3   2   1     1.366664639955   119.27601913   217.74162618
 O      4   3   2     1.217324306438   120.35892592   115.00755251
 C      4   3   2     1.497954412152   115.22275774   312.04723904
 C      6   4   3     1.355544617014   123.47546666   314.75700223
 C      7   6   4     1.514787389787   127.52275422   357.14832505
 N      7   6   4     1.397257707007   119.78416886   182.26351705
 C      9   7   6     1.370599026273   124.72650315     7.00695115
 S     10   9   7     1.653442613070   121.70181276   176.06023534
 N     10   9   7     1.373030538854   116.61168410   355.90279103
 C     12  10   9     1.476121651334   125.12501497   353.57513163
 C     13  12  10     1.526068941411   111.08841174   248.83732284
 C     14  13  12     1.406804229177   120.25696152   226.08054905
 C     15  14  13     1.404755558059   120.67979691   181.38714073
 C     16  15  14     1.405112130519   119.67291503     0.11888540
 C     17  16  15     1.401144384208   119.85755336     0.14948078
 O     18  17  16     1.356592225404   120.04843060   179.28025541
 C     18  17  16     1.398461801258   120.35277426   359.90077707
 H      1   2   3     1.097525835694   110.49757911    59.10569749
 H      1   2   3     1.097088205036   110.69274053   299.08187237
 H      1   2   3     1.096744658447   110.62305267   178.95213577
 H      2   1   3     1.096208274147   110.46058303   121.53532701
 H      2   1   3     1.098554611103   108.25319748   240.52076804
 H      8   7   6     1.096960175364   112.04661904   340.48359902
 H      8   7   6     1.097404846193   111.23492692   221.71829070
 H      8   7   6     1.096144641153   111.33368551   101.58461573
 H      9   7   6     1.008017860441   119.75021434   182.03824713
 H     12  10   9     1.012263989347   114.92169897   181.35698546
 H     13  12  10     1.100112147706   107.71027876   130.42712021
 H     15  14  13     1.088009440963   119.81447240     0.23920431
 H     16  15  14     1.088772754678   119.88483114   179.67271698
 H     17  16  15     1.085059008776   119.87144062   179.79731055
 H     19  18  17     0.969351279180   107.44108639     4.66572664
 H     20  18  17     1.084847956451   119.01952624   179.94500528

---------------------------
INTERNAL COORDINATES (A.U.)
---------------------------
 C      0   0   0     0.000000000000     0.00000000     0.00000000
 C      1   0   0     2.904490418851     0.00000000     0.00000000
 O      2   1   0     2.721408049737   107.19426088     0.00000000
 C      3   2   1     2.582621886428   119.27601913   217.74162618
 O      4   3   2     2.300409555334   120.35892592   115.00755251
 C      4   3   2     2.830723600066   115.22275774   312.04723904
 C      6   4   3     2.561608088467   123.47546666   314.75700223
 C      7   6   4     2.862533317814   127.52275422   357.14832505
 N      7   6   4     2.640434404753   119.78416886   182.26351705
 C      9   7   6     2.590056799075   124.72650315     7.00695115
 S     10   9   7     3.124553716857   121.70181276   176.06023534
 N     10   9   7     2.594651691944   116.61168410   355.90279103
 C     12  10   9     2.789465661373   125.12501497   353.57513163
 C     13  12  10     2.883852360749   111.08841174   248.83732284
 C     14  13  12     2.658474717187   120.25696152   226.08054905
 C     15  14  13     2.654603289835   120.67979691   181.38714073
 C     16  15  14     2.655277114132   119.67291503     0.11888540
 C     17  16  15     2.647779160235   119.85755336     0.14948078
 O     18  17  16     2.563587781420   120.04843060   179.28025541
 C     18  17  16     2.642709813127   120.35277426   359.90077707
 H      1   2   3     2.074023254365   110.49757911    59.10569749
 H      1   2   3     2.073196252273   110.69274053   299.08187237
 H      1   2   3     2.072547043306   110.62305267   178.95213577
 H      2   1   3     2.071533423876   110.46058303   121.53532701
 H      2   1   3     2.075967358140   108.25319748   240.52076804
 H      8   7   6     2.072954311257   112.04661904   340.48359902
 H      8   7   6     2.073794617342   111.23492692   221.71829070
 H      8   7   6     2.071413174945   111.33368551   101.58461573
 H      9   7   6     1.904877694334   119.75021434   182.03824713
 H     12  10   9     1.912901715097   114.92169897   181.35698546
 H     13  12  10     2.078910675763   107.71027876   130.42712021
 H     15  14  13     2.056039874541   119.81447240     0.23920431
 H     16  15  14     2.057482328416   119.88483114   179.67271698
 H     17  16  15     2.050464365730   119.87144062   179.79731055
 H     19  18  17     1.831808445216   107.44108639     4.66572664
 H     20  18  17     2.050065534636   119.01952624   179.94500528

---------------------
BASIS SET INFORMATION
---------------------
There are 5 groups of distinct atoms

 Group   1 Type C   : 18s5p2d1f contracted to 4s3p2d1f pattern {8811/311/11/1}
 Group   2 Type O   : 18s5p2d1f contracted to 4s3p2d1f pattern {8811/311/11/1}
 Group   3 Type N   : 18s5p2d1f contracted to 4s3p2d1f pattern {8811/311/11/1}
 Group   4 Type S   : 41s16p2d1f contracted to 5s4p2d1f pattern {13131311/7711/11/1}
 Group   5 Type H   : 5s2p1d contracted to 3s2p1d pattern {311/11/1}

Atom   0C    basis set group =>   1
Atom   1C    basis set group =>   1
Atom   2O    basis set group =>   2
Atom   3C    basis set group =>   1
Atom   4O    basis set group =>   2
Atom   5C    basis set group =>   1
Atom   6C    basis set group =>   1
Atom   7C    basis set group =>   1
Atom   8N    basis set group =>   3
Atom   9C    basis set group =>   1
Atom  10S    basis set group =>   4
Atom  11N    basis set group =>   3
Atom  12C    basis set group =>   1
Atom  13C    basis set group =>   1
Atom  14C    basis set group =>   1
Atom  15C    basis set group =>   1
Atom  16C    basis set group =>   1
Atom  17C    basis set group =>   1
Atom  18O    basis set group =>   2
Atom  19C    basis set group =>   1
Atom  20H    basis set group =>   5
Atom  21H    basis set group =>   5
Atom  22H    basis set group =>   5
Atom  23H    basis set group =>   5
Atom  24H    basis set group =>   5
Atom  25H    basis set group =>   5
Atom  26H    basis set group =>   5
Atom  27H    basis set group =>   5
Atom  28H    basis set group =>   5
Atom  29H    basis set group =>   5
Atom  30H    basis set group =>   5
Atom  31H    basis set group =>   5
Atom  32H    basis set group =>   5
Atom  33H    basis set group =>   5
Atom  34H    basis set group =>   5
Atom  35H    basis set group =>   5
---------------------------------
AUXILIARY/C BASIS SET INFORMATION
---------------------------------
There are 5 groups of distinct atoms

 Group   1 Type C   : 8s6p5d3f1g contracted to 8s6p5d3f1g pattern {11111111/111111/11111/111/1}
 Group   2 Type O   : 8s6p5d3f1g contracted to 8s6p5d3f1g pattern {11111111/111111/11111/111/1}
 Group   3 Type N   : 8s6p5d3f1g contracted to 8s6p5d3f1g pattern {11111111/111111/11111/111/1}
 Group   4 Type S   : 10s8p7d5f2g contracted to 10s8p7d5f2g pattern {1111111111/11111111/1111111/11111/11}
 Group   5 Type H   : 4s3p2d1f contracted to 4s3p2d1f pattern {1111/111/11/1}

Atom   0C    basis set group =>   1
Atom   1C    basis set group =>   1
Atom   2O    basis set group =>   2
Atom   3C    basis set group =>   1
Atom   4O    basis set group =>   2
Atom   5C    basis set group =>   1
Atom   6C    basis set group =>   1
Atom   7C    basis set group =>   1
Atom   8N    basis set group =>   3
Atom   9C    basis set group =>   1
Atom  10S    basis set group =>   4
Atom  11N    basis set group =>   3
Atom  12C    basis set group =>   1
Atom  13C    basis set group =>   1
Atom  14C    basis set group =>   1
Atom  15C    basis set group =>   1
Atom  16C    basis set group =>   1
Atom  17C    basis set group =>   1
Atom  18O    basis set group =>   2
Atom  19C    basis set group =>   1
Atom  20H    basis set group =>   5
Atom  21H    basis set group =>   5
Atom  22H    basis set group =>   5
Atom  23H    basis set group =>   5
Atom  24H    basis set group =>   5
Atom  25H    basis set group =>   5
Atom  26H    basis set group =>   5
Atom  27H    basis set group =>   5
Atom  28H    basis set group =>   5
Atom  29H    basis set group =>   5
Atom  30H    basis set group =>   5
Atom  31H    basis set group =>   5
Atom  32H    basis set group =>   5
Atom  33H    basis set group =>   5
Atom  34H    basis set group =>   5
Atom  35H    basis set group =>   5
------------------------------------------------------------------------------
                           ORCA GTO INTEGRAL CALCULATION
------------------------------------------------------------------------------

                         BASIS SET STATISTICS AND STARTUP INFO

 # of primitive gaussian shells          ...  682
 # of primitive gaussian functions       ... 1312
 # of contracted shells                  ...  298
 # of contracted basis functions         ...  828
 Highest angular momentum                ...    3
 Maximum contraction depth               ...   13
 Integral package used                   ... LIBINT
 Integral threshhold            Thresh   ...  2.500e-11
 Primitive cut-off              TCut     ...  2.500e-12


------------------------------ INTEGRAL EVALUATION ----------------------------


 * One electron integrals 
 Pre-screening matrix                    ... done
 Shell pair data                         ... done (   0.015 sec)

-------------------------------------------------------------------------------
                                 ORCA SCF
-------------------------------------------------------------------------------

------------
SCF SETTINGS
------------
Hamiltonian:
 Ab initio Hamiltonian  Method          .... Hartree-Fock(GTOs)


General Settings:
 Integral files         IntName         .... CONFS/Conf105.orca
 Hartree-Fock type      HFTyp           .... RHF
 Total Charge           Charge          ....    0
 Multiplicity           Mult            ....    1
 Number of Electrons    NEL             ....  154
 Basis Dimension        Dim             ....  828
 Nuclear Repulsion      ENuc            ....   1721.8580159308 Eh

Convergence Acceleration:
 DIIS                   CNVDIIS         .... on
   Start iteration      DIISMaxIt       ....    12
   Startup error        DIISStart       ....  0.200000
   # of expansion vecs  DIISMaxEq       ....     5
   Bias factor          DIISBfac        ....   1.050
   Max. coefficient     DIISMaxC        ....  10.000
 Newton-Raphson         CNVNR           .... off
 SOSCF                  CNVSOSCF        .... on
   Start iteration      SOSCFMaxIt      ....   150
   Startup grad/error   SOSCFStart      ....  0.003300
 Level Shifting         CNVShift        .... on
   Level shift para.    LevelShift      ....    0.2500
   Turn off err/grad.   ShiftErr        ....    0.0010
 Zerner damping         CNVZerner       .... off
 Static damping         CNVDamp         .... on
   Fraction old density DampFac         ....    0.7000
   Max. Damping (<1)    DampMax         ....    0.9800
   Min. Damping (>=0)   DampMin         ....    0.0000
   Turn off err/grad.   DampErr         ....    0.1000
 Fernandez-Rico         CNVRico         .... off

SCF Procedure:
 Maximum # iterations   MaxIter         ....   125
 SCF integral mode      SCFMode         .... Direct
   Integral package                     .... LIBINT
 Reset frequency        DirectResetFreq ....    20
 Integral Threshold     Thresh          ....  2.500e-11 Eh
 Primitive CutOff       TCut            ....  2.500e-12 Eh

Convergence Tolerance:
 Convergence Check Mode ConvCheckMode   .... Total+1el-Energy
 Convergence forced     ConvForced      .... 1
 Energy Change          TolE            ....  1.000e-08 Eh
 1-El. energy change                    ....  1.000e-05 Eh
 Orbital Gradient       TolG            ....  1.000e-05
 Orbital Rotation angle TolX            ....  1.000e-05
 DIIS Error             TolErr          ....  5.000e-07


Diagonalization of the overlap matrix:
Smallest eigenvalue                        ... 3.307e-05
Time for diagonalization                   ...    0.146 sec
Threshold for overlap eigenvalues          ... 1.000e-08
Number of eigenvalues below threshold      ... 0
Time for construction of square roots      ...    0.077 sec
Total time needed                          ...    0.227 sec

-------------------
DFT GRID GENERATION
-------------------

General Integration Accuracy     IntAcc      ...  4.340
Radial Grid Type                 RadialGrid  ... Gauss-Chebyshev
Angular Grid (max. acc.)         AngularGrid ... Lebedev-110
Angular grid pruning method      GridPruning ... 3 (G Style)
Weight generation scheme         WeightScheme... Becke
Basis function cutoff            BFCut       ...    1.0000e-11
Integration weight cutoff        WCut        ...    1.0000e-14
Grids for H and He will be reduced by one unit

# of grid points (after initial pruning)     ...  46246 (   0.0 sec)
# of grid points (after weights+screening)   ...  41156 (   0.3 sec)
nearest neighbour list constructed           ...    0.0 sec
Grid point re-assignment to atoms done       ...    0.0 sec
Grid point division into batches done        ...    0.0 sec
Reduced shell lists constructed in    1.1 sec

Total number of grid points                  ...    41156
Total number of batches                      ...      660
Average number of points per batch           ...       62
Average number of grid points per atom       ...     1143
Average number of shells per batch           ...   152.97 (51.33%)
Average number of basis functions per batch  ...   389.40 (47.03%)
Average number of large shells per batch     ...    98.34 (64.29%)
Average number of large basis fcns per batch ...   251.61 (64.62%)
Maximum spatial batch extension              ...  22.44, 20.24, 19.69 au
Average spatial batch extension              ...   3.60,  3.38,  3.42 au

Time for grid setup =    1.449 sec

------------------------------
INITIAL GUESS: MODEL POTENTIAL
------------------------------
Loading Hartree-Fock densities                     ... done
Calculating cut-offs                               ... done
Setting up the integral package                    ... done
Initializing the effective Hamiltonian             ... done
Starting the Coulomb interaction                   ... done (   3.3 sec)
Reading the grid                                   ... done
Mapping shells                                     ... done
Starting the XC term evaluation                    ... done (   1.4 sec)
Transforming the Hamiltonian                       ... done (   0.1 sec)
Diagonalizing the Hamiltonian                      ... done (   0.1 sec)
Back transforming the eigenvectors                 ... done (   0.0 sec)
Now organizing SCF variables                       ... done
                      ------------------
                      INITIAL GUESS DONE (   6.8 sec)
                      ------------------
--------------
SCF ITERATIONS
--------------
ITER       Energy         Delta-E        Max-DP      RMS-DP      [F,P]     Damp
               ***  Starting incremental Fock matrix formation  ***
  0  -1270.0007534912   0.000000000000 0.04929848  0.00044752  0.3149320 0.7000
  1  -1270.2682599641  -0.267506472891 0.03607695  0.00036417  0.1861653 0.7000
                               ***Turning on DIIS***
  2  -1270.4349436529  -0.166683688801 0.02584018  0.00024279  0.1098194 0.7000
  3  -1272.5538657714  -2.118922118469 0.06316040  0.00051672  0.0829337 0.0000
  4  -1270.7453395905   1.808526180918 0.01371971  0.00010419  0.0068282 0.0000
  5  -1270.8031822515  -0.057842660987 0.00681863  0.00005521  0.0037062 0.0000
                      *** Initiating the SOSCF procedure ***
                           *** Shutting down DIIS ***
                      *** Re-Reading the Fockian *** 
                      *** Removing any level shift *** 
ITER      Energy       Delta-E        Grad      Rot      Max-DP    RMS-DP
  6  -1270.78218843   0.0209938259  0.001838  0.001838  0.003382  0.000028
               *** Restarting incremental Fock matrix formation ***
  7  -1270.79721394  -0.0150255190  0.001061  0.002694  0.001884  0.000018
  8  -1270.79726649  -0.0000525411  0.000484  0.003256  0.002225  0.000021
  9  -1270.79728740  -0.0000209139  0.000186  0.000373  0.000390  0.000005
 10  -1270.79729016  -0.0000027610  0.000055  0.000149  0.000130  0.000002
 11  -1270.79729043  -0.0000002713  0.000023  0.000136  0.000106  0.000001
 12  -1270.79729051  -0.0000000758  0.000011  0.000040  0.000029  0.000000
 13  -1270.79729051  -0.0000000071  0.000004  0.000008  0.000006  0.000000
                  ***Gradient check signals convergence***
              ***Rediagonalizing the Fockian in SOSCF/NRSCF***

               *****************************************************
               *                     SUCCESS                       *
               *           SCF CONVERGED AFTER  14 CYCLES          *
               *****************************************************


----------------
TOTAL SCF ENERGY
----------------

Total Energy       :        -1270.79729051 Eh          -34580.15230 eV

Components:
Nuclear Repulsion  :         1721.85801593 Eh           46854.13863 eV
Electronic Energy  :        -2992.65530644 Eh          -81434.29093 eV
One Electron Energy:        -5164.47880453 Eh         -140532.61281 eV
Two Electron Energy:         2171.82349809 Eh           59098.32188 eV

Virial components:
Potential Energy   :        -2539.81210781 Eh          -69111.80103 eV
Kinetic Energy     :         1269.01481730 Eh           34531.64873 eV
Virial Ratio       :            2.00140461


---------------
SCF CONVERGENCE
---------------

  Last Energy change         ...    2.2856e-09  Tolerance :   1.0000e-08
  Last MAX-Density change    ...    4.1630e-06  Tolerance :   1.0000e-07
  Last RMS-Density change    ...    4.1104e-08  Tolerance :   5.0000e-09
  Last Orbital Gradient      ...    1.2343e-06  Tolerance :   1.0000e-05
  Last Orbital Rotation      ...    4.1707e-06  Tolerance :   1.0000e-05

             **** THE GBW FILE WAS UPDATED (CONFS/Conf105.orca.gbw) ****
             **** DENSITY FILE WAS UPDATED (CONFS/Conf105.orca.scfp) ****
             **** ENERGY FILE WAS UPDATED (CONFS/Conf105.orca.en.tmp) ****
             **** THE GBW FILE WAS UPDATED (CONFS/Conf105.orca.gbw) ****
             **** DENSITY FILE WAS UPDATED (CONFS/Conf105.orca.scfp) ****
----------------
ORBITAL ENERGIES
----------------

  NO   OCC          E(Eh)            E(eV) 
   0   2.0000     -91.890943     -2500.4797 
   1   2.0000     -20.599016      -560.5277 
   2   2.0000     -20.590816      -560.3046 
   3   2.0000     -20.553992      -559.3026 
   4   2.0000     -15.629738      -425.3068 
   5   2.0000     -15.610958      -424.7958 
   6   2.0000     -11.395595      -310.0899 
   7   2.0000     -11.387006      -309.8562 
   8   2.0000     -11.335320      -308.4497 
   9   2.0000     -11.315739      -307.9169 
  10   2.0000     -11.311967      -307.8143 
  11   2.0000     -11.303031      -307.5711 
  12   2.0000     -11.265875      -306.5601 
  13   2.0000     -11.263604      -306.4982 
  14   2.0000     -11.261685      -306.4460 
  15   2.0000     -11.255674      -306.2825 
  16   2.0000     -11.245261      -305.9991 
  17   2.0000     -11.241233      -305.8895 
  18   2.0000     -11.238008      -305.8017 
  19   2.0000     -11.230499      -305.5974 
  20   2.0000      -8.896030      -242.0733 
  21   2.0000      -6.577610      -178.9859 
  22   2.0000      -6.575595      -178.9310 
  23   2.0000      -6.575011      -178.9151 
  24   2.0000      -1.449887       -39.4534 
  25   2.0000      -1.418851       -38.6089 
  26   2.0000      -1.360021       -37.0081 
  27   2.0000      -1.341866       -36.5140 
  28   2.0000      -1.240464       -33.7547 
  29   2.0000      -1.160165       -31.5697 
  30   2.0000      -1.124515       -30.5996 
  31   2.0000      -1.047694       -28.5092 
  32   2.0000      -1.037109       -28.2212 
  33   2.0000      -1.017678       -27.6924 
  34   2.0000      -1.004133       -27.3239 
  35   2.0000      -0.988711       -26.9042 
  36   2.0000      -0.927009       -25.2252 
  37   2.0000      -0.878172       -23.8963 
  38   2.0000      -0.855303       -23.2740 
  39   2.0000      -0.842993       -22.9390 
  40   2.0000      -0.836260       -22.7558 
  41   2.0000      -0.835143       -22.7254 
  42   2.0000      -0.756303       -20.5801 
  43   2.0000      -0.738211       -20.0877 
  44   2.0000      -0.731304       -19.8998 
  45   2.0000      -0.696865       -18.9627 
  46   2.0000      -0.688333       -18.7305 
  47   2.0000      -0.681365       -18.5409 
  48   2.0000      -0.676865       -18.4184 
  49   2.0000      -0.662947       -18.0397 
  50   2.0000      -0.653481       -17.7821 
  51   2.0000      -0.649549       -17.6751 
  52   2.0000      -0.641577       -17.4582 
  53   2.0000      -0.610572       -16.6145 
  54   2.0000      -0.607263       -16.5245 
  55   2.0000      -0.602995       -16.4083 
  56   2.0000      -0.598122       -16.2757 
  57   2.0000      -0.584611       -15.9081 
  58   2.0000      -0.577408       -15.7121 
  59   2.0000      -0.566450       -15.4139 
  60   2.0000      -0.562628       -15.3099 
  61   2.0000      -0.558495       -15.1974 
  62   2.0000      -0.545101       -14.8330 
  63   2.0000      -0.525182       -14.2909 
  64   2.0000      -0.515937       -14.0394 
  65   2.0000      -0.515463       -14.0265 
  66   2.0000      -0.502319       -13.6688 
  67   2.0000      -0.498339       -13.5605 
  68   2.0000      -0.489542       -13.3211 
  69   2.0000      -0.469673       -12.7804 
  70   2.0000      -0.458156       -12.4671 
  71   2.0000      -0.452386       -12.3101 
  72   2.0000      -0.358281        -9.7493 
  73   2.0000      -0.350992        -9.5510 
  74   2.0000      -0.330356        -8.9894 
  75   2.0000      -0.323451        -8.8016 
  76   2.0000      -0.319183        -8.6854 
  77   0.0000       0.075312         2.0494 
  78   0.0000       0.104531         2.8444 
  79   0.0000       0.116576         3.1722 
  80   0.0000       0.129814         3.5324 
  81   0.0000       0.134031         3.6472 
  82   0.0000       0.144398         3.9293 
  83   0.0000       0.149777         4.0756 
  84   0.0000       0.152538         4.1508 
  85   0.0000       0.159539         4.3413 
  86   0.0000       0.168263         4.5787 
  87   0.0000       0.174840         4.7576 
  88   0.0000       0.192980         5.2513 
  89   0.0000       0.194259         5.2860 
  90   0.0000       0.204120         5.5544 
  91   0.0000       0.207375         5.6430 
  92   0.0000       0.207874         5.6566 
  93   0.0000       0.215337         5.8596 
  94   0.0000       0.219242         5.9659 
  95   0.0000       0.233671         6.3585 
  96   0.0000       0.238743         6.4965 
  97   0.0000       0.243975         6.6389 
  98   0.0000       0.256472         6.9790 
  99   0.0000       0.274134         7.4596 
 100   0.0000       0.289553         7.8791 
 101   0.0000       0.302612         8.2345 
 102   0.0000       0.310828         8.4581 
 103   0.0000       0.316526         8.6131 
 104   0.0000       0.322378         8.7723 
 105   0.0000       0.329698         8.9715 
 106   0.0000       0.343618         9.3503 
 107   0.0000       0.348200         9.4750 
 108   0.0000       0.351553         9.5663 
 109   0.0000       0.357404         9.7255 
 110   0.0000       0.364729         9.9248 
 111   0.0000       0.372467        10.1353 
 112   0.0000       0.382859        10.4181 
 113   0.0000       0.385534        10.4909 
 114   0.0000       0.400652        10.9023 
 115   0.0000       0.405509        11.0345 
 116   0.0000       0.418489        11.3877 
 117   0.0000       0.425644        11.5824 
 118   0.0000       0.427005        11.6194 
 119   0.0000       0.438978        11.9452 
 120   0.0000       0.441156        12.0045 
 121   0.0000       0.449292        12.2259 
 122   0.0000       0.452352        12.3091 
 123   0.0000       0.456183        12.4134 
 124   0.0000       0.457866        12.4592 
 125   0.0000       0.465853        12.6765 
 126   0.0000       0.473812        12.8931 
 127   0.0000       0.484536        13.1849 
 128   0.0000       0.491616        13.3776 
 129   0.0000       0.497281        13.5317 
 130   0.0000       0.505581        13.7576 
 131   0.0000       0.507097        13.7988 
 132   0.0000       0.513354        13.9691 
 133   0.0000       0.517395        14.0790 
 134   0.0000       0.519569        14.1382 
 135   0.0000       0.525146        14.2899 
 136   0.0000       0.534375        14.5411 
 137   0.0000       0.537376        14.6227 
 138   0.0000       0.541529        14.7357 
 139   0.0000       0.557095        15.1593 
 140   0.0000       0.557599        15.1730 
 141   0.0000       0.560708        15.2576 
 142   0.0000       0.562164        15.2973 
 143   0.0000       0.571605        15.5541 
 144   0.0000       0.576609        15.6903 
 145   0.0000       0.582768        15.8579 
 146   0.0000       0.586107        15.9488 
 147   0.0000       0.590925        16.0799 
 148   0.0000       0.595421        16.2022 
 149   0.0000       0.599249        16.3064 
 150   0.0000       0.605597        16.4791 
 151   0.0000       0.609775        16.5928 
 152   0.0000       0.614874        16.7316 
 153   0.0000       0.616512        16.7761 
 154   0.0000       0.620309        16.8795 
 155   0.0000       0.625476        17.0201 
 156   0.0000       0.628415        17.1001 
 157   0.0000       0.629549        17.1309 
 158   0.0000       0.638941        17.3865 
 159   0.0000       0.640240        17.4218 
 160   0.0000       0.643592        17.5130 
 161   0.0000       0.649437        17.6721 
 162   0.0000       0.654582        17.8121 
 163   0.0000       0.659170        17.9369 
 164   0.0000       0.667161        18.1544 
 165   0.0000       0.673635        18.3305 
 166   0.0000       0.677164        18.4266 
 167   0.0000       0.681507        18.5448 
 168   0.0000       0.692122        18.8336 
 169   0.0000       0.696766        18.9600 
 170   0.0000       0.701377        19.0854 
 171   0.0000       0.705650        19.2017 
 172   0.0000       0.716617        19.5001 
 173   0.0000       0.721542        19.6342 
 174   0.0000       0.731010        19.8918 
 175   0.0000       0.734393        19.9838 
 176   0.0000       0.739622        20.1261 
 177   0.0000       0.750138        20.4123 
 178   0.0000       0.754567        20.5328 
 179   0.0000       0.757316        20.6076 
 180   0.0000       0.763760        20.7830 
 181   0.0000       0.775801        21.1106 
 182   0.0000       0.777604        21.1597 
 183   0.0000       0.788457        21.4550 
 184   0.0000       0.799938        21.7674 
 185   0.0000       0.804399        21.8888 
 186   0.0000       0.818598        22.2752 
 187   0.0000       0.823398        22.4058 
 188   0.0000       0.830630        22.6026 
 189   0.0000       0.838237        22.8096 
 190   0.0000       0.845605        23.0101 
 191   0.0000       0.854892        23.2628 
 192   0.0000       0.864654        23.5284 
 193   0.0000       0.871101        23.7039 
 194   0.0000       0.875688        23.8287 
 195   0.0000       0.879505        23.9325 
 196   0.0000       0.891823        24.2677 
 197   0.0000       0.894783        24.3483 
 198   0.0000       0.905180        24.6312 
 199   0.0000       0.908920        24.7330 
 200   0.0000       0.914605        24.8877 
 201   0.0000       0.922703        25.1080 
 202   0.0000       0.931444        25.3459 
 203   0.0000       0.939358        25.5612 
 204   0.0000       0.939991        25.5785 
 205   0.0000       0.947258        25.7762 
 206   0.0000       0.953115        25.9356 
 207   0.0000       0.962539        26.1920 
 208   0.0000       0.975161        26.5355 
 209   0.0000       0.975738        26.5512 
 210   0.0000       0.978425        26.6243 
 211   0.0000       0.998220        27.1630 
 212   0.0000       0.999767        27.2050 
 213   0.0000       1.009088        27.4587 
 214   0.0000       1.013062        27.5668 
 215   0.0000       1.016740        27.6669 
 216   0.0000       1.021469        27.7956 
 217   0.0000       1.028725        27.9930 
 218   0.0000       1.030117        28.0309 
 219   0.0000       1.034829        28.1591 
 220   0.0000       1.045907        28.4606 
 221   0.0000       1.056552        28.7502 
 222   0.0000       1.062086        28.9008 
 223   0.0000       1.068322        29.0705 
 224   0.0000       1.077938        29.3322 
 225   0.0000       1.083484        29.4831 
 226   0.0000       1.089161        29.6376 
 227   0.0000       1.090969        29.6868 
 228   0.0000       1.101329        29.9687 
 229   0.0000       1.110844        30.2276 
 230   0.0000       1.114307        30.3218 
 231   0.0000       1.122029        30.5320 
 232   0.0000       1.130432        30.7606 
 233   0.0000       1.134312        30.8662 
 234   0.0000       1.152090        31.3500 
 235   0.0000       1.162613        31.6363 
 236   0.0000       1.165394        31.7120 
 237   0.0000       1.179002        32.0823 
 238   0.0000       1.183001        32.1911 
 239   0.0000       1.191024        32.4094 
 240   0.0000       1.194927        32.5156 
 241   0.0000       1.202587        32.7241 
 242   0.0000       1.211328        32.9619 
 243   0.0000       1.218642        33.1609 
 244   0.0000       1.223540        33.2942 
 245   0.0000       1.231366        33.5072 
 246   0.0000       1.232374        33.5346 
 247   0.0000       1.245696        33.8971 
 248   0.0000       1.257874        34.2285 
 249   0.0000       1.262854        34.3640 
 250   0.0000       1.271575        34.6013 
 251   0.0000       1.281918        34.8828 
 252   0.0000       1.286385        35.0043 
 253   0.0000       1.287949        35.0469 
 254   0.0000       1.291610        35.1465 
 255   0.0000       1.300756        35.3954 
 256   0.0000       1.313193        35.7338 
 257   0.0000       1.320400        35.9299 
 258   0.0000       1.325103        36.0579 
 259   0.0000       1.336779        36.3756 
 260   0.0000       1.340955        36.4892 
 261   0.0000       1.346943        36.6522 
 262   0.0000       1.351887        36.7867 
 263   0.0000       1.366669        37.1890 
 264   0.0000       1.374846        37.4115 
 265   0.0000       1.383869        37.6570 
 266   0.0000       1.389783        37.8179 
 267   0.0000       1.394841        37.9555 
 268   0.0000       1.405256        38.2390 
 269   0.0000       1.420762        38.6609 
 270   0.0000       1.424959        38.7751 
 271   0.0000       1.436785        39.0969 
 272   0.0000       1.439985        39.1840 
 273   0.0000       1.442627        39.2559 
 274   0.0000       1.449041        39.4304 
 275   0.0000       1.456281        39.6274 
 276   0.0000       1.466812        39.9140 
 277   0.0000       1.472985        40.0820 
 278   0.0000       1.482940        40.3529 
 279   0.0000       1.485333        40.4180 
 280   0.0000       1.491544        40.5870 
 281   0.0000       1.505175        40.9579 
 282   0.0000       1.507012        41.0079 
 283   0.0000       1.516306        41.2608 
 284   0.0000       1.525036        41.4983 
 285   0.0000       1.527781        41.5730 
 286   0.0000       1.531081        41.6628 
 287   0.0000       1.543460        41.9997 
 288   0.0000       1.545207        42.0472 
 289   0.0000       1.555268        42.3210 
 290   0.0000       1.561455        42.4894 
 291   0.0000       1.569395        42.7054 
 292   0.0000       1.575703        42.8771 
 293   0.0000       1.583358        43.0854 
 294   0.0000       1.586075        43.1593 
 295   0.0000       1.599269        43.5183 
 296   0.0000       1.613820        43.9143 
 297   0.0000       1.616327        43.9825 
 298   0.0000       1.625360        44.2283 
 299   0.0000       1.629006        44.3275 
 300   0.0000       1.632297        44.4170 
 301   0.0000       1.640062        44.6283 
 302   0.0000       1.649560        44.8868 
 303   0.0000       1.663006        45.2527 
 304   0.0000       1.676961        45.6324 
 305   0.0000       1.681532        45.7568 
 306   0.0000       1.683725        45.8165 
 307   0.0000       1.698246        46.2116 
 308   0.0000       1.702934        46.3392 
 309   0.0000       1.709828        46.5268 
 310   0.0000       1.715965        46.6938 
 311   0.0000       1.723497        46.8987 
 312   0.0000       1.734384        47.1950 
 313   0.0000       1.740182        47.3528 
 314   0.0000       1.751107        47.6501 
 315   0.0000       1.765328        48.0370 
 316   0.0000       1.767693        48.1014 
 317   0.0000       1.772514        48.2326 
 318   0.0000       1.792698        48.7818 
 319   0.0000       1.805631        49.1337 
 320   0.0000       1.822248        49.5859 
 321   0.0000       1.826460        49.7005 
 322   0.0000       1.837662        50.0053 
 323   0.0000       1.848671        50.3049 
 324   0.0000       1.855394        50.4878 
 325   0.0000       1.857867        50.5551 
 326   0.0000       1.883579        51.2548 
 327   0.0000       1.897910        51.6447 
 328   0.0000       1.906616        51.8817 
 329   0.0000       1.909653        51.9643 
 330   0.0000       1.914341        52.0919 
 331   0.0000       1.937324        52.7173 
 332   0.0000       1.942978        52.8711 
 333   0.0000       1.953934        53.1692 
 334   0.0000       1.974759        53.7359 
 335   0.0000       1.984499        54.0010 
 336   0.0000       1.992847        54.2281 
 337   0.0000       2.004830        54.5542 
 338   0.0000       2.016483        54.8713 
 339   0.0000       2.019519        54.9539 
 340   0.0000       2.029234        55.2183 
 341   0.0000       2.034004        55.3481 
 342   0.0000       2.055823        55.9418 
 343   0.0000       2.069644        56.3179 
 344   0.0000       2.089424        56.8561 
 345   0.0000       2.104537        57.2674 
 346   0.0000       2.118853        57.6569 
 347   0.0000       2.136297        58.1316 
 348   0.0000       2.156464        58.6804 
 349   0.0000       2.175014        59.1851 
 350   0.0000       2.184267        59.4369 
 351   0.0000       2.210079        60.1393 
 352   0.0000       2.212603        60.2080 
 353   0.0000       2.234435        60.8021 
 354   0.0000       2.248849        61.1943 
 355   0.0000       2.265787        61.6552 
 356   0.0000       2.274197        61.8841 
 357   0.0000       2.287755        62.2530 
 358   0.0000       2.293838        62.4185 
 359   0.0000       2.306339        62.7587 
 360   0.0000       2.312219        62.9187 
 361   0.0000       2.327814        63.3430 
 362   0.0000       2.352725        64.0209 
 363   0.0000       2.364760        64.3484 
 364   0.0000       2.369709        64.4831 
 365   0.0000       2.374283        64.6075 
 366   0.0000       2.386438        64.9383 
 367   0.0000       2.401026        65.3352 
 368   0.0000       2.407929        65.5231 
 369   0.0000       2.433035        66.2062 
 370   0.0000       2.438804        66.3632 
 371   0.0000       2.462697        67.0134 
 372   0.0000       2.469526        67.1992 
 373   0.0000       2.470696        67.2310 
 374   0.0000       2.499540        68.0160 
 375   0.0000       2.510461        68.3131 
 376   0.0000       2.526009        68.7362 
 377   0.0000       2.530455        68.8572 
 378   0.0000       2.545804        69.2749 
 379   0.0000       2.551194        69.4215 
 380   0.0000       2.566088        69.8268 
 381   0.0000       2.572651        70.0054 
 382   0.0000       2.581384        70.2430 
 383   0.0000       2.595873        70.6373 
 384   0.0000       2.620393        71.3045 
 385   0.0000       2.626758        71.4777 
 386   0.0000       2.629667        71.5569 
 387   0.0000       2.637164        71.7609 
 388   0.0000       2.648257        72.0627 
 389   0.0000       2.668195        72.6053 
 390   0.0000       2.680867        72.9501 
 391   0.0000       2.687400        73.1279 
 392   0.0000       2.697287        73.3969 
 393   0.0000       2.712955        73.8233 
 394   0.0000       2.722275        74.0769 
 395   0.0000       2.732044        74.3427 
 396   0.0000       2.738734        74.5248 
 397   0.0000       2.750454        74.8437 
 398   0.0000       2.766952        75.2926 
 399   0.0000       2.769145        75.3523 
 400   0.0000       2.774882        75.5084 
 401   0.0000       2.790992        75.9468 
 402   0.0000       2.795671        76.0741 
 403   0.0000       2.808010        76.4098 
 404   0.0000       2.812134        76.5220 
 405   0.0000       2.825609        76.8887 
 406   0.0000       2.832265        77.0699 
 407   0.0000       2.843486        77.3752 
 408   0.0000       2.850242        77.5590 
 409   0.0000       2.857004        77.7430 
 410   0.0000       2.867516        78.0291 
 411   0.0000       2.878092        78.3169 
 412   0.0000       2.879398        78.3524 
 413   0.0000       2.906107        79.0792 
 414   0.0000       2.912793        79.2611 
 415   0.0000       2.915087        79.3236 
 416   0.0000       2.926349        79.6300 
 417   0.0000       2.940007        80.0016 
 418   0.0000       2.955100        80.4124 
 419   0.0000       2.962388        80.6107 
 420   0.0000       2.965572        80.6973 
 421   0.0000       2.978566        81.0509 
 422   0.0000       2.986273        81.2606 
 423   0.0000       2.995467        81.5108 
 424   0.0000       3.006929        81.8227 
 425   0.0000       3.014343        82.0244 
 426   0.0000       3.018885        82.1480 
 427   0.0000       3.025611        82.3311 
 428   0.0000       3.036792        82.6353 
 429   0.0000       3.043896        82.8286 
 430   0.0000       3.047219        82.9191 
 431   0.0000       3.053630        83.0935 
 432   0.0000       3.061846        83.3171 
 433   0.0000       3.068971        83.5109 
 434   0.0000       3.074597        83.6640 
 435   0.0000       3.083605        83.9092 
 436   0.0000       3.087630        84.0187 
 437   0.0000       3.099337        84.3373 
 438   0.0000       3.100794        84.3769 
 439   0.0000       3.105407        84.5024 
 440   0.0000       3.112712        84.7012 
 441   0.0000       3.117201        84.8234 
 442   0.0000       3.127253        85.0969 
 443   0.0000       3.130596        85.1878 
 444   0.0000       3.150023        85.7165 
 445   0.0000       3.151935        85.7685 
 446   0.0000       3.152774        85.7913 
 447   0.0000       3.165207        86.1297 
 448   0.0000       3.171274        86.2947 
 449   0.0000       3.190223        86.8104 
 450   0.0000       3.194788        86.9346 
 451   0.0000       3.204145        87.1892 
 452   0.0000       3.221199        87.6533 
 453   0.0000       3.222047        87.6764 
 454   0.0000       3.226393        87.7946 
 455   0.0000       3.231066        87.9218 
 456   0.0000       3.240475        88.1778 
 457   0.0000       3.246535        88.3427 
 458   0.0000       3.250722        88.4566 
 459   0.0000       3.260763        88.7299 
 460   0.0000       3.273433        89.0746 
 461   0.0000       3.283191        89.3402 
 462   0.0000       3.284347        89.3716 
 463   0.0000       3.289639        89.5156 
 464   0.0000       3.291556        89.5678 
 465   0.0000       3.301265        89.8320 
 466   0.0000       3.305102        89.9364 
 467   0.0000       3.311696        90.1158 
 468   0.0000       3.318417        90.2987 
 469   0.0000       3.326032        90.5059 
 470   0.0000       3.333766        90.7164 
 471   0.0000       3.344879        91.0188 
 472   0.0000       3.346208        91.0549 
 473   0.0000       3.355580        91.3100 
 474   0.0000       3.363673        91.5302 
 475   0.0000       3.364533        91.5536 
 476   0.0000       3.371738        91.7497 
 477   0.0000       3.377167        91.8974 
 478   0.0000       3.380607        91.9910 
 479   0.0000       3.389122        92.2227 
 480   0.0000       3.392577        92.3167 
 481   0.0000       3.394795        92.3771 
 482   0.0000       3.397483        92.4502 
 483   0.0000       3.408499        92.7500 
 484   0.0000       3.417100        92.9840 
 485   0.0000       3.418597        93.0248 
 486   0.0000       3.422294        93.1254 
 487   0.0000       3.427957        93.2795 
 488   0.0000       3.434726        93.4636 
 489   0.0000       3.443574        93.7044 
 490   0.0000       3.446245        93.7771 
 491   0.0000       3.455100        94.0180 
 492   0.0000       3.460169        94.1560 
 493   0.0000       3.464680        94.2787 
 494   0.0000       3.473408        94.5162 
 495   0.0000       3.479445        94.6805 
 496   0.0000       3.481888        94.7470 
 497   0.0000       3.487666        94.9042 
 498   0.0000       3.496821        95.1533 
 499   0.0000       3.500816        95.2620 
 500   0.0000       3.520023        95.7847 
 501   0.0000       3.523618        95.8825 
 502   0.0000       3.527820        95.9969 
 503   0.0000       3.534114        96.1681 
 504   0.0000       3.548693        96.5648 
 505   0.0000       3.555318        96.7451 
 506   0.0000       3.565596        97.0248 
 507   0.0000       3.570886        97.1687 
 508   0.0000       3.582968        97.4975 
 509   0.0000       3.592655        97.7611 
 510   0.0000       3.600380        97.9713 
 511   0.0000       3.607234        98.1578 
 512   0.0000       3.613024        98.3154 
 513   0.0000       3.619484        98.4912 
 514   0.0000       3.622102        98.5624 
 515   0.0000       3.623903        98.6114 
 516   0.0000       3.630984        98.8041 
 517   0.0000       3.634798        98.9079 
 518   0.0000       3.641378        99.0869 
 519   0.0000       3.646995        99.2398 
 520   0.0000       3.652461        99.3885 
 521   0.0000       3.654806        99.4523 
 522   0.0000       3.662534        99.6626 
 523   0.0000       3.672174        99.9249 
 524   0.0000       3.679650       100.1284 
 525   0.0000       3.687311       100.3368 
 526   0.0000       3.696775       100.5944 
 527   0.0000       3.702227       100.7427 
 528   0.0000       3.706019       100.8459 
 529   0.0000       3.712997       101.0358 
 530   0.0000       3.720980       101.2530 
 531   0.0000       3.725018       101.3629 
 532   0.0000       3.731668       101.5438 
 533   0.0000       3.740964       101.7968 
 534   0.0000       3.745570       101.9221 
 535   0.0000       3.750948       102.0685 
 536   0.0000       3.753174       102.1291 
 537   0.0000       3.761172       102.3467 
 538   0.0000       3.763683       102.4150 
 539   0.0000       3.772287       102.6491 
 540   0.0000       3.776208       102.7558 
 541   0.0000       3.787586       103.0654 
 542   0.0000       3.788649       103.0944 
 543   0.0000       3.801423       103.4420 
 544   0.0000       3.813566       103.7724 
 545   0.0000       3.816386       103.8492 
 546   0.0000       3.817102       103.8686 
 547   0.0000       3.828717       104.1847 
 548   0.0000       3.832665       104.2921 
 549   0.0000       3.837455       104.4225 
 550   0.0000       3.853412       104.8567 
 551   0.0000       3.867258       105.2334 
 552   0.0000       3.875145       105.4481 
 553   0.0000       3.878539       105.5404 
 554   0.0000       3.890956       105.8783 
 555   0.0000       3.893437       105.9458 
 556   0.0000       3.904583       106.2491 
 557   0.0000       3.915905       106.5572 
 558   0.0000       3.918251       106.6210 
 559   0.0000       3.928484       106.8995 
 560   0.0000       3.944332       107.3307 
 561   0.0000       3.956132       107.6518 
 562   0.0000       3.962079       107.8136 
 563   0.0000       3.965065       107.8949 
 564   0.0000       3.968167       107.9793 
 565   0.0000       3.987183       108.4968 
 566   0.0000       3.995819       108.7318 
 567   0.0000       3.997717       108.7834 
 568   0.0000       4.011088       109.1473 
 569   0.0000       4.022687       109.4629 
 570   0.0000       4.025941       109.5514 
 571   0.0000       4.031923       109.7142 
 572   0.0000       4.046936       110.1227 
 573   0.0000       4.058170       110.4284 
 574   0.0000       4.062515       110.5467 
 575   0.0000       4.069105       110.7260 
 576   0.0000       4.089210       111.2731 
 577   0.0000       4.093106       111.3791 
 578   0.0000       4.098738       111.5323 
 579   0.0000       4.106537       111.7446 
 580   0.0000       4.115879       111.9988 
 581   0.0000       4.121248       112.1449 
 582   0.0000       4.123863       112.2160 
 583   0.0000       4.137454       112.5859 
 584   0.0000       4.139244       112.6346 
 585   0.0000       4.143018       112.7372 
 586   0.0000       4.149767       112.9209 
 587   0.0000       4.157028       113.1185 
 588   0.0000       4.171411       113.5099 
 589   0.0000       4.171809       113.5207 
 590   0.0000       4.177052       113.6634 
 591   0.0000       4.178076       113.6912 
 592   0.0000       4.189722       114.0081 
 593   0.0000       4.192328       114.0790 
 594   0.0000       4.205479       114.4369 
 595   0.0000       4.210701       114.5790 
 596   0.0000       4.222044       114.8877 
 597   0.0000       4.234735       115.2330 
 598   0.0000       4.247169       115.5714 
 599   0.0000       4.253519       115.7441 
 600   0.0000       4.254613       115.7739 
 601   0.0000       4.269114       116.1685 
 602   0.0000       4.271327       116.2287 
 603   0.0000       4.276841       116.3788 
 604   0.0000       4.296889       116.9243 
 605   0.0000       4.300026       117.0097 
 606   0.0000       4.302562       117.0787 
 607   0.0000       4.308392       117.2373 
 608   0.0000       4.320377       117.5634 
 609   0.0000       4.327822       117.7660 
 610   0.0000       4.336155       117.9928 
 611   0.0000       4.341452       118.1369 
 612   0.0000       4.347865       118.3114 
 613   0.0000       4.355217       118.5115 
 614   0.0000       4.356971       118.5592 
 615   0.0000       4.375531       119.0642 
 616   0.0000       4.385325       119.3308 
 617   0.0000       4.389804       119.4526 
 618   0.0000       4.394005       119.5669 
 619   0.0000       4.405368       119.8762 
 620   0.0000       4.409754       119.9955 
 621   0.0000       4.411937       120.0549 
 622   0.0000       4.427748       120.4851 
 623   0.0000       4.440028       120.8193 
 624   0.0000       4.446043       120.9830 
 625   0.0000       4.461577       121.4057 
 626   0.0000       4.463098       121.4471 
 627   0.0000       4.478322       121.8613 
 628   0.0000       4.484822       122.0382 
 629   0.0000       4.495827       122.3377 
 630   0.0000       4.502777       122.5268 
 631   0.0000       4.508598       122.6852 
 632   0.0000       4.514599       122.8485 
 633   0.0000       4.524787       123.1257 
 634   0.0000       4.533020       123.3497 
 635   0.0000       4.537945       123.4838 
 636   0.0000       4.548288       123.7652 
 637   0.0000       4.553764       123.9142 
 638   0.0000       4.564408       124.2039 
 639   0.0000       4.568170       124.3062 
 640   0.0000       4.585098       124.7669 
 641   0.0000       4.597451       125.1030 
 642   0.0000       4.608497       125.4036 
 643   0.0000       4.618971       125.6886 
 644   0.0000       4.622867       125.7946 
 645   0.0000       4.628074       125.9363 
 646   0.0000       4.630769       126.0096 
 647   0.0000       4.638296       126.2145 
 648   0.0000       4.642329       126.3242 
 649   0.0000       4.659582       126.7937 
 650   0.0000       4.666343       126.9777 
 651   0.0000       4.671183       127.1093 
 652   0.0000       4.682362       127.4135 
 653   0.0000       4.685033       127.4862 
 654   0.0000       4.689942       127.6198 
 655   0.0000       4.706348       128.0662 
 656   0.0000       4.720771       128.4587 
 657   0.0000       4.722708       128.5114 
 658   0.0000       4.737813       128.9224 
 659   0.0000       4.742428       129.0480 
 660   0.0000       4.755000       129.3901 
 661   0.0000       4.776885       129.9856 
 662   0.0000       4.788040       130.2892 
 663   0.0000       4.812405       130.9522 
 664   0.0000       4.818054       131.1059 
 665   0.0000       4.840680       131.7216 
 666   0.0000       4.852711       132.0490 
 667   0.0000       4.870274       132.5269 
 668   0.0000       4.895746       133.2200 
 669   0.0000       4.907018       133.5268 
 670   0.0000       4.914524       133.7310 
 671   0.0000       4.928224       134.1038 
 672   0.0000       4.937316       134.3512 
 673   0.0000       4.963102       135.0529 
 674   0.0000       4.975616       135.3934 
 675   0.0000       4.992351       135.8488 
 676   0.0000       5.015726       136.4849 
 677   0.0000       5.024407       136.7211 
 678   0.0000       5.030423       136.8848 
 679   0.0000       5.040108       137.1483 
 680   0.0000       5.049602       137.4067 
 681   0.0000       5.068031       137.9081 
 682   0.0000       5.083122       138.3188 
 683   0.0000       5.096588       138.6852 
 684   0.0000       5.102721       138.8521 
 685   0.0000       5.123780       139.4251 
 686   0.0000       5.125194       139.4636 
 687   0.0000       5.141177       139.8985 
 688   0.0000       5.149259       140.1185 
 689   0.0000       5.154454       140.2598 
 690   0.0000       5.160145       140.4147 
 691   0.0000       5.168344       140.6378 
 692   0.0000       5.188153       141.1768 
 693   0.0000       5.197345       141.4269 
 694   0.0000       5.203766       141.6017 
 695   0.0000       5.210704       141.7905 
 696   0.0000       5.225175       142.1842 
 697   0.0000       5.227762       142.2546 
 698   0.0000       5.237480       142.5191 
 699   0.0000       5.246396       142.7617 
 700   0.0000       5.262613       143.2030 
 701   0.0000       5.274152       143.5170 
 702   0.0000       5.294992       144.0840 
 703   0.0000       5.315956       144.6545 
 704   0.0000       5.331797       145.0856 
 705   0.0000       5.337785       145.2485 
 706   0.0000       5.342915       145.3881 
 707   0.0000       5.355212       145.7227 
 708   0.0000       5.366652       146.0340 
 709   0.0000       5.377092       146.3181 
 710   0.0000       5.394085       146.7805 
 711   0.0000       5.410323       147.2224 
 712   0.0000       5.444648       148.1564 
 713   0.0000       5.462274       148.6360 
 714   0.0000       5.467693       148.7835 
 715   0.0000       5.492666       149.4630 
 716   0.0000       5.494091       149.5018 
 717   0.0000       5.504467       149.7842 
 718   0.0000       5.508210       149.8860 
 719   0.0000       5.521622       150.2510 
 720   0.0000       5.541218       150.7842 
 721   0.0000       5.546724       150.9340 
 722   0.0000       5.553990       151.1318 
 723   0.0000       5.563756       151.3975 
 724   0.0000       5.576514       151.7447 
 725   0.0000       5.599615       152.3733 
 726   0.0000       5.614526       152.7790 
 727   0.0000       5.635306       153.3445 
 728   0.0000       5.639613       153.4617 
 729   0.0000       5.650168       153.7489 
 730   0.0000       5.653113       153.8290 
 731   0.0000       5.660271       154.0238 
 732   0.0000       5.668221       154.2401 
 733   0.0000       5.676039       154.4529 
 734   0.0000       5.696701       155.0151 
 735   0.0000       5.714398       155.4967 
 736   0.0000       5.718885       155.6188 
 737   0.0000       5.743210       156.2807 
 738   0.0000       5.749015       156.4387 
 739   0.0000       5.756034       156.6296 
 740   0.0000       5.762407       156.8031 
 741   0.0000       5.773358       157.1011 
 742   0.0000       5.795515       157.7040 
 743   0.0000       5.801461       157.8658 
 744   0.0000       5.813860       158.2032 
 745   0.0000       5.831420       158.6810 
 746   0.0000       5.858605       159.4207 
 747   0.0000       5.883826       160.1070 
 748   0.0000       5.890786       160.2964 
 749   0.0000       5.908470       160.7777 
 750   0.0000       5.930694       161.3824 
 751   0.0000       5.960714       162.1993 
 752   0.0000       5.972655       162.5242 
 753   0.0000       5.996272       163.1668 
 754   0.0000       6.007734       163.4787 
 755   0.0000       6.035822       164.2431 
 756   0.0000       6.050554       164.6439 
 757   0.0000       6.061847       164.9513 
 758   0.0000       6.073516       165.2688 
 759   0.0000       6.091444       165.7566 
 760   0.0000       6.097966       165.9341 
 761   0.0000       6.170163       167.8987 
 762   0.0000       6.224890       169.3879 
 763   0.0000       6.227767       169.4662 
 764   0.0000       6.233573       169.6241 
 765   0.0000       6.271114       170.6457 
 766   0.0000       6.291886       171.2109 
 767   0.0000       6.316154       171.8713 
 768   0.0000       6.339414       172.5042 
 769   0.0000       6.345658       172.6741 
 770   0.0000       6.366590       173.2437 
 771   0.0000       6.382273       173.6705 
 772   0.0000       6.401250       174.1869 
 773   0.0000       6.441665       175.2866 
 774   0.0000       6.456311       175.6851 
 775   0.0000       6.461508       175.8266 
 776   0.0000       6.499941       176.8724 
 777   0.0000       6.554178       178.3482 
 778   0.0000       6.589882       179.3198 
 779   0.0000       6.614081       179.9783 
 780   0.0000       6.674754       181.6293 
 781   0.0000       6.697306       182.2430 
 782   0.0000       6.720659       182.8784 
 783   0.0000       6.765733       184.1049 
 784   0.0000       6.832295       185.9162 
 785   0.0000       6.858563       186.6310 
 786   0.0000       6.907131       187.9526 
 787   0.0000       6.921280       188.3376 
 788   0.0000       6.950282       189.1268 
 789   0.0000       6.999143       190.4564 
 790   0.0000       7.052216       191.9005 
 791   0.0000       7.063287       192.2018 
 792   0.0000       7.081570       192.6993 
 793   0.0000       7.132421       194.0830 
 794   0.0000       7.256302       197.4540 
 795   0.0000       7.258743       197.5204 
 796   0.0000       7.277547       198.0321 
 797   0.0000       7.281747       198.1464 
 798   0.0000       7.340963       199.7578 
 799   0.0000       7.364617       200.4014 
 800   0.0000       7.388514       201.0517 
 801   0.0000       7.532237       204.9626 
 802   0.0000       7.573817       206.0940 
 803   0.0000       7.585327       206.4073 
 804   0.0000       7.666158       208.6068 
 805   0.0000       7.807368       212.4493 
 806   0.0000       7.820449       212.8052 
 807   0.0000       7.906626       215.1502 
 808   0.0000       7.932750       215.8611 
 809   0.0000       9.445564       257.0269 
 810   0.0000       9.674413       263.2542 
 811   0.0000      10.833488       294.7942 
 812   0.0000      11.167611       303.8862 
 813   0.0000      12.053743       327.9990 
 814   0.0000      12.571113       342.0774 
 815   0.0000      12.943899       352.2214 
 816   0.0000      13.093841       356.3015 
 817   0.0000      13.267740       361.0336 
 818   0.0000      13.417398       365.1059 
 819   0.0000      13.495655       367.2354 
 820   0.0000      13.556912       368.9023 
 821   0.0000      13.789793       375.2393 
 822   0.0000      13.965354       380.0166 
 823   0.0000      13.995382       380.8337 
 824   0.0000      14.165240       385.4558 
 825   0.0000      14.449622       393.1942 
 826   0.0000      14.642295       398.4371 
 827   0.0000      15.971397       434.6038 

                    ********************************
                    * MULLIKEN POPULATION ANALYSIS *
                    ********************************

-----------------------
MULLIKEN ATOMIC CHARGES
-----------------------
   0 C :   -0.256678
   1 C :    0.023374
   2 O :   -0.340088
   3 C :    0.432559
   4 O :   -0.379923
   5 C :   -0.207045
   6 C :    0.138979
   7 C :   -0.314553
   8 N :   -0.132397
   9 C :    0.197786
  10 S :   -0.437647
  11 N :   -0.206338
  12 C :    0.065100
  13 C :    0.019881
  14 C :   -0.176913
  15 C :   -0.135045
  16 C :   -0.276154
  17 C :    0.320567
  18 O :   -0.358794
  19 C :   -0.281353
  20 H :    0.108107
  21 H :    0.097915
  22 H :    0.088699
  23 H :    0.084903
  24 H :    0.109871
  25 H :    0.137760
  26 H :    0.125033
  27 H :    0.120713
  28 H :    0.197378
  29 H :    0.196118
  30 H :    0.161365
  31 H :    0.167035
  32 H :    0.163256
  33 H :    0.132472
  34 H :    0.241466
  35 H :    0.172592
Sum of atomic charges:    0.0000000

--------------------------------
MULLIKEN REDUCED ORBITAL CHARGES
--------------------------------
  0 C s       :     3.259798  s :     3.259798
      pz      :     1.005143  p :     2.920146
      px      :     0.956928
      py      :     0.958075
      dz2     :     0.020581  d :     0.072271
      dxz     :     0.015810
      dyz     :     0.005425
      dx2y2   :     0.015255
      dxy     :     0.015199
      f0      :     0.000970  f :     0.004463
      f+1     :     0.000573
      f-1     :     0.000434
      f+2     :     0.000191
      f-2     :     0.000496
      f+3     :     0.001316
      f-3     :     0.000484
  1 C s       :     3.167911  s :     3.167911
      pz      :     0.904663  p :     2.634553
      px      :     0.731112
      py      :     0.998778
      dz2     :     0.037100  d :     0.162270
      dxz     :     0.033300
      dyz     :     0.015481
      dx2y2   :     0.033135
      dxy     :     0.043254
      f0      :     0.001342  f :     0.011892
      f+1     :     0.002389
      f-1     :     0.000608
      f+2     :     0.001648
      f-2     :     0.002189
      f+3     :     0.001888
      f-3     :     0.001827
  2 O s       :     3.721340  s :     3.721340
      pz      :     1.588000  p :     4.583048
      px      :     1.175642
      py      :     1.819405
      dz2     :     0.004978  d :     0.033420
      dxz     :     0.014471
      dyz     :     0.002813
      dx2y2   :     0.004696
      dxy     :     0.006462
      f0      :     0.000185  f :     0.002281
      f+1     :     0.000240
      f-1     :     0.000019
      f+2     :     0.000618
      f-2     :     0.000234
      f+3     :     0.000584
      f-3     :     0.000401
  3 C s       :     3.058323  s :     3.058323
      pz      :     0.672968  p :     2.199102
      px      :     0.704220
      py      :     0.821914
      dz2     :     0.023554  d :     0.283815
      dxz     :     0.065682
      dyz     :     0.038355
      dx2y2   :     0.087812
      dxy     :     0.068412
      f0      :     0.002111  f :     0.026201
      f+1     :     0.002719
      f-1     :     0.001580
      f+2     :     0.002486
      f-2     :     0.004981
      f+3     :     0.005661
      f-3     :     0.006663
  4 O s       :     3.771884  s :     3.771884
      pz      :     1.501670  p :     4.569752
      px      :     1.551558
      py      :     1.516524
      dz2     :     0.003603  d :     0.035822
      dxz     :     0.005012
      dyz     :     0.006618
      dx2y2   :     0.008482
      dxy     :     0.012107
      f0      :     0.000242  f :     0.002465
      f+1     :     0.000186
      f-1     :     0.000206
      f+2     :     0.000023
      f-2     :     0.000471
      f+3     :     0.000651
      f-3     :     0.000685
  5 C s       :     3.180394  s :     3.180394
      pz      :     0.969310  p :     2.933442
      px      :     1.055747
      py      :     0.908385
      dz2     :     0.016534  d :     0.082520
      dxz     :     0.012173
      dyz     :     0.025900
      dx2y2   :     0.013102
      dxy     :     0.014810
      f0      :     0.001109  f :     0.010689
      f+1     :     0.001328
      f-1     :     0.001706
      f+2     :     0.002087
      f-2     :     0.001144
      f+3     :     0.001333
      f-3     :     0.001982
  6 C s       :     3.193627  s :     3.193627
      pz      :     0.877064  p :     2.478080
      px      :     0.837254
      py      :     0.763762
      dz2     :     0.032820  d :     0.175083
      dxz     :     0.019819
      dyz     :     0.048020
      dx2y2   :     0.031847
      dxy     :     0.042577
      f0      :     0.001604  f :     0.014231
      f+1     :     0.001193
      f-1     :     0.003046
      f+2     :     0.002503
      f-2     :     0.002195
      f+3     :     0.001784
      f-3     :     0.001906
  7 C s       :     3.289284  s :     3.289284
      pz      :     0.904197  p :     2.949355
      px      :     0.991874
      py      :     1.053284
      dz2     :     0.016875  d :     0.071261
      dxz     :     0.012108
      dyz     :     0.016207
      dx2y2   :     0.019776
      dxy     :     0.006295
      f0      :     0.000666  f :     0.004652
      f+1     :     0.001148
      f-1     :     0.000807
      f+2     :     0.000801
      f-2     :     0.000296
      f+3     :     0.000836
      f-3     :     0.000098
  8 N s       :     3.346796  s :     3.346796
      pz      :     1.186081  p :     3.721512
      px      :     1.439282
      py      :     1.096149
      dz2     :     0.014025  d :     0.059126
      dxz     :     0.009173
      dyz     :     0.016274
      dx2y2   :     0.008832
      dxy     :     0.010822
      f0      :     0.000655  f :     0.004963
      f+1     :     0.000969
      f-1     :     0.000750
      f+2     :     0.000947
      f-2     :     0.000813
      f+3     :     0.000447
      f-3     :     0.000382
  9 C s       :     3.167604  s :     3.167604
      pz      :     0.766258  p :     2.354848
      px      :     0.699734
      py      :     0.888856
      dz2     :     0.065512  d :     0.262172
      dxz     :     0.033417
      dyz     :     0.053303
      dx2y2   :     0.047921
      dxy     :     0.062019
      f0      :     0.002980  f :     0.017590
      f+1     :     0.002132
      f-1     :     0.002791
      f+2     :     0.002762
      f-2     :     0.002149
      f+3     :     0.002225
      f-3     :     0.002551
 10 S s       :     5.855807  s :     5.855807
      pz      :     3.565793  p :    10.487041
      px      :     3.702905
      py      :     3.218343
      dz2     :     0.008038  d :     0.084660
      dxz     :     0.004099
      dyz     :     0.037203
      dx2y2   :     0.021323
      dxy     :     0.013998
      f0      :     0.001270  f :     0.010138
      f+1     :     0.000047
      f-1     :     0.001701
      f+2     :     0.003295
      f-2     :     0.001115
      f+3     :     0.001308
      f-3     :     0.001402
 11 N s       :     3.376423  s :     3.376423
      pz      :     1.270881  p :     3.767808
      px      :     1.457878
      py      :     1.039049
      dz2     :     0.010271  d :     0.057665
      dxz     :     0.006574
      dyz     :     0.014798
      dx2y2   :     0.012322
      dxy     :     0.013701
      f0      :     0.000356  f :     0.004442
      f+1     :     0.000578
      f-1     :     0.000546
      f+2     :     0.000696
      f-2     :     0.000669
      f+3     :     0.000806
      f-3     :     0.000791
 12 C s       :     3.115537  s :     3.115537
      pz      :     0.843240  p :     2.625099
      px      :     1.003197
      py      :     0.778662
      dz2     :     0.039420  d :     0.182999
      dxz     :     0.026883
      dyz     :     0.038076
      dx2y2   :     0.035048
      dxy     :     0.043571
      f0      :     0.001308  f :     0.011264
      f+1     :     0.001360
      f-1     :     0.001894
      f+2     :     0.002099
      f-2     :     0.001645
      f+3     :     0.001467
      f-3     :     0.001491
 13 C s       :     3.108421  s :     3.108421
      pz      :     0.907744  p :     2.753574
      px      :     0.906130
      py      :     0.939700
      dz2     :     0.017441  d :     0.106902
      dxz     :     0.013110
      dyz     :     0.027740
      dx2y2   :     0.021537
      dxy     :     0.027074
      f0      :     0.001073  f :     0.011222
      f+1     :     0.001502
      f-1     :     0.001200
[...]
      f-1     :     0.004775
      f+2     :     0.007406
      f-2     :     0.005054
      f+3     :     0.007070
      f-3     :     0.008895
 15 C s       :     2.705827  s :     2.705827
      pz      :     0.887627  p :     2.793594
      px      :     0.942896
      py      :     0.963071
      dz2     :     0.084155  d :     0.415569
      dxz     :     0.072925
      dyz     :     0.053367
      dx2y2   :     0.112463
      dxy     :     0.092660
      f0      :     0.003077  f :     0.041023
      f+1     :     0.005103
      f-1     :     0.005467
      f+2     :     0.007220
      f-2     :     0.005983
      f+3     :     0.007575
      f-3     :     0.006599
 16 C s       :     2.701896  s :     2.701896
      pz      :     0.932135  p :     2.867793
      px      :     0.965164
      py      :     0.970494
      dz2     :     0.039203  d :     0.390846
      dxz     :     0.060355
      dyz     :     0.081034
      dx2y2   :     0.097761
      dxy     :     0.112493
      f0      :     0.003860  f :     0.040337
      f+1     :     0.004553
      f-1     :     0.003816
      f+2     :     0.006122
      f-2     :     0.004955
      f+3     :     0.009080
      f-3     :     0.007952
 17 C s       :     2.701504  s :     2.701504
      pz      :     0.851909  p :     2.684939
      px      :     0.822449
      py      :     1.010580
      dz2     :     0.117618  d :     0.709455
      dxz     :     0.112680
      dyz     :     0.128717
      dx2y2   :     0.173792
      dxy     :     0.176649
      f0      :     0.008200  f :     0.099356
      f+1     :     0.015893
      f-1     :     0.008489
      f+2     :     0.015905
      f-2     :     0.013551
      f+3     :     0.018565
      f-3     :     0.018753
 18 O s       :     3.177302  s :     3.177302
      pz      :     1.452202  p :     4.347724
      px      :     1.389042
      py      :     1.506480
      dz2     :     0.007446  d :     0.075585
      dxz     :     0.017144
      dyz     :     0.016576
      dx2y2   :     0.016805
      dxy     :     0.017613
      f0      :     0.000560  f :     0.005072
      f+1     :     0.000735
      f-1     :     0.000374
      f+2     :     0.000637
      f-2     :     0.000930
      f+3     :     0.000824
      f-3     :     0.001013
 19 C s       :     2.695827  s :     2.695827
      pz      :     0.927337  p :     2.847888
      px      :     0.957135
      py      :     0.963416
      dz2     :     0.069105  d :     0.388800
      dxz     :     0.069876
      dyz     :     0.054753
      dx2y2   :     0.098887
      dxy     :     0.096179
      f0      :     0.003183  f :     0.040786
      f+1     :     0.005141
      f-1     :     0.005021
      f+2     :     0.007226
      f-2     :     0.006454
      f+3     :     0.007569
      f-3     :     0.006191
 20 H s       :     0.844079  s :     0.844079
      pz      :     0.039010  p :     0.149475
      px      :     0.044075
      py      :     0.066389
      dz2     :     0.002693  d :     0.027484
      dxz     :     0.002044
      dyz     :     0.006878
      dx2y2   :     0.008448
      dxy     :     0.007422
 21 H s       :     0.848956  s :     0.848956
      pz      :     0.071401  p :     0.150773
      px      :     0.040482
      py      :     0.038890
      dz2     :     0.009107  d :     0.027472
      dxz     :     0.009027
      dyz     :     0.008005
      dx2y2   :     0.000404
      dxy     :     0.000928
 22 H s       :     0.847526  s :     0.847526
      pz      :     0.048654  p :     0.150947
      px      :     0.063334
      py      :     0.038959
      dz2     :     0.006317  d :     0.027407
      dxz     :     0.006883
      dyz     :     0.002108
      dx2y2   :     0.005094
      dxy     :     0.007005
 23 H s       :     0.863813  s :     0.863813
      pz      :     0.035552  p :     0.147469
      px      :     0.038977
      py      :     0.072940
      dz2     :     0.002979  d :     0.027101
      dxz     :     0.002076
      dyz     :     0.006392
      dx2y2   :     0.007779
      dxy     :     0.007875
 24 H s       :     0.849011  s :     0.849011
      pz      :     0.080846  p :     0.151355
      px      :     0.029374
      py      :     0.041134
      dz2     :     0.010099  d :     0.027209
      dxz     :     0.006905
      dyz     :     0.008827
      dx2y2   :     0.000442
      dxy     :     0.000934
 25 H s       :     0.827986  s :     0.827986
      pz      :     0.053945  p :     0.151538
      px      :     0.040247
      py      :     0.057346
      dz2     :     0.007448  d :     0.027701
      dxz     :     0.004808
      dyz     :     0.006736
      dx2y2   :     0.004836
      dxy     :     0.003873
 26 H s       :     0.835229  s :     0.835229
      pz      :     0.040655  p :     0.150546
      px      :     0.042320
      py      :     0.067570
      dz2     :     0.003564  d :     0.027707
      dxz     :     0.001715
      dyz     :     0.008047
      dx2y2   :     0.007513
      dxy     :     0.006869
 27 H s       :     0.835946  s :     0.835946
      pz      :     0.037767  p :     0.153952
      px      :     0.074378
      py      :     0.041807
      dz2     :     0.002348  d :     0.027742
      dxz     :     0.008752
      dyz     :     0.000222
      dx2y2   :     0.006932
      dxy     :     0.009488
 28 H s       :     0.742412  s :     0.742412
      pz      :     0.058736  p :     0.253135
      px      :     0.088280
      py      :     0.106119
      dz2     :     0.007321  d :     0.061695
      dxz     :     0.003744
      dyz     :     0.015716
      dx2y2   :     0.016768
      dxy     :     0.018147
 29 H s       :     0.748128  s :     0.748128
      pz      :     0.115689  p :     0.254174
      px      :     0.094647
      py      :     0.043837
      dz2     :     0.022227  d :     0.061317
      dxz     :     0.016877
      dyz     :     0.011397
      dx2y2   :     0.006393
      dxy     :     0.004423
 30 H s       :     0.826055  s :     0.826055
      pz      :     0.037930  p :     0.148613
      px      :     0.071186
      py      :     0.039498
      dz2     :     0.002759  d :     0.028293
      dxz     :     0.007865
      dyz     :     0.002029
      dx2y2   :     0.008022
      dxy     :     0.007619
 31 H s       :     0.838707  s :     0.838707
      pz      :     0.051607  p :     0.156200
      px      :     0.067258
      py      :     0.037334
      dz2     :     0.004713  d :     0.027422
      dxz     :     0.006877
      dyz     :     0.002991
      dx2y2   :     0.006301
      dxy     :     0.006541
 32 H s       :     0.841596  s :     0.841596
      pz      :     0.037458  p :     0.150882
      px      :     0.039012
      py      :     0.074412
      dz2     :     0.002697  d :     0.026425
      dxz     :     0.000871
      dyz     :     0.007098
      dx2y2   :     0.007791
      dxy     :     0.007969
 33 H s       :     0.848185  s :     0.848185
      pz      :     0.057970  p :     0.158859
      px      :     0.049113
      py      :     0.051775
      dz2     :     0.005927  d :     0.027732
      dxz     :     0.004889
      dyz     :     0.005785
      dx2y2   :     0.005827
      dxy     :     0.005304
 34 H s       :     0.706172  s :     0.706172
      pz      :     0.118228  p :     0.347503
      px      :     0.083963
      py      :     0.145312
      dz2     :     0.024348  d :     0.099464
      dxz     :     0.012261
      dyz     :     0.023909
      dx2y2   :     0.019987
      dxy     :     0.018959
 35 H s       :     0.838157  s :     0.838157
      pz      :     0.041910  p :     0.158142
      px      :     0.040668
      py      :     0.075564
      dz2     :     0.002708  d :     0.028051
      dxz     :     0.001094
      dyz     :     0.007823
      dx2y2   :     0.008062
      dxy     :     0.008365


                      *****************************
                      * MAYER POPULATION ANALYSIS *
                      *****************************

  NA   - Mulliken gross atomic population
  ZA   - Total nuclear charge
  QA   - Mulliken gross atomic charge
  VA   - Mayer's total valence
  BVA  - Mayer's bonded valence
  FA   - Mayer's free valence

  ATOM       NA         ZA         QA         VA         BVA        FA
  0 C      6.2567     6.0000    -0.2567     3.9143     3.9143     0.0000
  1 C      5.9766     6.0000     0.0234     3.8773     3.8773     0.0000
  2 O      8.3401     8.0000    -0.3401     2.0130     2.0130    -0.0000
  3 C      5.5674     6.0000     0.4326     4.2528     4.2528     0.0000
  4 O      8.3799     8.0000    -0.3799     2.1277     2.1277    -0.0000
  5 C      6.2070     6.0000    -0.2070     3.5653     3.5653     0.0000
  6 C      5.8610     6.0000     0.1390     3.8052     3.8052     0.0000
  7 C      6.3146     6.0000    -0.3146     3.8761     3.8761    -0.0000
  8 N      7.1324     7.0000    -0.1324     3.2752     3.2752     0.0000
  9 C      5.8022     6.0000     0.1978     4.1544     4.1544    -0.0000
 10 S     16.4376    16.0000    -0.4376     1.7562     1.7562    -0.0000
 11 N      7.2063     7.0000    -0.2063     3.2564     3.2564     0.0000
 12 C      5.9349     6.0000     0.0651     3.9467     3.9467     0.0000
 13 C      5.9801     6.0000     0.0199     3.7275     3.7275     0.0000
 14 C      6.1769     6.0000    -0.1769     3.8691     3.8691     0.0000
 15 C      6.1350     6.0000    -0.1350     3.8134     3.8134     0.0000
 16 C      6.2762     6.0000    -0.2762     3.7893     3.7893     0.0000
 17 C      5.6794     6.0000     0.3206     3.8655     3.8655    -0.0000
 18 O      8.3588     8.0000    -0.3588     2.1159     2.1159    -0.0000
 19 C      6.2814     6.0000    -0.2814     3.8209     3.8209     0.0000
 20 H      0.8919     1.0000     0.1081     0.9860     0.9860     0.0000
 21 H      0.9021     1.0000     0.0979     0.9855     0.9855     0.0000
 22 H      0.9113     1.0000     0.0887     0.9808     0.9808     0.0000
 23 H      0.9151     1.0000     0.0849     0.9639     0.9639    -0.0000
 24 H      0.8901     1.0000     0.1099     0.9623     0.9623     0.0000
 25 H      0.8622     1.0000     0.1378     0.9848     0.9848     0.0000
 26 H      0.8750     1.0000     0.1250     0.9826     0.9826    -0.0000
 27 H      0.8793     1.0000     0.1207     0.9708     0.9708    -0.0000
 28 H      0.8026     1.0000     0.1974     1.0216     1.0216    -0.0000
 29 H      0.8039     1.0000     0.1961     1.0168     1.0168    -0.0000
 30 H      0.8386     1.0000     0.1614     0.9951     0.9951     0.0000
 31 H      0.8330     1.0000     0.1670     0.9859     0.9859     0.0000
 32 H      0.8367     1.0000     0.1633     0.9766     0.9766    -0.0000
 33 H      0.8675     1.0000     0.1325     0.9907     0.9907    -0.0000
 34 H      0.7585     1.0000     0.2415     1.0101     1.0101    -0.0000
 35 H      0.8274     1.0000     0.1726     0.9867     0.9867     0.0000

  Mayer bond orders larger than 0.100000
B(  0-C ,  1-C ) :   0.9869 B(  0-C , 20-H ) :   0.9774 B(  0-C , 21-H ) :   0.9799 
B(  0-C , 22-H ) :   0.9761 B(  1-C ,  2-O ) :   0.8942 B(  1-C , 23-H ) :   0.9725 
B(  1-C , 24-H ) :   0.9671 B(  2-O ,  3-C ) :   1.1514 B(  3-C ,  4-O ) :   2.0841 
B(  3-C ,  5-C ) :   0.9601 B(  5-C ,  6-C ) :   1.6619 B(  5-C , 12-C ) :   0.9586 
B(  6-C ,  7-C ) :   0.9464 B(  6-C ,  8-N ) :   1.1317 B(  7-C , 25-H ) :   0.9725 
B(  7-C , 26-H ) :   0.9784 B(  7-C , 27-H ) :   0.9652 B(  8-N ,  9-C ) :   1.1875 
B(  8-N , 28-H ) :   0.9513 B(  9-C , 10-S ) :   1.6139 B(  9-C , 11-N ) :   1.2942 
B( 11-N , 12-C ) :   0.9947 B( 11-N , 29-H ) :   0.9509 B( 12-C , 13-C ) :   0.9413 
B( 12-C , 30-H ) :   0.9979 B( 13-C , 14-C ) :   1.3869 B( 13-C , 19-C ) :   1.3523 
B( 14-C , 15-C ) :   1.3964 B( 14-C , 31-H ) :   0.9597 B( 15-C , 16-C ) :   1.3643 
B( 15-C , 32-H ) :   0.9703 B( 16-C , 17-C ) :   1.3294 B( 16-C , 33-H ) :   0.9843 
B( 17-C , 18-O ) :   1.1106 B( 17-C , 19-C ) :   1.3677 B( 18-O , 34-H ) :   0.9793 
B( 19-C , 35-H ) :   0.9596 

-------
TIMINGS
-------

Total SCF time: 0 days 1 hours 47 min 27 sec 

Total time                  ....    6447.980 sec
Sum of individual times     ....    6441.376 sec  ( 99.9%)

Fock matrix formation       ....    6426.971 sec  ( 99.7%)
Diagonalization             ....       1.362 sec  (  0.0%)
Density matrix formation    ....       0.240 sec  (  0.0%)
Population analysis         ....       0.415 sec  (  0.0%)
Initial guess               ....       5.375 sec  (  0.1%)
Orbital Transformation      ....       0.000 sec  (  0.0%)
Orbital Orthonormalization  ....       0.000 sec  (  0.0%)
DIIS solution               ....       3.355 sec  (  0.1%)
SOSCF solution              ....       2.208 sec  (  0.0%)

------------------------------------------------------------------------------
                                ORCA  MP2 
------------------------------------------------------------------------------

Freezing NCore=48 chemical core electrons

-------------
RI-MP2 ENERGY
-------------
Dimension of the basis                    ...  828
Memory devoted to MP2                     ...  256 MB   
Data format for buffers                   ... DOUBLE
Compression type for matrix containers    ... UNCOMPRESSED
Overall scaling of the MP2 energy         ...   1.000e+00
Calculating two index integrals           ... done (    0.044 sec)
Cholesky decomposition of V**-1           ... done (    0.356 sec)

-----------------
RI-TRANSFORMATION (AUX index driven)
-----------------

Dimension of the orbital-basis         ... 828
Dimension of the aux-basis             ... 2141
Transformation of internal/external MOs...   24-  76 to   77- 827
Number Format for Storage              ... Double (8 Byte)
Integral mode                          ... Direct

First Phase: integral generation and transformation of MO indices
  Aux angular momentum 0               ... done (    5.760 sec)
  Aux angular momentum 1               ... done (    9.708 sec)
  Aux angular momentum 2               ... done (   12.346 sec)
  Aux angular momentum 3               ... done (   10.116 sec)
  Aux angular momentum 4               ... done (    3.307 sec)
Closing buffer VIA ( 0.63 GB; CompressionRatio= 1.00)
  Phase 1 completed in    41.475 sec
Second Phase: sorting and transformation of aux index

IA-Transformation
Memory available                       ... 167 MB 
Max. # MO pairs treated in a batch     ... 12    
# of internal orbitals                 ... 53
# batches for internal orbitals        ... 5
Closing buffer IAV ( 0.63 GB; CompressionRatio= 1.00)
(ia|v) transformation done in    39.936 sec

  Phase 2 completed in    39.942 sec
RI-Integral transformation completed in    81.485 sec
Opening buffers                              ... done

Starting loop over batches of integrals:

Operator 0  - window                       ... ( 24- 76)x( 77-827)
Operator 0  - Memory available             ...   256 MB
Operator 0  - Memory needed per MO         ...  12.3 MB
Operator 0  - Number of orbitals per batch ... 13
Operator 0  - Number of batches            ... 5

OPERATOR  0   PASS   0:  MOs    24 ...   36
  Reading integrals       ... ok
  Internal MO  26
  Internal MO  29
  Internal MO  32
  Internal MO  35
OPERATOR  0   PASS   1:  MOs    37 ...   49
  Reading integrals       ... ok
  Internal MO  38
  Internal MO  41
  Internal MO  44
  Internal MO  47
OPERATOR  0   PASS   2:  MOs    50 ...   62
  Reading integrals       ... ok
  Internal MO  50
  Internal MO  53
  Internal MO  56
  Internal MO  59
  Internal MO  62
OPERATOR  0   PASS   3:  MOs    63 ...   75
  Reading integrals       ... ok
  Internal MO  65
  Internal MO  68
  Internal MO  71
  Internal MO  74
OPERATOR  0   PASS   4:  MOs    76 ...   76
  Reading integrals       ... ok
Time spent in pair loops =   143.124 sec
Deleting buffer (Ka|jb)[aa] ...done

-----------------------------------------------
 RI-MP2 CORRELATION ENERGY:     -3.535481646 Eh
-----------------------------------------------


-------
TIMINGS
-------

Total time                :  225.145 sec
Integral trafo            :   81.502 sec ( 36.2%)
I/O of integrals          :    6.043 sec (  2.7%)
K(i,j) Operators          :   58.421 sec ( 25.9%)
T(i,j) pair energies      :    9.885 sec (  4.4%)
V-calculation             :    0.044 sec (  0.0%)
V**(-1/2)                 :    0.356 sec (  0.2%)
Gamma(ia|P)               :    0.000 sec (  0.0%)
Gamma-Trafo               :    0.000 sec (  0.0%)
D(virtual)                :    0.000 sec (  0.0%)
D(internal)               :    0.000 sec (  0.0%)
W(virtual)                :    0.000 sec (  0.0%)
W(internal)               :    0.000 sec (  0.0%)
L(virtual)                :    0.000 sec (  0.0%)
L(internal)               :    0.000 sec (  0.0%)
G(D)                      :    0.000 sec (  0.0%)
G(Z)                      :    0.000 sec (  0.0%)
Z-Vector Solution         :    0.000 sec (  0.0%)
3-Index Derivative        :    0.000 sec (  0.0%)
2-Index Derivative        :    0.000 sec (  0.0%)
Separable Gradient        :    0.000 sec (  0.0%)


---------------------------------------
MP2 TOTAL ENERGY:    -1274.332772158 Eh
---------------------------------------

-------------------------   --------------------
FINAL SINGLE POINT ENERGY     -1274.332772158481
-------------------------   --------------------


                            ***************************************
                            *     ORCA property calculations      *
                            ***************************************


  WARNING: The energy has been calculated at the MP2 level but the densities
           used in the property calculations are still SCF densities
           MP2 response densities have not been calculated 
           use %mp2 Density relaxed end
           or  %mp2 Density unrelaxed end

                                    ---------------------
                                    Active property flags
                                    ---------------------
   (+) Dipole Moment


------------------------------------------------------------------------------
                       ORCA ELECTRIC PROPERTIES CALCULATION
------------------------------------------------------------------------------

Dipole Moment Calculation                       ... on
Quadrupole Moment Calculation                   ... off
Polarizability Calculation                      ... off
GBWName                                         ... CONFS/Conf105.orca.gbw
Electron density file                           ... CONFS/Conf105.orca.scfp
The origin for moment calculation is the CENTER OF MASS  = (32.857557, 31.453312 35.261428)

-------------
DIPOLE MOMENT
-------------
                                X             Y             Z
Electronic contribution:     10.90606       8.88349       7.32185
Nuclear contribution   :    -12.35485      -9.88650      -7.66185
                        -----------------------------------------
Total Dipole Moment    :     -1.44879      -1.00300      -0.34000
                        -----------------------------------------
Magnitude (a.u.)       :      1.79460
Magnitude (Debye)      :      4.56152



--------------------
Rotational spectrum 
--------------------
 
Rotational constants in cm-1:     0.011553     0.009235     0.006666 
Rotational constants in MHz :   346.345732   276.860250   199.849729 

 Dipole components along the rotational axes: 
x,y,z [a.u.] :    -1.419583    -0.448166     1.002263 
x,y,z [Debye]:    -3.608293    -1.139149     2.547550 

 

Timings for individual modules:

Sum of individual times         ...     6676.365 sec (= 111.273 min)
GTO integral calculation        ...        1.935 sec (=   0.032 min)   0.0 %
SCF iterations                  ...     6448.573 sec (= 107.476 min)  96.6 %
MP2 module                      ...      225.857 sec (=   3.764 min)   3.4 %
                             ****ORCA TERMINATED NORMALLY****
TOTAL RUN TIME: 0 days 1 hours 51 minutes 17 seconds 473 msec
