
                                 *****************
                                 * O   R   C   A *
                                 *****************

           --- An Ab Initio, DFT and Semiempirical electronic structure package ---

                  #######################################################
                  #                        -***-                        #
                  #          Department of theory and spectroscopy      #
                  #               Directorship: Frank Neese             #
                  #        Max Planck Institute fuer Kohlenforschung    #
                  #                Kaiser Wilhelm Platz 1               #
                  #                 D-45470 Muelheim/Ruhr               #
                  #                      Germany                        #
                  #                                                     #
                  #                  All rights reserved                #
                  #                        -***-                        #
                  #######################################################


                         Program Version 4.2.0 -  RELEASE  -


 With contributions from (in alphabetic order):
   Daniel Aravena         : Magnetic Suceptibility
   Michael Atanasov       : Ab Initio Ligand Field Theory (pilot matlab implementation)
   Alexander A. Auer      : GIAO ZORA, VPT2
   Ute Becker             : Parallelization
   Giovanni Bistoni       : ED, misc. LED, open-shell LED, HFLED
   Martin Brehm           : Molecular dynamics
   Dmytro Bykov           : SCF Hessian
   Vijay G. Chilkuri      : MRCI spin determinant printing, contributions to CSF-ICE
   Dipayan Datta          : RHF DLPNO-CCSD density
   Achintya Kumar Dutta   : EOM-CC, STEOM-CC
   Dmitry Ganyushin       : Spin-Orbit,Spin-Spin,Magnetic field MRCI
   Miquel Garcia          : C-PCM Hessian, Gaussian charge scheme
   Yang Guo               : DLPNO-NEVPT2, CIM, IAO-localization
   Andreas Hansen         : Spin unrestricted coupled pair/coupled cluster methods
   Benjamin Helmich-Paris : CASSCF linear response (MC-RPA)
   Lee Huntington         : MR-EOM, pCC
   Robert Izsak           : Overlap fitted RIJCOSX, COSX-SCS-MP3, EOM
   Christian Kollmar      : KDIIS, OOCD, Brueckner-CCSD(T), CCSD density
   Simone Kossmann        : Meta GGA functionals, TD-DFT gradient, OOMP2, MP2 Hessian
   Martin Krupicka        : AUTO-CI
   Lucas Lang             : DCDCAS
   Dagmar Lenk            : GEPOL surface, SMD
   Dimitrios Liakos       : Extrapolation schemes; Compound Job, initial MDCI parallelization
   Dimitrios Manganas     : Further ROCIS development; embedding schemes
   Dimitrios Pantazis     : SARC Basis sets
   Taras Petrenko         : DFT Hessian,TD-DFT gradient, ASA, ECA, R-Raman, ABS, FL, XAS/XES, NRVS
   Peter Pinski           : DLPNO-MP2, DLPNO-MP2 Gradient
   Christoph Reimann      : Effective Core Potentials
   Marius Retegan         : Local ZFS, SOC
   Christoph Riplinger    : Optimizer, TS searches, QM/MM, DLPNO-CCSD(T), (RO)-DLPNO pert. Triples
   Tobias Risthaus        : Range-separated hybrids, TD-DFT gradient, RPA, STAB
   Michael Roemelt        : Original ROCIS implementation
   Masaaki Saitow         : Open-shell DLPNO-CCSD energy and density
   Barbara Sandhoefer     : DKH picture change effects
   Avijit Sen             : IP-ROCIS
   Kantharuban Sivalingam : CASSCF convergence, NEVPT2, FIC-MRCI
   Bernardo de Souza      : ESD, SOC TD-DFT
   Georgi Stoychev        : AutoAux, RI-MP2 NMR
   Willem Van den Heuvel  : Paramagnetic NMR
   Boris Wezisla          : Elementary symmetry handling
   Frank Wennmohs         : Technical directorship


 We gratefully acknowledge several colleagues who have allowed us to
 interface, adapt or use parts of their codes:
   Stefan Grimme, W. Hujo, H. Kruse,             : VdW corrections, initial TS optimization,
                  C. Bannwarth                     DFT functionals, gCP, sTDA/sTD-DF
   Ed Valeev, F. Pavosevic, A. Kumar             : LibInt (2-el integral package), F12 methods
   Garnet Chan, S. Sharma, J. Yang, R. Olivares  : DMRG
   Ulf Ekstrom                                   : XCFun DFT Library
   Mihaly Kallay                                 : mrcc  (arbitrary order and MRCC methods)
   Andreas Klamt, Michael Diedenhofen            : otool_cosmo (COSMO solvation model)
   Jiri Pittner, Ondrej Demel                    : Mk-CCSD
   Frank Weinhold                                : gennbo (NPA and NBO analysis)
   Christopher J. Cramer and Donald G. Truhlar   : smd solvation model
   Lars Goerigk                                  : TD-DFT with DH, B97 family of functionals
   V. Asgeirsson, H. Jonsson                     : NEB implementation
   FAccTs GmbH                                   : IRC, NEB, NEB-TS, Multilevel, MM, QM/MM, CI optimization
   S Lehtola, MJT Oliveira, MAL Marques          : LibXC Library


 Your calculation uses the libint2 library for the computation of 2-el integrals
 For citations please refer to: http://libint.valeyev.net

 Your ORCA version has been built with support for libXC version: 4.2.3
 For citations please refer to: https://tddft.org/programs/libxc/

 This ORCA versions uses:
   CBLAS   interface :  Fast vector & matrix operations
   LAPACKE interface :  Fast linear algebra routines
   SCALAPACK package :  Parallel linear algebra routines


----- Orbital basis set information -----
Your calculation utilizes the basis: cc-pVTZ 
       H, B-Ne : Obtained from the ccRepo (grant-hill.group.shef.ac.uk/ccrepo) Feb. 2017
                 T. H. Dunning, Jr., J. Chem. Phys. 90, 1007 (1989)
            He : Obtained from the ccRepo (grant-hill.group.shef.ac.uk/ccrepo) Feb. 2017
                 D. E. Woon, T. H. Dunning, Jr., J. Chem. Phys. 100, 2975 (1994)
  Li-Be, Na-Mg : Obtained from the ccRepo (grant-hill.group.shef.ac.uk/ccrepo) Feb. 2017
                 B. P. Prascher, D. E. Woon, K. A. Peterson, T. H. Dunning, Jr., A. K. Wilson, Theor. Chem. Acc. 128, 69 (2011)
         Al-Ar : Obtained from the ccRepo (grant-hill.group.shef.ac.uk/ccrepo) Feb. 2017
                 D. E. Woon, T. H. Dunning, Jr., J. Chem. Phys. 98, 1358 (1993)
            Ca : Obtained from the Peterson Research Group Website (tyr0.chem.wsu.edu/~kipeters) Feb. 2017
                 J. Koput, K. A. Peterson, J. Phys. Chem. 106, 9595 (2002)
         Sc-Zn : Obtained from the ccRepo (grant-hill.group.shef.ac.uk/ccrepo) Feb. 2017
                 N. B. Balabanov, K. A. Peterson, J. Chem. Phys. 123, 064107 (2005)
                 N. B. Balabanov, K. A. Peterson, J. Chem. Phys. 125, 074110 (2006)
         Ga-Kr : Obtained from the ccRepo (grant-hill.group.shef.ac.uk/ccrepo) Feb. 2017
                 A. K. Wilson, D. E. Woon, K. A. Peterson, T. H. Dunning, Jr., J. Chem. Phys. 110, 7667 (1999)
             Y : Obtained from the ccRepo (grant-hill.group.shef.ac.uk/ccrepo) Feb. 2017
                 K. A. Peterson, D. Figgen, M. Dolg, H. Stoll, J. Chem. Phys. 126, 124101 (2007)
        Ag, Au : Obtained from the Peterson Research Group Website (tyr0.chem.wsu.edu/~kipeters) Feb. 2017
                 K. A. Peterson, C. Puzzarini, Theor. Chem. Acc. 114, 283 (2005)

----- AuxC basis set information -----
Your calculation utilizes the auxiliary basis: cc-pVTZ/C 
  Obtained from the EMSL Basis Set Exchange (bse.pnl.gov) Feb. 2017
  H-He, B-F, Al-Ar, Ga-Kr : F. Weigend, A. Kohn, C. Hattig, J. Chem. Phys. 116, 3175 (2002)
             Li-Be, Na-Mg : C. Haettig, Phys. Chem. Chem. Phys. 7, 59 (2005)
                       Ne : C. Haettig, Phys. Chem. Chem. Phys. 7, 59 (2005)
                            F. Weigend, A. Kohn, C. Hattig, J. Chem. Phys. 116, 3175 (2002)
                    Sc-Zn : J. G. Hill, J. A. Platts, J. Chem. Phys. 128, 044104 (2008)

================================================================================
                                        WARNINGS
                       Please study these warnings very carefully!
================================================================================


WARNING: No MP2 level density has been requested!
         To caclulate MP2 level properties use
         %mp2 Density relaxed end
         or
         %mp2 Density unrelaxed end

WARNING: Post HF methods need fully converged wavefunctions
  ===> : Setting SCFConvForced true
         You can overwrite this default with %scf ConvForced false 


INFO   : the flag for use of LIBINT has been found!

================================================================================
                                       INPUT FILE
================================================================================
NAME = CONFS/Conf340.orca
|  1> ! ri-mp2 cc-pvtz cc-pvtz/c TightSCF  NoKeepInts
|  2> 
|  3> %scf
|  4>   MaxCore 4096
|  5> end
|  6> *xyz  0  1
|  7>     C       15.1412028   13.9393353   16.7087885
|  8>     C       16.5225828   13.9964595   16.0215351
|  9>     O       17.3105304   15.0612985   16.5875868
| 10>     C       16.9081886   16.3654856   16.4880863
| 11>     O       16.0856227   16.7351433   15.6671131
| 12>     C       17.6296710   17.2679154   17.4498893
| 13>     C       17.4946515   18.6179883   17.4245113
| 14>     C       16.6517322   19.4364797   16.4701453
| 15>     N       18.2028205   19.4107906   18.3324793
| 16>     C       19.1170017   18.9417913   19.2375855
| 17>     S       19.9664091   19.9574946   20.2289553
| 18>     N       19.2938413   17.5824699   19.2817294
| 19>     C       18.5115516   16.5958530   18.5147245
| 20>     C       17.6870858   15.7339269   19.4669364
| 21>     C       17.9783110   14.3659153   19.6250995
| 22>     C       17.2123476   13.5672227   20.4908362
| 23>     C       16.1479187   14.1412392   21.2066353
| 24>     C       15.8582679   15.5042379   21.0552432
| 25>     O       14.8313469   16.0613782   21.7451037
| 26>     C       16.6222016   16.2964781   20.1928268
| 27>     H       15.2540788   13.8925979   17.7995129
| 28>     H       14.5912915   13.0479993   16.3840235
| 29>     H       14.5306009   14.8160104   16.4606461
| 30>     H       17.0426271   13.0421966   16.1739933
| 31>     H       16.3959814   14.1481840   14.9409960
| 32>     H       16.9394067   19.2346837   15.4304840
| 33>     H       16.7434179   20.5164618   16.6344486
| 34>     H       15.5908729   19.1741561   16.5723623
| 35>     H       18.0856900   20.4113025   18.3154944
| 36>     H       19.9448878   17.2642643   19.9879322
| 37>     H       19.2291389   15.9481237   17.9917749
| 38>     H       18.7960630   13.9181932   19.0668132
| 39>     H       17.4438095   12.5095960   20.6042789
| 40>     H       15.5534123   13.5286760   21.8764215
| 41>     H       14.4473842   15.3703417   22.3053126
| 42>     H       16.3850513   17.3503095   20.0936946
| 43> *
| 44> 
| 45>                          ****END OF INPUT****
================================================================================

                       ****************************
                       * Single Point Calculation *
                       ****************************

---------------------------------
CARTESIAN COORDINATES (ANGSTROEM)
---------------------------------
  C     15.141203   13.939335   16.708789
  C     16.522583   13.996460   16.021535
  O     17.310530   15.061298   16.587587
  C     16.908189   16.365486   16.488086
  O     16.085623   16.735143   15.667113
  C     17.629671   17.267915   17.449889
  C     17.494651   18.617988   17.424511
  C     16.651732   19.436480   16.470145
  N     18.202821   19.410791   18.332479
  C     19.117002   18.941791   19.237586
  S     19.966409   19.957495   20.228955
  N     19.293841   17.582470   19.281729
  C     18.511552   16.595853   18.514724
  C     17.687086   15.733927   19.466936
  C     17.978311   14.365915   19.625099
  C     17.212348   13.567223   20.490836
  C     16.147919   14.141239   21.206635
  C     15.858268   15.504238   21.055243
  O     14.831347   16.061378   21.745104
  C     16.622202   16.296478   20.192827
  H     15.254079   13.892598   17.799513
  H     14.591291   13.047999   16.384024
  H     14.530601   14.816010   16.460646
  H     17.042627   13.042197   16.173993
  H     16.395981   14.148184   14.940996
  H     16.939407   19.234684   15.430484
  H     16.743418   20.516462   16.634449
  H     15.590873   19.174156   16.572362
  H     18.085690   20.411303   18.315494
  H     19.944888   17.264264   19.987932
  H     19.229139   15.948124   17.991775
  H     18.796063   13.918193   19.066813
  H     17.443810   12.509596   20.604279
  H     15.553412   13.528676   21.876421
  H     14.447384   15.370342   22.305313
  H     16.385051   17.350310   20.093695

----------------------------
CARTESIAN COORDINATES (A.U.)
----------------------------
  NO LB      ZA    FRAG     MASS         X           Y           Z
   0 C     6.0000    0    12.011   28.612727   26.341526   31.575034
   1 C     6.0000    0    12.011   31.223157   26.449475   30.276314
   2 O     8.0000    0    15.999   32.712162   28.461729   31.345996
   3 C     6.0000    0    12.011   31.951846   30.926286   31.157968
   4 O     8.0000    0    15.999   30.397422   31.624838   29.606553
   5 C     6.0000    0    12.011   33.315250   32.631631   32.975512
   6 C     6.0000    0    12.011   33.060100   35.182899   32.927554
   7 C     6.0000    0    12.011   31.467214   36.729624   31.124064
   8 N     7.0000    0    14.007   34.398346   36.681078   34.643365
   9 C     6.0000    0    12.011   36.125898   35.794798   36.353768
  10 S    16.0000    0    32.060   37.731045   37.714199   38.227185
  11 N     7.0000    0    14.007   36.460076   33.226053   36.437188
  12 C     6.0000    0    12.011   34.981763   31.361617   34.987759
  13 C     6.0000    0    12.011   33.423748   29.732813   36.787178
  14 C     6.0000    0    12.011   33.974084   27.147646   37.086063
  15 C     6.0000    0    12.011   32.526623   25.638335   38.722069
  16 C     6.0000    0    12.011   30.515144   26.723069   40.074733
  17 C     6.0000    0    12.011   29.967783   29.298764   39.788643
  18 O     8.0000    0    15.999   28.027184   30.351606   41.092291
  19 C     6.0000    0    12.011   31.411409   30.795881   38.158913
  20 H     1.0000    0     1.008   28.826031   26.253205   33.636205
  21 H     1.0000    0     1.008   27.573545   24.657145   30.961317
  22 H     1.0000    0     1.008   27.458856   27.998202   31.106113
  23 H     1.0000    0     1.008   32.205898   24.646180   30.564418
  24 H     1.0000    0     1.008   30.983915   26.736193   28.234391
  25 H     1.0000    0     1.008   32.010840   36.348284   29.159389
  26 H     1.0000    0     1.008   31.640474   38.770494   31.434552
  27 H     1.0000    0     1.008   29.462480   36.233904   31.317226
  28 H     1.0000    0     1.008   34.177001   38.571772   34.611268
  29 H     1.0000    0     1.008   37.690376   32.624731   37.771718
  30 H     1.0000    0     1.008   36.337806   30.137586   33.999527
  31 H     1.0000    0     1.008   35.519411   26.301573   36.031055
  32 H     1.0000    0     1.008   32.964023   23.639710   38.936444
  33 H     1.0000    0     1.008   29.391690   25.565493   41.340445
  34 H     1.0000    0     1.008   27.301599   29.045736   42.150932
  35 H     1.0000    0     1.008   30.963260   32.787333   37.971580

--------------------------------
INTERNAL COORDINATES (ANGSTROEM)
--------------------------------
 C      0   0   0     0.000000000000     0.00000000     0.00000000
 C      1   0   0     1.543953080387     0.00000000     0.00000000
 O      2   1   0     1.440540885688   109.98809598     0.00000000
 C      3   2   1     1.368460180398   121.00326483   297.46424619
 O      4   3   2     1.219532070152   122.42080064   341.35214004
 C      4   3   2     1.503323454299   112.61109740   163.73911500
 C      6   4   3     1.357045004257   122.51299804   172.67381125
 C      7   6   4     1.513689393549   127.23921183   359.35451047
 N      7   6   4     1.398014559463   120.10807817   180.80349498
 C      9   7   6     1.369271646939   124.97819370     3.97708616
 S     10   9   7     1.654073820952   121.91774892   176.99373411
 N     10   9   7     1.371486637388   116.54117038   356.97743560
 C     12  10   9     1.474342768394   125.31663349   355.03667323
 C     13  12  10     1.526226706532   109.87549653   245.87675208
 C     14  13  12     1.407580697882   120.47791025   247.53496163
 C     15  14  13     1.405030189413   120.59167542   180.64549638
 C     16  15  14     1.405301454133   119.64208078   359.87254729
 C     17  16  15     1.401635690929   119.91504998   359.89228569
 O     18  17  16     1.356790169328   120.05316518   180.00901557
 C     18  17  16     1.398213602952   120.31168849     0.11645324
 H      1   2   3     1.097545029915   110.60480960   307.50640797
 H      1   2   3     1.096519314918   110.30015551   187.92393180
 H      1   2   3     1.096799235011   111.58081095    68.29719012
 H      2   1   3     1.097409339775   109.26715843   119.86640622
 H      2   1   3     1.098459368848   109.86814351   238.35944159
 H      8   7   6     1.097439685032   110.60329485   302.85192676
 H      8   7   6     1.096249596714   113.05608840   182.20517486
 H      8   7   6     1.097581177227   110.50453792    61.54256642
 H      9   7   6     1.007488016256   119.55928308   180.92447185
 H     12  10   9     1.011849170460   114.65270856   182.58088058
 H     13  12  10     1.099072819853   107.18653199   128.20899067
 H     15  14  13     1.086672446094   119.89404870     0.04588148
 H     16  15  14     1.088585363620   120.03855416   179.83448144
 H     17  16  15     1.085027689668   119.92302586   179.99844333
 H     19  18  17     0.968913211264   107.52054922     2.06419765
 H     20  18  17     1.084724885624   119.16919853   180.31597285

---------------------------
INTERNAL COORDINATES (A.U.)
---------------------------
 C      0   0   0     0.000000000000     0.00000000     0.00000000
 C      1   0   0     2.917648485556     0.00000000     0.00000000
 O      2   1   0     2.722227758667   109.98809598     0.00000000
 C      3   2   1     2.586014966128   121.00326483   297.46424619
 O      4   3   2     2.304581624122   122.42080064   341.35214004
 C      4   3   2     2.840869619326   112.61109740   163.73911500
 C      6   4   3     2.564443409452   122.51299804   172.67381125
 C      7   6   4     2.860458405629   127.23921183   359.35451047
 N      7   6   4     2.641864648619   120.10807817   180.80349498
 C      9   7   6     2.587548415659   124.97819370     3.97708616
 S     10   9   7     3.125746526887   121.91774892   176.99373411
 N     10   9   7     2.591734140996   116.54117038   356.97743560
 C     12  10   9     2.786104059792   125.31663349   355.03667323
 C     13  12  10     2.884150493623   109.87549653   245.87675208
 C     14  13  12     2.659942030392   120.47791025   247.53496163
 C     15  14  13     2.655122267882   120.59167542   180.64549638
 C     16  15  14     2.655634883913   119.64208078   359.87254729
 C     17  16  15     2.648707595384   119.91504998   359.89228569
 O     18  17  16     2.563961841227   120.05316518   180.00901557
 C     18  17  16     2.642240786303   120.31168849     0.11645324
 H      1   2   3     2.074059526185   110.60480960   307.50640797
 H      1   2   3     2.072121205750   110.30015551   187.92393180
 H      1   2   3     2.072650178066   111.58081095    68.29719012
 H      2   1   3     2.073803108983   109.26715843   119.86640622
 H      2   1   3     2.075787376364   109.86814351   238.35944159
 H      8   7   6     2.073860453208   110.60329485   302.85192676
 H      8   7   6     2.071611512211   113.05608840   182.20517486
 H      8   7   6     2.074127834705   110.50453792    61.54256642
 H      9   7   6     1.903876433932   119.55928308   180.92447185
 H     12  10   9     1.912117821006   114.65270856   182.58088058
 H     13  12  10     2.076946630759   107.18653199   128.20899067
 H     15  14  13     2.053513320396   119.89404870     0.04588148
 H     16  15  14     2.057128210637   120.03855416   179.83448144
 H     17  16  15     2.050405181193   119.92302586   179.99844333
 H     19  18  17     1.830980616828   107.52054922     2.06419765
 H     20  18  17     2.049832964479   119.16919853   180.31597285

---------------------
BASIS SET INFORMATION
---------------------
There are 5 groups of distinct atoms

 Group   1 Type C   : 18s5p2d1f contracted to 4s3p2d1f pattern {8811/311/11/1}
 Group   2 Type O   : 18s5p2d1f contracted to 4s3p2d1f pattern {8811/311/11/1}
 Group   3 Type N   : 18s5p2d1f contracted to 4s3p2d1f pattern {8811/311/11/1}
 Group   4 Type S   : 41s16p2d1f contracted to 5s4p2d1f pattern {13131311/7711/11/1}
 Group   5 Type H   : 5s2p1d contracted to 3s2p1d pattern {311/11/1}

Atom   0C    basis set group =>   1
Atom   1C    basis set group =>   1
Atom   2O    basis set group =>   2
Atom   3C    basis set group =>   1
Atom   4O    basis set group =>   2
Atom   5C    basis set group =>   1
Atom   6C    basis set group =>   1
Atom   7C    basis set group =>   1
Atom   8N    basis set group =>   3
Atom   9C    basis set group =>   1
Atom  10S    basis set group =>   4
Atom  11N    basis set group =>   3
Atom  12C    basis set group =>   1
Atom  13C    basis set group =>   1
Atom  14C    basis set group =>   1
Atom  15C    basis set group =>   1
Atom  16C    basis set group =>   1
Atom  17C    basis set group =>   1
Atom  18O    basis set group =>   2
Atom  19C    basis set group =>   1
Atom  20H    basis set group =>   5
Atom  21H    basis set group =>   5
Atom  22H    basis set group =>   5
Atom  23H    basis set group =>   5
Atom  24H    basis set group =>   5
Atom  25H    basis set group =>   5
Atom  26H    basis set group =>   5
Atom  27H    basis set group =>   5
Atom  28H    basis set group =>   5
Atom  29H    basis set group =>   5
Atom  30H    basis set group =>   5
Atom  31H    basis set group =>   5
Atom  32H    basis set group =>   5
Atom  33H    basis set group =>   5
Atom  34H    basis set group =>   5
Atom  35H    basis set group =>   5
---------------------------------
AUXILIARY/C BASIS SET INFORMATION
---------------------------------
There are 5 groups of distinct atoms

 Group   1 Type C   : 8s6p5d3f1g contracted to 8s6p5d3f1g pattern {11111111/111111/11111/111/1}
 Group   2 Type O   : 8s6p5d3f1g contracted to 8s6p5d3f1g pattern {11111111/111111/11111/111/1}
 Group   3 Type N   : 8s6p5d3f1g contracted to 8s6p5d3f1g pattern {11111111/111111/11111/111/1}
 Group   4 Type S   : 10s8p7d5f2g contracted to 10s8p7d5f2g pattern {1111111111/11111111/1111111/11111/11}
 Group   5 Type H   : 4s3p2d1f contracted to 4s3p2d1f pattern {1111/111/11/1}

Atom   0C    basis set group =>   1
Atom   1C    basis set group =>   1
Atom   2O    basis set group =>   2
Atom   3C    basis set group =>   1
Atom   4O    basis set group =>   2
Atom   5C    basis set group =>   1
Atom   6C    basis set group =>   1
Atom   7C    basis set group =>   1
Atom   8N    basis set group =>   3
Atom   9C    basis set group =>   1
Atom  10S    basis set group =>   4
Atom  11N    basis set group =>   3
Atom  12C    basis set group =>   1
Atom  13C    basis set group =>   1
Atom  14C    basis set group =>   1
Atom  15C    basis set group =>   1
Atom  16C    basis set group =>   1
Atom  17C    basis set group =>   1
Atom  18O    basis set group =>   2
Atom  19C    basis set group =>   1
Atom  20H    basis set group =>   5
Atom  21H    basis set group =>   5
Atom  22H    basis set group =>   5
Atom  23H    basis set group =>   5
Atom  24H    basis set group =>   5
Atom  25H    basis set group =>   5
Atom  26H    basis set group =>   5
Atom  27H    basis set group =>   5
Atom  28H    basis set group =>   5
Atom  29H    basis set group =>   5
Atom  30H    basis set group =>   5
Atom  31H    basis set group =>   5
Atom  32H    basis set group =>   5
Atom  33H    basis set group =>   5
Atom  34H    basis set group =>   5
Atom  35H    basis set group =>   5
------------------------------------------------------------------------------
                           ORCA GTO INTEGRAL CALCULATION
------------------------------------------------------------------------------

                         BASIS SET STATISTICS AND STARTUP INFO

 # of primitive gaussian shells          ...  682
 # of primitive gaussian functions       ... 1312
 # of contracted shells                  ...  298
 # of contracted basis functions         ...  828
 Highest angular momentum                ...    3
 Maximum contraction depth               ...   13
 Integral package used                   ... LIBINT
 Integral threshhold            Thresh   ...  2.500e-11
 Primitive cut-off              TCut     ...  2.500e-12


------------------------------ INTEGRAL EVALUATION ----------------------------


 * One electron integrals 
 Pre-screening matrix                    ... done
 Shell pair data                         ... done (   0.012 sec)

-------------------------------------------------------------------------------
                                 ORCA SCF
-------------------------------------------------------------------------------

------------
SCF SETTINGS
------------
Hamiltonian:
 Ab initio Hamiltonian  Method          .... Hartree-Fock(GTOs)


General Settings:
 Integral files         IntName         .... CONFS/Conf340.orca
 Hartree-Fock type      HFTyp           .... RHF
 Total Charge           Charge          ....    0
 Multiplicity           Mult            ....    1
 Number of Electrons    NEL             ....  154
 Basis Dimension        Dim             ....  828
 Nuclear Repulsion      ENuc            ....   1712.1317805404 Eh

Convergence Acceleration:
 DIIS                   CNVDIIS         .... on
   Start iteration      DIISMaxIt       ....    12
   Startup error        DIISStart       ....  0.200000
   # of expansion vecs  DIISMaxEq       ....     5
   Bias factor          DIISBfac        ....   1.050
   Max. coefficient     DIISMaxC        ....  10.000
 Newton-Raphson         CNVNR           .... off
 SOSCF                  CNVSOSCF        .... on
   Start iteration      SOSCFMaxIt      ....   150
   Startup grad/error   SOSCFStart      ....  0.003300
 Level Shifting         CNVShift        .... on
   Level shift para.    LevelShift      ....    0.2500
   Turn off err/grad.   ShiftErr        ....    0.0010
 Zerner damping         CNVZerner       .... off
 Static damping         CNVDamp         .... on
   Fraction old density DampFac         ....    0.7000
   Max. Damping (<1)    DampMax         ....    0.9800
   Min. Damping (>=0)   DampMin         ....    0.0000
   Turn off err/grad.   DampErr         ....    0.1000
 Fernandez-Rico         CNVRico         .... off

SCF Procedure:
 Maximum # iterations   MaxIter         ....   125
 SCF integral mode      SCFMode         .... Direct
   Integral package                     .... LIBINT
 Reset frequency        DirectResetFreq ....    20
 Integral Threshold     Thresh          ....  2.500e-11 Eh
 Primitive CutOff       TCut            ....  2.500e-12 Eh

Convergence Tolerance:
 Convergence Check Mode ConvCheckMode   .... Total+1el-Energy
 Convergence forced     ConvForced      .... 1
 Energy Change          TolE            ....  1.000e-08 Eh
 1-El. energy change                    ....  1.000e-05 Eh
 Orbital Gradient       TolG            ....  1.000e-05
 Orbital Rotation angle TolX            ....  1.000e-05
 DIIS Error             TolErr          ....  5.000e-07


Diagonalization of the overlap matrix:
Smallest eigenvalue                        ... 3.455e-05
Time for diagonalization                   ...    0.301 sec
Threshold for overlap eigenvalues          ... 1.000e-08
Number of eigenvalues below threshold      ... 0
Time for construction of square roots      ...    0.400 sec
Total time needed                          ...    0.703 sec

-------------------
DFT GRID GENERATION
-------------------

General Integration Accuracy     IntAcc      ...  4.340
Radial Grid Type                 RadialGrid  ... Gauss-Chebyshev
Angular Grid (max. acc.)         AngularGrid ... Lebedev-110
Angular grid pruning method      GridPruning ... 3 (G Style)
Weight generation scheme         WeightScheme... Becke
Basis function cutoff            BFCut       ...    1.0000e-11
Integration weight cutoff        WCut        ...    1.0000e-14
Grids for H and He will be reduced by one unit

# of grid points (after initial pruning)     ...  46246 (   0.0 sec)
# of grid points (after weights+screening)   ...  41233 (   0.3 sec)
nearest neighbour list constructed           ...    0.0 sec
Grid point re-assignment to atoms done       ...    0.0 sec
Grid point division into batches done        ...    0.0 sec
Reduced shell lists constructed in    0.9 sec

Total number of grid points                  ...    41233
Total number of batches                      ...      663
Average number of points per batch           ...       62
Average number of grid points per atom       ...     1145
Average number of shells per batch           ...   150.31 (50.44%)
Average number of basis functions per batch  ...   382.44 (46.19%)
Average number of large shells per batch     ...    96.14 (63.96%)
Average number of large basis fcns per batch ...   246.91 (64.56%)
Maximum spatial batch extension              ...  20.22, 20.55, 20.87 au
Average spatial batch extension              ...   3.56,  3.25,  3.47 au

Time for grid setup =    1.148 sec

------------------------------
INITIAL GUESS: MODEL POTENTIAL
------------------------------
Loading Hartree-Fock densities                     ... done
Calculating cut-offs                               ... done
Setting up the integral package                    ... done
Initializing the effective Hamiltonian             ... done
Starting the Coulomb interaction                   ... done (   2.9 sec)
Reading the grid                                   ... done
Mapping shells                                     ... done
Starting the XC term evaluation                    ... done (   1.0 sec)
Transforming the Hamiltonian                       ... done (   0.2 sec)
Diagonalizing the Hamiltonian                      ... done (   0.3 sec)
Back transforming the eigenvectors                 ... done (   0.1 sec)
Now organizing SCF variables                       ... done
                      ------------------
                      INITIAL GUESS DONE (   6.4 sec)
                      ------------------
--------------
SCF ITERATIONS
--------------
ITER       Energy         Delta-E        Max-DP      RMS-DP      [F,P]     Damp
               ***  Starting incremental Fock matrix formation  ***
  0  -1270.0243905601   0.000000000000 0.04930749  0.00043255  0.3001974 0.7000
  1  -1270.2907661784  -0.266375618256 0.03607481  0.00034822  0.1756957 0.7000
                               ***Turning on DIIS***
  2  -1270.4569633249  -0.166197146470 0.02583327  0.00023524  0.1096379 0.7000
  3  -1272.5993492574  -2.142385932552 0.06312721  0.00051702  0.0829046 0.0000
  4  -1270.7657049378   1.833644319586 0.00735500  0.00009344  0.0069742 0.0000
  5  -1270.8233048951  -0.057599957236 0.00375900  0.00005000  0.0047519 0.0000
                      *** Initiating the SOSCF procedure ***
                           *** Shutting down DIIS ***
                      *** Re-Reading the Fockian *** 
                      *** Removing any level shift *** 
ITER      Energy       Delta-E        Grad      Rot      Max-DP    RMS-DP
  6  -1270.80355254   0.0197523534  0.001640  0.001640  0.001695  0.000025
               *** Restarting incremental Fock matrix formation ***
  7  -1270.81822890  -0.0146763623  0.000890  0.002273  0.001251  0.000015
  8  -1270.81827263  -0.0000437262  0.000394  0.002510  0.001368  0.000016
  9  -1270.81828880  -0.0000161704  0.000169  0.000329  0.000344  0.000004
 10  -1270.81829081  -0.0000020136  0.000056  0.000149  0.000113  0.000001
 11  -1270.81829101  -0.0000001971  0.000024  0.000119  0.000051  0.000001
 12  -1270.81829107  -0.0000000619  0.000010  0.000042  0.000033  0.000000
 13  -1270.81829107  -0.0000000007  0.000003  0.000012  0.000006  0.000000
                  ***Gradient check signals convergence***
              ***Rediagonalizing the Fockian in SOSCF/NRSCF***

               *****************************************************
               *                     SUCCESS                       *
               *           SCF CONVERGED AFTER  14 CYCLES          *
               *****************************************************


----------------
TOTAL SCF ENERGY
----------------

Total Energy       :        -1270.81829106 Eh          -34580.72375 eV

Components:
Nuclear Repulsion  :         1712.13178054 Eh           46589.47431 eV
Electronic Energy  :        -2982.95007160 Eh          -81170.19806 eV
One Electron Energy:        -5145.55636582 Eh         -140017.70708 eV
Two Electron Energy:         2162.60629422 Eh           58847.50902 eV

Virial components:
Potential Energy   :        -2539.74424190 Eh          -69109.95430 eV
Kinetic Energy     :         1268.92595084 Eh           34529.23055 eV
Virial Ratio       :            2.00149129


---------------
SCF CONVERGENCE
---------------

  Last Energy change         ...    1.4141e-08  Tolerance :   1.0000e-08
  Last MAX-Density change    ...    1.8682e-06  Tolerance :   1.0000e-07
  Last RMS-Density change    ...    2.6385e-08  Tolerance :   5.0000e-09
  Last Orbital Gradient      ...    1.3749e-06  Tolerance :   1.0000e-05
  Last Orbital Rotation      ...    3.0761e-06  Tolerance :   1.0000e-05

             **** THE GBW FILE WAS UPDATED (CONFS/Conf340.orca.gbw) ****
             **** DENSITY FILE WAS UPDATED (CONFS/Conf340.orca.scfp) ****
             **** ENERGY FILE WAS UPDATED (CONFS/Conf340.orca.en.tmp) ****
             **** THE GBW FILE WAS UPDATED (CONFS/Conf340.orca.gbw) ****
             **** DENSITY FILE WAS UPDATED (CONFS/Conf340.orca.scfp) ****
----------------
ORBITAL ENERGIES
----------------

  NO   OCC          E(Eh)            E(eV) 
   0   2.0000     -91.888762     -2500.4203 
   1   2.0000     -20.599410      -560.5384 
   2   2.0000     -20.597124      -560.4762 
   3   2.0000     -20.541556      -558.9642 
   4   2.0000     -15.628877      -425.2834 
   5   2.0000     -15.608253      -424.7222 
   6   2.0000     -11.395204      -310.0793 
   7   2.0000     -11.383984      -309.7740 
   8   2.0000     -11.335819      -308.4633 
   9   2.0000     -11.314473      -307.8825 
  10   2.0000     -11.308730      -307.7262 
  11   2.0000     -11.298091      -307.4367 
  12   2.0000     -11.260123      -306.4035 
  13   2.0000     -11.258720      -306.3653 
  14   2.0000     -11.255757      -306.2847 
  15   2.0000     -11.251999      -306.1825 
  16   2.0000     -11.243875      -305.9614 
  17   2.0000     -11.239175      -305.8335 
  18   2.0000     -11.238672      -305.8198 
  19   2.0000     -11.221461      -305.3515 
  20   2.0000      -8.893828      -242.0134 
  21   2.0000      -6.575403      -178.9258 
  22   2.0000      -6.573397      -178.8712 
  23   2.0000      -6.572811      -178.8553 
  24   2.0000      -1.449632       -39.4465 
  25   2.0000      -1.416811       -38.5534 
  26   2.0000      -1.353988       -36.8439 
  27   2.0000      -1.339842       -36.4590 
  28   2.0000      -1.238404       -33.6987 
  29   2.0000      -1.158295       -31.5188 
  30   2.0000      -1.120569       -30.4922 
  31   2.0000      -1.043065       -28.3832 
  32   2.0000      -1.034547       -28.1515 
  33   2.0000      -1.015676       -27.6379 
  34   2.0000      -0.995296       -27.0834 
  35   2.0000      -0.984153       -26.7802 
  36   2.0000      -0.922635       -25.1062 
  37   2.0000      -0.895602       -24.3706 
  38   2.0000      -0.847031       -23.0489 
  39   2.0000      -0.838085       -22.8055 
  40   2.0000      -0.834615       -22.7110 
  41   2.0000      -0.816054       -22.2060 
  42   2.0000      -0.752393       -20.4737 
  43   2.0000      -0.732802       -19.9406 
  44   2.0000      -0.723106       -19.6767 
  45   2.0000      -0.696215       -18.9450 
  46   2.0000      -0.688683       -18.7400 
  47   2.0000      -0.678089       -18.4518 
  48   2.0000      -0.670950       -18.2575 
  49   2.0000      -0.660128       -17.9630 
  50   2.0000      -0.649046       -17.6614 
  51   2.0000      -0.640910       -17.4401 
  52   2.0000      -0.632510       -17.2115 
  53   2.0000      -0.613501       -16.6942 
  54   2.0000      -0.607213       -16.5231 
  55   2.0000      -0.600316       -16.3354 
  56   2.0000      -0.599027       -16.3004 
  57   2.0000      -0.577867       -15.7246 
  58   2.0000      -0.570718       -15.5300 
  59   2.0000      -0.568338       -15.4653 
  60   2.0000      -0.559405       -15.2222 
  61   2.0000      -0.543269       -14.7831 
  62   2.0000      -0.534348       -14.5404 
  63   2.0000      -0.526194       -14.3185 
  64   2.0000      -0.524619       -14.2756 
  65   2.0000      -0.513218       -13.9654 
  66   2.0000      -0.501616       -13.6497 
  67   2.0000      -0.499929       -13.6038 
  68   2.0000      -0.482252       -13.1227 
  69   2.0000      -0.464468       -12.6388 
  70   2.0000      -0.454709       -12.3733 
  71   2.0000      -0.445765       -12.1299 
  72   2.0000      -0.354081        -9.6350 
  73   2.0000      -0.350101        -9.5267 
  74   2.0000      -0.328227        -8.9315 
  75   2.0000      -0.321936        -8.7603 
  76   2.0000      -0.316138        -8.6025 
  77   0.0000       0.076234         2.0744 
  78   0.0000       0.106010         2.8847 
  79   0.0000       0.125037         3.4024 
  80   0.0000       0.132372         3.6020 
  81   0.0000       0.137928         3.7532 
  82   0.0000       0.141518         3.8509 
  83   0.0000       0.152209         4.1418 
  84   0.0000       0.161257         4.3880 
  85   0.0000       0.166068         4.5189 
  86   0.0000       0.170060         4.6276 
  87   0.0000       0.174717         4.7543 
  88   0.0000       0.192620         5.2414 
  89   0.0000       0.194984         5.3058 
  90   0.0000       0.200366         5.4522 
  91   0.0000       0.205733         5.5983 
  92   0.0000       0.213512         5.8099 
  93   0.0000       0.224723         6.1150 
  94   0.0000       0.228935         6.2296 
  95   0.0000       0.234130         6.3710 
  96   0.0000       0.246445         6.7061 
  97   0.0000       0.255140         6.9427 
  98   0.0000       0.260316         7.0835 
  99   0.0000       0.275435         7.4950 
 100   0.0000       0.293113         7.9760 
 101   0.0000       0.304451         8.2845 
 102   0.0000       0.313267         8.5244 
 103   0.0000       0.319885         8.7045 
 104   0.0000       0.322803         8.7839 
 105   0.0000       0.339271         9.2320 
 106   0.0000       0.341333         9.2881 
 107   0.0000       0.346276         9.4226 
 108   0.0000       0.357559         9.7297 
 109   0.0000       0.366555         9.9745 
 110   0.0000       0.371635        10.1127 
 111   0.0000       0.378444        10.2980 
 112   0.0000       0.379827        10.3356 
 113   0.0000       0.389739        10.6053 
 114   0.0000       0.399102        10.8601 
 115   0.0000       0.405653        11.0384 
 116   0.0000       0.418144        11.3783 
 117   0.0000       0.425764        11.5856 
 118   0.0000       0.433173        11.7872 
 119   0.0000       0.436345        11.8736 
 120   0.0000       0.446984        12.1630 
 121   0.0000       0.450593        12.2613 
 122   0.0000       0.453902        12.3513 
 123   0.0000       0.458549        12.4778 
 124   0.0000       0.467753        12.7282 
 125   0.0000       0.471527        12.8309 
 126   0.0000       0.479719        13.0538 
 127   0.0000       0.484885        13.1944 
 128   0.0000       0.493361        13.4250 
 129   0.0000       0.501375        13.6431 
 130   0.0000       0.507899        13.8206 
 131   0.0000       0.511245        13.9117 
 132   0.0000       0.516546        14.0559 
 133   0.0000       0.518743        14.1157 
 134   0.0000       0.523008        14.2318 
 135   0.0000       0.527984        14.3672 
 136   0.0000       0.534409        14.5420 
 137   0.0000       0.541736        14.7414 
 138   0.0000       0.543044        14.7770 
 139   0.0000       0.546980        14.8841 
 140   0.0000       0.559880        15.2351 
 141   0.0000       0.564073        15.3492 
 142   0.0000       0.565374        15.3846 
 143   0.0000       0.569303        15.4915 
 144   0.0000       0.574405        15.6303 
 145   0.0000       0.580158        15.7869 
 146   0.0000       0.591846        16.1049 
 147   0.0000       0.595472        16.2036 
 148   0.0000       0.601579        16.3698 
 149   0.0000       0.603446        16.4206 
 150   0.0000       0.604436        16.4475 
 151   0.0000       0.607773        16.5383 
 152   0.0000       0.609955        16.5977 
 153   0.0000       0.617892        16.8137 
 154   0.0000       0.621705        16.9175 
 155   0.0000       0.623051        16.9541 
 156   0.0000       0.627228        17.0677 
 157   0.0000       0.633605        17.2413 
 158   0.0000       0.635883        17.3033 
 159   0.0000       0.642004        17.4698 
 160   0.0000       0.643312        17.5054 
 161   0.0000       0.653751        17.7895 
 162   0.0000       0.662884        18.0380 
 163   0.0000       0.664514        18.0823 
 164   0.0000       0.670947        18.2574 
 165   0.0000       0.673887        18.3374 
 166   0.0000       0.676606        18.4114 
 167   0.0000       0.686346        18.6764 
 168   0.0000       0.689806        18.7706 
 169   0.0000       0.694123        18.8880 
 170   0.0000       0.700648        19.0656 
 171   0.0000       0.711861        19.3707 
 172   0.0000       0.721695        19.6383 
 173   0.0000       0.724597        19.7173 
 174   0.0000       0.731768        19.9124 
 175   0.0000       0.738556        20.0971 
 176   0.0000       0.742215        20.1967 
 177   0.0000       0.748889        20.3783 
 178   0.0000       0.753688        20.5089 
 179   0.0000       0.762888        20.7592 
 180   0.0000       0.763697        20.7813 
 181   0.0000       0.771545        20.9948 
 182   0.0000       0.777779        21.1644 
 183   0.0000       0.791372        21.5343 
 184   0.0000       0.791763        21.5450 
 185   0.0000       0.808508        22.0006 
 186   0.0000       0.817464        22.2443 
 187   0.0000       0.821829        22.3631 
 188   0.0000       0.836853        22.7719 
 189   0.0000       0.838617        22.8199 
 190   0.0000       0.848669        23.0935 
 191   0.0000       0.854394        23.2492 
 192   0.0000       0.859249        23.3813 
 193   0.0000       0.861992        23.4560 
 194   0.0000       0.871436        23.7130 
 195   0.0000       0.874637        23.8001 
 196   0.0000       0.884657        24.0728 
 197   0.0000       0.887603        24.1529 
 198   0.0000       0.898830        24.4584 
 199   0.0000       0.907274        24.6882 
 200   0.0000       0.911889        24.8137 
 201   0.0000       0.919950        25.0331 
 202   0.0000       0.930303        25.3148 
 203   0.0000       0.931636        25.3511 
 204   0.0000       0.949824        25.8460 
 205   0.0000       0.952617        25.9220 
 206   0.0000       0.956520        26.0282 
 207   0.0000       0.959033        26.0966 
 208   0.0000       0.968928        26.3659 
 209   0.0000       0.983802        26.7706 
 210   0.0000       0.985028        26.8040 
 211   0.0000       0.986540        26.8451 
 212   0.0000       0.998368        27.1670 
 213   0.0000       1.007526        27.4162 
 214   0.0000       1.014307        27.6007 
 215   0.0000       1.021331        27.7918 
 216   0.0000       1.028561        27.9886 
 217   0.0000       1.033944        28.1351 
 218   0.0000       1.037529        28.2326 
 219   0.0000       1.045263        28.4430 
 220   0.0000       1.054381        28.6912 
 221   0.0000       1.063587        28.9417 
 222   0.0000       1.067009        29.0348 
 223   0.0000       1.071642        29.1609 
 224   0.0000       1.078876        29.3577 
 225   0.0000       1.087497        29.5923 
 226   0.0000       1.098049        29.8794 
 227   0.0000       1.104720        30.0610 
 228   0.0000       1.119020        30.4501 
 229   0.0000       1.125982        30.6395 
 230   0.0000       1.133226        30.8366 
 231   0.0000       1.138554        30.9816 
 232   0.0000       1.141133        31.0518 
 233   0.0000       1.149192        31.2711 
 234   0.0000       1.154582        31.4178 
 235   0.0000       1.164081        31.6763 
 236   0.0000       1.170675        31.8557 
 237   0.0000       1.175738        31.9934 
 238   0.0000       1.184172        32.2230 
 239   0.0000       1.187391        32.3106 
 240   0.0000       1.192433        32.4477 
 241   0.0000       1.198888        32.6234 
 242   0.0000       1.201776        32.7020 
 243   0.0000       1.211937        32.9785 
 244   0.0000       1.219014        33.1710 
 245   0.0000       1.223271        33.2869 
 246   0.0000       1.231801        33.5190 
 247   0.0000       1.233634        33.5689 
 248   0.0000       1.248589        33.9758 
 249   0.0000       1.253940        34.1215 
 250   0.0000       1.261310        34.3220 
 251   0.0000       1.265079        34.4245 
 252   0.0000       1.276769        34.7426 
 253   0.0000       1.281602        34.8742 
 254   0.0000       1.285442        34.9786 
 255   0.0000       1.297293        35.3011 
 256   0.0000       1.317276        35.8449 
 257   0.0000       1.323187        36.0057 
 258   0.0000       1.329358        36.1737 
 259   0.0000       1.333040        36.2739 
 260   0.0000       1.340081        36.4655 
 261   0.0000       1.351720        36.7822 
 262   0.0000       1.363642        37.1066 
 263   0.0000       1.366863        37.1942 
 264   0.0000       1.376338        37.4521 
 265   0.0000       1.387561        37.7575 
 266   0.0000       1.388934        37.7948 
 267   0.0000       1.401190        38.1283 
 268   0.0000       1.410385        38.3785 
 269   0.0000       1.420970        38.6666 
 270   0.0000       1.425382        38.7866 
 271   0.0000       1.433438        39.0058 
 272   0.0000       1.434204        39.0267 
 273   0.0000       1.452877        39.5348 
 274   0.0000       1.457828        39.6695 
 275   0.0000       1.460480        39.7417 
 276   0.0000       1.464464        39.8501 
 277   0.0000       1.476188        40.1691 
 278   0.0000       1.486784        40.4575 
 279   0.0000       1.498446        40.7748 
 280   0.0000       1.501959        40.8704 
 281   0.0000       1.503425        40.9103 
 282   0.0000       1.515209        41.2309 
 283   0.0000       1.517917        41.3046 
 284   0.0000       1.522135        41.4194 
 285   0.0000       1.531226        41.6668 
 286   0.0000       1.532313        41.6964 
 287   0.0000       1.538937        41.8766 
 288   0.0000       1.546755        42.0894 
 289   0.0000       1.554130        42.2900 
 290   0.0000       1.558808        42.4173 
 291   0.0000       1.565612        42.6025 
 292   0.0000       1.575443        42.8700 
 293   0.0000       1.579372        42.9769 
 294   0.0000       1.587279        43.1921 
 295   0.0000       1.590625        43.2831 
 296   0.0000       1.600626        43.5552 
 297   0.0000       1.606987        43.7283 
 298   0.0000       1.614260        43.9262 
 299   0.0000       1.627032        44.2738 
 300   0.0000       1.639192        44.6047 
 301   0.0000       1.643318        44.7170 
 302   0.0000       1.657715        45.1087 
 303   0.0000       1.661787        45.2195 
 304   0.0000       1.670687        45.4617 
 305   0.0000       1.678456        45.6731 
 306   0.0000       1.684618        45.8408 
 307   0.0000       1.701341        46.2959 
 308   0.0000       1.704731        46.3881 
 309   0.0000       1.711629        46.5758 
 310   0.0000       1.717229        46.7282 
 311   0.0000       1.734258        47.1915 
 312   0.0000       1.743590        47.4455 
 313   0.0000       1.753072        47.7035 
 314   0.0000       1.765902        48.0526 
 315   0.0000       1.774470        48.2858 
 316   0.0000       1.782296        48.4988 
 317   0.0000       1.791379        48.7459 
 318   0.0000       1.798584        48.9419 
 319   0.0000       1.807940        49.1966 
 320   0.0000       1.812774        49.3281 
 321   0.0000       1.824479        49.6466 
 322   0.0000       1.833756        49.8990 
 323   0.0000       1.841483        50.1093 
 324   0.0000       1.855718        50.4966 
 325   0.0000       1.877225        51.0819 
 326   0.0000       1.883520        51.2532 
 327   0.0000       1.884963        51.2925 
 328   0.0000       1.894558        51.5536 
 329   0.0000       1.912106        52.0311 
 330   0.0000       1.918160        52.1958 
 331   0.0000       1.925265        52.3891 
 332   0.0000       1.936028        52.6820 
 333   0.0000       1.941304        52.8256 
 334   0.0000       1.953464        53.1565 
 335   0.0000       1.962949        53.4145 
 336   0.0000       1.985894        54.0389 
 337   0.0000       1.992529        54.2195 
 338   0.0000       2.012257        54.7563 
 339   0.0000       2.022424        55.0330 
 340   0.0000       2.028323        55.1935 
 341   0.0000       2.038252        55.4637 
 342   0.0000       2.043556        55.6080 
 343   0.0000       2.070707        56.3468 
 344   0.0000       2.089304        56.8528 
 345   0.0000       2.116002        57.5793 
 346   0.0000       2.121515        57.7294 
 347   0.0000       2.132258        58.0217 
 348   0.0000       2.154394        58.6240 
 349   0.0000       2.160329        58.7855 
 350   0.0000       2.160711        58.7959 
 351   0.0000       2.200417        59.8764 
 352   0.0000       2.212890        60.2158 
 353   0.0000       2.229504        60.6679 
 354   0.0000       2.240158        60.9578 
 355   0.0000       2.260591        61.5138 
 356   0.0000       2.276195        61.9384 
 357   0.0000       2.288131        62.2632 
 358   0.0000       2.293368        62.4057 
 359   0.0000       2.300998        62.6133 
 360   0.0000       2.309864        62.8546 
 361   0.0000       2.333513        63.4981 
 362   0.0000       2.344653        63.8013 
 363   0.0000       2.352872        64.0249 
 364   0.0000       2.367084        64.4116 
 365   0.0000       2.381185        64.7953 
 366   0.0000       2.396901        65.2230 
 367   0.0000       2.400702        65.3264 
 368   0.0000       2.419934        65.8497 
 369   0.0000       2.441796        66.4447 
 370   0.0000       2.455057        66.8055 
 371   0.0000       2.464151        67.0530 
 372   0.0000       2.475543        67.3630 
 373   0.0000       2.487140        67.6785 
 374   0.0000       2.490560        67.7716 
 375   0.0000       2.500221        68.0345 
 376   0.0000       2.511703        68.3469 
 377   0.0000       2.529708        68.8368 
 378   0.0000       2.544645        69.2433 
 379   0.0000       2.553342        69.4800 
 380   0.0000       2.574669        70.0603 
 381   0.0000       2.577116        70.1269 
 382   0.0000       2.595918        70.6385 
 383   0.0000       2.610377        71.0320 
 384   0.0000       2.622308        71.3566 
 385   0.0000       2.632815        71.6425 
 386   0.0000       2.635666        71.7201 
 387   0.0000       2.643376        71.9299 
 388   0.0000       2.655732        72.2661 
 389   0.0000       2.672503        72.7225 
 390   0.0000       2.695007        73.3349 
 391   0.0000       2.702199        73.5306 
 392   0.0000       2.707591        73.6773 
 393   0.0000       2.713531        73.8389 
 394   0.0000       2.732725        74.3612 
 395   0.0000       2.738899        74.5292 
 396   0.0000       2.750324        74.8401 
 397   0.0000       2.753944        74.9386 
 398   0.0000       2.766816        75.2889 
 399   0.0000       2.771077        75.4048 
 400   0.0000       2.784433        75.7683 
 401   0.0000       2.791418        75.9584 
 402   0.0000       2.812107        76.5213 
 403   0.0000       2.819711        76.7282 
 404   0.0000       2.835597        77.1605 
 405   0.0000       2.842041        77.3359 
 406   0.0000       2.844146        77.3931 
 407   0.0000       2.851432        77.5914 
 408   0.0000       2.854130        77.6648 
 409   0.0000       2.866122        77.9911 
 410   0.0000       2.873405        78.1893 
 411   0.0000       2.892656        78.7132 
 412   0.0000       2.900774        78.9341 
 413   0.0000       2.906756        79.0969 
 414   0.0000       2.912049        79.2409 
 415   0.0000       2.918658        79.4207 
 416   0.0000       2.935856        79.8887 
 417   0.0000       2.947285        80.1997 
 418   0.0000       2.954337        80.3916 
 419   0.0000       2.959691        80.5373 
 420   0.0000       2.973466        80.9121 
 421   0.0000       2.975425        80.9654 
 422   0.0000       2.985263        81.2331 
 423   0.0000       2.995111        81.5011 
 424   0.0000       3.002194        81.6939 
 425   0.0000       3.014092        82.0176 
 426   0.0000       3.014889        82.0393 
 427   0.0000       3.025675        82.3328 
 428   0.0000       3.030356        82.4602 
 429   0.0000       3.036261        82.6209 
 430   0.0000       3.053637        83.0937 
 431   0.0000       3.056842        83.1809 
 432   0.0000       3.064918        83.4006 
 433   0.0000       3.071374        83.5763 
 434   0.0000       3.079439        83.7958 
 435   0.0000       3.087131        84.0051 
 436   0.0000       3.089524        84.0702 
 437   0.0000       3.092300        84.1458 
 438   0.0000       3.105323        84.5001 
 439   0.0000       3.111650        84.6723 
 440   0.0000       3.118497        84.8586 
 441   0.0000       3.120870        84.9232 
 442   0.0000       3.126938        85.0883 
 443   0.0000       3.133178        85.2581 
 444   0.0000       3.137853        85.3853 
 445   0.0000       3.152275        85.7778 
 446   0.0000       3.156779        85.9003 
 447   0.0000       3.160295        85.9960 
 448   0.0000       3.163553        86.0847 
 449   0.0000       3.183920        86.6389 
 450   0.0000       3.195343        86.9497 
 451   0.0000       3.199116        87.0524 
 452   0.0000       3.203710        87.1774 
 453   0.0000       3.226089        87.7863 
 454   0.0000       3.230651        87.9105 
 455   0.0000       3.233926        87.9996 
 456   0.0000       3.236851        88.0792 
 457   0.0000       3.243765        88.2673 
 458   0.0000       3.250627        88.4541 
 459   0.0000       3.260560        88.7243 
 460   0.0000       3.265393        88.8559 
 461   0.0000       3.273576        89.0785 
 462   0.0000       3.280294        89.2613 
 463   0.0000       3.294610        89.6509 
 464   0.0000       3.300061        89.7992 
 465   0.0000       3.304441        89.9184 
 466   0.0000       3.310823        90.0921 
 467   0.0000       3.319778        90.3357 
 468   0.0000       3.329240        90.5932 
 469   0.0000       3.331337        90.6503 
 470   0.0000       3.340719        90.9056 
 471   0.0000       3.342908        90.9652 
 472   0.0000       3.356254        91.3283 
 473   0.0000       3.357833        91.3713 
 474   0.0000       3.364599        91.5554 
 475   0.0000       3.366468        91.6062 
 476   0.0000       3.373726        91.8038 
 477   0.0000       3.382018        92.0294 
 478   0.0000       3.383919        92.0811 
 479   0.0000       3.387926        92.1901 
 480   0.0000       3.399043        92.4927 
 481   0.0000       3.406838        92.7048 
 482   0.0000       3.407923        92.7343 
 483   0.0000       3.412992        92.8722 
 484   0.0000       3.420134        93.0666 
 485   0.0000       3.423557        93.1597 
 486   0.0000       3.425135        93.2027 
 487   0.0000       3.429107        93.3107 
 488   0.0000       3.438685        93.5714 
 489   0.0000       3.441917        93.6593 
 490   0.0000       3.448541        93.8396 
 491   0.0000       3.451232        93.9128 
 492   0.0000       3.457100        94.0725 
 493   0.0000       3.462948        94.2316 
 494   0.0000       3.472535        94.4925 
 495   0.0000       3.476296        94.5948 
 496   0.0000       3.479607        94.6849 
 497   0.0000       3.485061        94.8333 
 498   0.0000       3.485986        94.8585 
 499   0.0000       3.498957        95.2115 
 500   0.0000       3.500825        95.2623 
 501   0.0000       3.517569        95.7179 
 502   0.0000       3.531165        96.0879 
 503   0.0000       3.532510        96.1245 
 504   0.0000       3.543959        96.4360 
 505   0.0000       3.553953        96.7080 
 506   0.0000       3.562492        96.9403 
 507   0.0000       3.565987        97.0354 
 508   0.0000       3.570798        97.1664 
 509   0.0000       3.582859        97.4946 
 510   0.0000       3.589011        97.6620 
 511   0.0000       3.596342        97.8614 
 512   0.0000       3.604296        98.0779 
 513   0.0000       3.613333        98.3238 
 514   0.0000       3.622451        98.5719 
 515   0.0000       3.625254        98.6482 
 516   0.0000       3.630042        98.7785 
 517   0.0000       3.633321        98.8677 
 518   0.0000       3.643804        99.1530 
 519   0.0000       3.646331        99.2217 
 520   0.0000       3.652796        99.3976 
 521   0.0000       3.659259        99.5735 
 522   0.0000       3.662545        99.6629 
 523   0.0000       3.666823        99.7793 
 524   0.0000       3.671361        99.9028 
 525   0.0000       3.677884       100.0803 
 526   0.0000       3.683596       100.2358 
 527   0.0000       3.691550       100.4522 
 528   0.0000       3.699737       100.6750 
 529   0.0000       3.708904       100.9244 
 530   0.0000       3.714000       101.0631 
 531   0.0000       3.719399       101.2100 
 532   0.0000       3.723921       101.3330 
 533   0.0000       3.736687       101.6804 
 534   0.0000       3.738827       101.7387 
 535   0.0000       3.751199       102.0753 
 536   0.0000       3.752865       102.1207 
 537   0.0000       3.761383       102.3524 
 538   0.0000       3.771585       102.6300 
 539   0.0000       3.775304       102.7312 
 540   0.0000       3.781841       102.9091 
 541   0.0000       3.785532       103.0095 
 542   0.0000       3.788302       103.0849 
 543   0.0000       3.794203       103.2455 
 544   0.0000       3.804493       103.5255 
 545   0.0000       3.816541       103.8534 
 546   0.0000       3.824557       104.0715 
 547   0.0000       3.831224       104.2529 
 548   0.0000       3.832206       104.2796 
 549   0.0000       3.850619       104.7807 
 550   0.0000       3.855832       104.9225 
 551   0.0000       3.864047       105.1461 
 552   0.0000       3.868549       105.2686 
 553   0.0000       3.879038       105.5540 
 554   0.0000       3.894121       105.9644 
 555   0.0000       3.906148       106.2917 
 556   0.0000       3.908317       106.3507 
 557   0.0000       3.919881       106.6654 
 558   0.0000       3.923799       106.7720 
 559   0.0000       3.928120       106.8896 
 560   0.0000       3.948866       107.4541 
 561   0.0000       3.950344       107.4943 
 562   0.0000       3.958431       107.7144 
 563   0.0000       3.968841       107.9976 
 564   0.0000       3.975208       108.1709 
 565   0.0000       3.984349       108.4196 
 566   0.0000       3.992073       108.6298 
 567   0.0000       3.998042       108.7923 
 568   0.0000       4.009032       109.0913 
 569   0.0000       4.017476       109.3211 
 570   0.0000       4.025643       109.5433 
 571   0.0000       4.038074       109.8816 
 572   0.0000       4.043232       110.0219 
 573   0.0000       4.048444       110.1638 
 574   0.0000       4.063114       110.5629 
 575   0.0000       4.073422       110.8435 
 576   0.0000       4.077191       110.9460 
 577   0.0000       4.085065       111.1603 
 578   0.0000       4.106646       111.7475 
 579   0.0000       4.112126       111.8967 
 580   0.0000       4.113471       111.9332 
 581   0.0000       4.121662       112.1561 
 582   0.0000       4.131913       112.4351 
 583   0.0000       4.141307       112.6907 
 584   0.0000       4.146290       112.8263 
 585   0.0000       4.147138       112.8494 
 586   0.0000       4.155126       113.0667 
 587   0.0000       4.159086       113.1745 
 588   0.0000       4.168970       113.4434 
 589   0.0000       4.176758       113.6554 
 590   0.0000       4.179370       113.7264 
 591   0.0000       4.188427       113.9729 
 592   0.0000       4.196298       114.1871 
 593   0.0000       4.206441       114.4631 
 594   0.0000       4.209508       114.5465 
 595   0.0000       4.214826       114.6912 
 596   0.0000       4.219068       114.8067 
 597   0.0000       4.223594       114.9298 
 598   0.0000       4.232883       115.1826 
 599   0.0000       4.234990       115.2399 
 600   0.0000       4.244533       115.4996 
 601   0.0000       4.252067       115.7046 
 602   0.0000       4.268401       116.1491 
 603   0.0000       4.268913       116.1630 
 604   0.0000       4.295754       116.8934 
 605   0.0000       4.299328       116.9907 
 606   0.0000       4.304458       117.1303 
 607   0.0000       4.317917       117.4965 
 608   0.0000       4.328737       117.7909 
 609   0.0000       4.331974       117.8790 
 610   0.0000       4.339866       118.0937 
 611   0.0000       4.345436       118.2453 
 612   0.0000       4.353656       118.4690 
 613   0.0000       4.360980       118.6683 
 614   0.0000       4.368158       118.8636 
 615   0.0000       4.373431       119.0071 
 616   0.0000       4.377301       119.1124 
 617   0.0000       4.383569       119.2830 
 618   0.0000       4.399414       119.7142 
 619   0.0000       4.405698       119.8852 
 620   0.0000       4.413699       120.1029 
 621   0.0000       4.420967       120.3006 
 622   0.0000       4.425963       120.4366 
 623   0.0000       4.437399       120.7478 
 624   0.0000       4.440067       120.8204 
 625   0.0000       4.451733       121.1378 
 626   0.0000       4.457951       121.3070 
 627   0.0000       4.462181       121.4221 
 628   0.0000       4.470509       121.6487 
 629   0.0000       4.488267       122.1320 
 630   0.0000       4.501843       122.5014 
 631   0.0000       4.509447       122.7083 
 632   0.0000       4.524791       123.1258 
 633   0.0000       4.529615       123.2571 
 634   0.0000       4.537375       123.4683 
 635   0.0000       4.546932       123.7283 
 636   0.0000       4.556344       123.9844 
 637   0.0000       4.564585       124.2087 
 638   0.0000       4.571513       124.3972 
 639   0.0000       4.576221       124.5253 
 640   0.0000       4.587120       124.8219 
 641   0.0000       4.594395       125.0198 
 642   0.0000       4.602359       125.2366 
 643   0.0000       4.611165       125.4762 
 644   0.0000       4.619223       125.6955 
 645   0.0000       4.620203       125.7221 
 646   0.0000       4.632848       126.0662 
 647   0.0000       4.638284       126.2141 
 648   0.0000       4.643957       126.3685 
 649   0.0000       4.652252       126.5942 
 650   0.0000       4.653327       126.6235 
 651   0.0000       4.664335       126.9230 
 652   0.0000       4.674221       127.1920 
 653   0.0000       4.682451       127.4160 
 654   0.0000       4.691615       127.6653 
 655   0.0000       4.703633       127.9924 
 656   0.0000       4.711429       128.2045 
 657   0.0000       4.724507       128.5604 
 658   0.0000       4.736137       128.8768 
 659   0.0000       4.749235       129.2332 
 660   0.0000       4.758112       129.4748 
 661   0.0000       4.766424       129.7010 
 662   0.0000       4.769662       129.7891 
 663   0.0000       4.779444       130.0553 
 664   0.0000       4.809828       130.8821 
 665   0.0000       4.817317       131.0859 
 666   0.0000       4.832300       131.4936 
 667   0.0000       4.841893       131.7546 
 668   0.0000       4.864215       132.3620 
 669   0.0000       4.884299       132.9085 
 670   0.0000       4.908624       133.5704 
 671   0.0000       4.923213       133.9674 
 672   0.0000       4.938630       134.3870 
 673   0.0000       4.940567       134.4397 
 674   0.0000       4.962029       135.0237 
 675   0.0000       4.983671       135.6126 
 676   0.0000       5.015178       136.4699 
 677   0.0000       5.024311       136.7185 
 678   0.0000       5.027731       136.8115 
 679   0.0000       5.034425       136.9937 
 680   0.0000       5.053267       137.5064 
 681   0.0000       5.076977       138.1516 
 682   0.0000       5.090096       138.5086 
 683   0.0000       5.100450       138.7903 
 684   0.0000       5.111785       139.0987 
 685   0.0000       5.118736       139.2879 
 686   0.0000       5.129711       139.5865 
 687   0.0000       5.138721       139.8317 
 688   0.0000       5.148865       140.1077 
 689   0.0000       5.158408       140.3674 
 690   0.0000       5.169275       140.6631 
 691   0.0000       5.189597       141.2161 
 692   0.0000       5.191701       141.2734 
 693   0.0000       5.195239       141.3697 
 694   0.0000       5.202771       141.5746 
 695   0.0000       5.214015       141.8805 
 696   0.0000       5.221028       142.0714 
 697   0.0000       5.226341       142.2160 
 698   0.0000       5.236180       142.4837 
 699   0.0000       5.249118       142.8358 
 700   0.0000       5.268121       143.3529 
 701   0.0000       5.274405       143.5238 
 702   0.0000       5.305485       144.3696 
 703   0.0000       5.313227       144.5802 
 704   0.0000       5.322180       144.8239 
 705   0.0000       5.336216       145.2058 
 706   0.0000       5.346300       145.4802 
 707   0.0000       5.365214       145.9949 
 708   0.0000       5.372032       146.1804 
 709   0.0000       5.386212       146.5663 
 710   0.0000       5.401225       146.9748 
 711   0.0000       5.412228       147.2742 
 712   0.0000       5.435910       147.9186 
 713   0.0000       5.446045       148.1944 
 714   0.0000       5.468653       148.8096 
 715   0.0000       5.481323       149.1544 
 716   0.0000       5.498337       149.6174 
 717   0.0000       5.516997       150.1251 
 718   0.0000       5.521462       150.2466 
 719   0.0000       5.530219       150.4849 
 720   0.0000       5.541158       150.7826 
 721   0.0000       5.546285       150.9221 
 722   0.0000       5.554298       151.1401 
 723   0.0000       5.576841       151.7536 
 724   0.0000       5.587644       152.0475 
 725   0.0000       5.604739       152.5127 
 726   0.0000       5.613106       152.7404 
 727   0.0000       5.621149       152.9592 
 728   0.0000       5.628359       153.1554 
 729   0.0000       5.636857       153.3867 
 730   0.0000       5.646956       153.6615 
 731   0.0000       5.671674       154.3341 
 732   0.0000       5.687599       154.7674 
 733   0.0000       5.692013       154.8875 
 734   0.0000       5.708956       155.3486 
 735   0.0000       5.711908       155.4289 
 736   0.0000       5.730604       155.9377 
 737   0.0000       5.733932       156.0282 
 738   0.0000       5.750524       156.4797 
 739   0.0000       5.751852       156.5158 
 740   0.0000       5.774556       157.1337 
 741   0.0000       5.784876       157.4145 
 742   0.0000       5.802384       157.8909 
 743   0.0000       5.811705       158.1445 
 744   0.0000       5.819473       158.3559 
 745   0.0000       5.842356       158.9786 
 746   0.0000       5.859250       159.4383 
 747   0.0000       5.880737       160.0230 
 748   0.0000       5.921036       161.1196 
 749   0.0000       5.936341       161.5360 
 750   0.0000       5.964226       162.2949 
 751   0.0000       5.972994       162.5334 
 752   0.0000       5.980835       162.7468 
 753   0.0000       5.998728       163.2337 
 754   0.0000       6.009914       163.5381 
 755   0.0000       6.024671       163.9396 
 756   0.0000       6.056599       164.8084 
 757   0.0000       6.066072       165.0662 
 758   0.0000       6.079790       165.4395 
 759   0.0000       6.101062       166.0184 
 760   0.0000       6.115668       166.4158 
 761   0.0000       6.170890       167.9185 
 762   0.0000       6.215747       169.1391 
 763   0.0000       6.227297       169.4534 
 764   0.0000       6.232020       169.5819 
 765   0.0000       6.277212       170.8116 
 766   0.0000       6.297382       171.3605 
 767   0.0000       6.312012       171.7586 
 768   0.0000       6.349038       172.7661 
 769   0.0000       6.358814       173.0321 
 770   0.0000       6.369294       173.3173 
 771   0.0000       6.389049       173.8549 
 772   0.0000       6.408336       174.3797 
 773   0.0000       6.448316       175.4676 
 774   0.0000       6.459009       175.7586 
 775   0.0000       6.480041       176.3309 
 776   0.0000       6.505044       177.0112 
 777   0.0000       6.556041       178.3989 
 778   0.0000       6.568010       178.7246 
 779   0.0000       6.601861       179.6458 
 780   0.0000       6.649381       180.9389 
 781   0.0000       6.684805       181.9028 
 782   0.0000       6.737482       183.3362 
 783   0.0000       6.753226       183.7646 
 784   0.0000       6.835689       186.0085 
 785   0.0000       6.900097       187.7612 
 786   0.0000       6.910743       188.0509 
 787   0.0000       6.917515       188.2351 
 788   0.0000       6.920726       188.3225 
 789   0.0000       7.046105       191.7343 
 790   0.0000       7.051574       191.8831 
 791   0.0000       7.071706       192.4309 
 792   0.0000       7.081081       192.6860 
 793   0.0000       7.148994       194.5340 
 794   0.0000       7.229084       196.7134 
 795   0.0000       7.259618       197.5443 
 796   0.0000       7.277461       198.0298 
 797   0.0000       7.281835       198.1488 
 798   0.0000       7.343860       199.8366 
 799   0.0000       7.376319       200.7198 
 800   0.0000       7.442475       202.5200 
 801   0.0000       7.506153       204.2528 
 802   0.0000       7.583986       206.3708 
 803   0.0000       7.594592       206.6594 
 804   0.0000       7.709471       209.7854 
 805   0.0000       7.818166       212.7431 
 806   0.0000       7.847320       213.5364 
 807   0.0000       7.934985       215.9219 
 808   0.0000       7.988637       217.3819 
 809   0.0000       9.364337       254.8166 
 810   0.0000       9.531013       259.3521 
 811   0.0000      10.834859       294.8315 
 812   0.0000      11.454299       311.6873 
 813   0.0000      11.940975       324.9305 
 814   0.0000      12.564816       341.9060 
 815   0.0000      12.908803       351.2664 
 816   0.0000      12.992002       353.5303 
 817   0.0000      13.076947       355.8418 
 818   0.0000      13.168971       358.3459 
 819   0.0000      13.377594       364.0228 
 820   0.0000      13.539354       368.4246 
 821   0.0000      13.656969       371.6250 
 822   0.0000      13.918061       378.7297 
 823   0.0000      14.036227       381.9452 
 824   0.0000      14.084795       383.2668 
 825   0.0000      14.605406       397.4333 
 826   0.0000      14.903209       405.5369 
 827   0.0000      15.976086       434.7314 

                    ********************************
                    * MULLIKEN POPULATION ANALYSIS *
                    ********************************

-----------------------
MULLIKEN ATOMIC CHARGES
-----------------------
   0 C :   -0.312848
   1 C :    0.022717
   2 O :   -0.359672
   3 C :    0.470187
   4 O :   -0.436569
   5 C :   -0.226032
   6 C :    0.152583
   7 C :   -0.273224
   8 N :   -0.120379
   9 C :    0.211779
  10 S :   -0.440439
  11 N :   -0.206035
  12 C :    0.064475
  13 C :    0.054382
  14 C :   -0.186260
  15 C :   -0.134373
  16 C :   -0.278077
  17 C :    0.313950
  18 O :   -0.356541
  19 C :   -0.262434
  20 H :    0.109454
  21 H :    0.097371
  22 H :    0.119396
  23 H :    0.112818
  24 H :    0.113808
  25 H :    0.131209
  26 H :    0.095303
  27 H :    0.131727
  28 H :    0.197010
  29 H :    0.195098
  30 H :    0.150631
  31 H :    0.151291
  32 H :    0.160402
  33 H :    0.130687
  34 H :    0.240722
  35 H :    0.165883
Sum of atomic charges:   -0.0000000

--------------------------------
MULLIKEN REDUCED ORBITAL CHARGES
--------------------------------
  0 C s       :     3.270289  s :     3.270289
      pz      :     0.996971  p :     2.967144
      px      :     0.939638
      py      :     1.030535
      dz2     :     0.022934  d :     0.070995
      dxz     :     0.012437
      dyz     :     0.005242
      dx2y2   :     0.011458
      dxy     :     0.018923
      f0      :     0.001328  f :     0.004420
      f+1     :     0.000567
      f-1     :     0.000053
      f+2     :     0.000687
      f-2     :     0.000167
      f+3     :     0.001268
      f-3     :     0.000351
  1 C s       :     3.163372  s :     3.163372
      pz      :     0.966826  p :     2.650892
      px      :     0.854225
      py      :     0.829840
      dz2     :     0.041685  d :     0.151533
      dxz     :     0.019857
      dyz     :     0.019918
      dx2y2   :     0.027199
      dxy     :     0.042874
      f0      :     0.001492  f :     0.011487
      f+1     :     0.001375
      f-1     :     0.001650
      f+2     :     0.001376
      f-2     :     0.001607
      f+3     :     0.002139
      f-3     :     0.001848
  2 O s       :     3.721101  s :     3.721101
      pz      :     1.751836  p :     4.602467
      px      :     1.653185
      py      :     1.197446
      dz2     :     0.004276  d :     0.033836
      dxz     :     0.003438
      dyz     :     0.006909
      dx2y2   :     0.007306
      dxy     :     0.011907
      f0      :     0.000273  f :     0.002269
      f+1     :     0.000120
      f-1     :     0.000427
      f+2     :     0.000207
      f-2     :     0.000297
      f+3     :     0.000533
      f-3     :     0.000411
  3 C s       :     3.038859  s :     3.038859
      pz      :     0.760364  p :     2.166448
      px      :     0.699387
      py      :     0.706698
      dz2     :     0.064941  d :     0.297964
      dxz     :     0.031459
      dyz     :     0.068408
      dx2y2   :     0.064085
      dxy     :     0.069071
      f0      :     0.003513  f :     0.026541
      f+1     :     0.003595
      f-1     :     0.002799
      f+2     :     0.004727
      f-2     :     0.003865
      f+3     :     0.004017
      f-3     :     0.004026
  4 O s       :     3.772420  s :     3.772420
      pz      :     1.439446  p :     4.627000
      px      :     1.417164
      py      :     1.770390
      dz2     :     0.008856  d :     0.034760
      dxz     :     0.009762
      dyz     :     0.005404
      dx2y2   :     0.006080
      dxy     :     0.004658
      f0      :     0.000287  f :     0.002389
      f+1     :     0.000521
      f-1     :     0.000230
      f+2     :     0.000442
      f-2     :     0.000492
      f+3     :     0.000198
      f-3     :     0.000220
  5 C s       :     3.191802  s :     3.191802
      pz      :     1.012374  p :     2.943196
      px      :     1.071983
      py      :     0.858839
      dz2     :     0.011838  d :     0.080523
      dxz     :     0.006878
      dyz     :     0.028949
      dx2y2   :     0.007275
      dxy     :     0.025583
      f0      :     0.000881  f :     0.010511
      f+1     :     0.001304
      f-1     :     0.001335
      f+2     :     0.002090
      f-2     :     0.001706
      f+3     :     0.001914
      f-3     :     0.001281
  6 C s       :     3.187960  s :     3.187960
      pz      :     0.827882  p :     2.468993
      px      :     0.812962
      py      :     0.828149
      dz2     :     0.032138  d :     0.176105
      dxz     :     0.018912
      dyz     :     0.048181
      dx2y2   :     0.023646
      dxy     :     0.053229
      f0      :     0.001872  f :     0.014359
      f+1     :     0.001462
      f-1     :     0.002065
      f+2     :     0.002587
      f-2     :     0.002130
      f+3     :     0.002493
      f-3     :     0.001748
  7 C s       :     3.273370  s :     3.273370
      pz      :     0.975257  p :     2.926018
      px      :     0.994365
      py      :     0.956397
      dz2     :     0.019174  d :     0.069185
      dxz     :     0.009558
      dyz     :     0.010282
      dx2y2   :     0.021185
      dxy     :     0.008986
      f0      :     0.000724  f :     0.004650
      f+1     :     0.000783
      f-1     :     0.000613
      f+2     :     0.000341
      f-2     :     0.000806
      f+3     :     0.000506
      f-3     :     0.000878
  8 N s       :     3.337494  s :     3.337494
      pz      :     1.295194  p :     3.718585
      px      :     1.346381
      py      :     1.077011
      dz2     :     0.012329  d :     0.059362
      dxz     :     0.010811
      dyz     :     0.011485
      dx2y2   :     0.014507
      dxy     :     0.010230
      f0      :     0.000552  f :     0.004937
      f+1     :     0.001074
      f-1     :     0.000456
      f+2     :     0.000940
      f-2     :     0.001053
      f+3     :     0.000380
      f-3     :     0.000483
  9 C s       :     3.154833  s :     3.154833
      pz      :     0.769539  p :     2.353784
      px      :     0.755493
      py      :     0.828753
      dz2     :     0.056343  d :     0.262005
      dxz     :     0.029209
      dyz     :     0.056455
      dx2y2   :     0.063724
      dxy     :     0.056276
      f0      :     0.002174  f :     0.017598
      f+1     :     0.002484
      f-1     :     0.002224
      f+2     :     0.003509
      f-2     :     0.001671
      f+3     :     0.002963
      f-3     :     0.002574
 10 S s       :     5.856117  s :     5.856117
      pz      :     3.428079  p :    10.489498
      px      :     3.508956
      py      :     3.552463
      dz2     :     0.012392  d :     0.084697
      dxz     :     0.015652
      dyz     :     0.027526
      dx2y2   :     0.006060
      dxy     :     0.023068
      f0      :     0.001071  f :     0.010126
      f+1     :     0.000897
      f-1     :     0.001725
      f+2     :     0.001022
      f-2     :     0.003323
      f+3     :     0.001057
      f-3     :     0.001031
 11 N s       :     3.374837  s :     3.374837
      pz      :     1.372518  p :     3.768689
      px      :     1.384000
      py      :     1.012170
      dz2     :     0.006620  d :     0.058054
      dxz     :     0.008291
      dyz     :     0.014928
      dx2y2   :     0.012746
      dxy     :     0.015470
      f0      :     0.000445  f :     0.004456
      f+1     :     0.000510
      f-1     :     0.000574
      f+2     :     0.000704
      f-2     :     0.000671
      f+3     :     0.000760
      f-3     :     0.000792
 12 C s       :     3.127336  s :     3.127336
      pz      :     0.852534  p :     2.614004
      px      :     0.893704
      py      :     0.867766
      dz2     :     0.032513  d :     0.182928
      dxz     :     0.034101
      dyz     :     0.042292
      dx2y2   :     0.023221
      dxy     :     0.050802
      f0      :     0.001090  f :     0.011257
      f+1     :     0.001455
      f-1     :     0.001649
      f+2     :     0.001684
      f-2     :     0.002983
      f+3     :     0.001133
      f-3     :     0.001262
 13 C s       :     3.104714  s :     3.104714
      pz      :     0.890330  p :     2.720771
      px      :     0.907765
      py      :     0.922676
      dz2     :     0.017794  d :     0.108791
      dxz     :     0.011197
      dyz     :     0.030422
      dx2y2   :     0.020515
      dxy     :     0.028863
      f0      :     0.001016  f :     0.011342
      f+1     :     0.001578
      f-1     :     0.001244
[...]
      f-1     :     0.004764
      f+2     :     0.007737
      f-2     :     0.004738
      f+3     :     0.007712
      f-3     :     0.007615
 15 C s       :     2.705700  s :     2.705700
      pz      :     0.898705  p :     2.797356
      px      :     0.931547
      py      :     0.967104
      dz2     :     0.092349  d :     0.417179
      dxz     :     0.070188
      dyz     :     0.058491
      dx2y2   :     0.116312
      dxy     :     0.079839
      f0      :     0.003233  f :     0.041071
      f+1     :     0.005174
      f-1     :     0.006075
      f+2     :     0.007238
      f-2     :     0.006165
      f+3     :     0.007017
      f-3     :     0.006168
 16 C s       :     2.701684  s :     2.701684
      pz      :     0.936714  p :     2.869793
      px      :     0.956971
      py      :     0.976109
      dz2     :     0.043180  d :     0.390387
      dxz     :     0.056331
      dyz     :     0.088070
      dx2y2   :     0.096324
      dxy     :     0.106482
      f0      :     0.004087  f :     0.040290
      f+1     :     0.004233
      f-1     :     0.004444
      f+2     :     0.006436
      f-2     :     0.004786
      f+3     :     0.009578
      f-3     :     0.006727
 17 C s       :     2.701529  s :     2.701529
      pz      :     0.849390  p :     2.680860
      px      :     0.824055
      py      :     1.007415
      dz2     :     0.125226  d :     0.708431
      dxz     :     0.103050
      dyz     :     0.144406
      dx2y2   :     0.162965
      dxy     :     0.172782
      f0      :     0.009086  f :     0.099227
      f+1     :     0.014872
      f-1     :     0.010446
      f+2     :     0.016719
      f-2     :     0.013709
      f+3     :     0.019091
      f-3     :     0.015303
 18 O s       :     3.177147  s :     3.177147
      pz      :     1.438699  p :     4.346693
      px      :     1.401929
      py      :     1.506065
      dz2     :     0.007892  d :     0.075470
      dxz     :     0.016904
      dyz     :     0.018076
      dx2y2   :     0.013629
      dxy     :     0.018970
      f0      :     0.000589  f :     0.005063
      f+1     :     0.000688
      f-1     :     0.000417
      f+2     :     0.000636
      f-2     :     0.001045
      f+3     :     0.000824
      f-3     :     0.000865
 19 C s       :     2.695056  s :     2.695056
      pz      :     0.930450  p :     2.844829
      px      :     0.949246
      py      :     0.965133
      dz2     :     0.074301  d :     0.387751
      dxz     :     0.069023
      dyz     :     0.060422
      dx2y2   :     0.101531
      dxy     :     0.082475
      f0      :     0.003289  f :     0.040801
      f+1     :     0.005380
      f-1     :     0.005547
      f+2     :     0.007269
      f-2     :     0.006729
      f+3     :     0.006807
      f-3     :     0.005780
 20 H s       :     0.846243  s :     0.846243
      pz      :     0.074405  p :     0.152392
      px      :     0.037846
      py      :     0.040142
      dz2     :     0.009299  d :     0.027574
      dxz     :     0.008812
      dyz     :     0.009107
      dx2y2   :     0.000038
      dxy     :     0.000319
 21 H s       :     0.847929  s :     0.847929
      pz      :     0.042645  p :     0.152287
      px      :     0.048058
      py      :     0.061583
      dz2     :     0.004015  d :     0.027508
      dxz     :     0.002846
      dyz     :     0.005664
      dx2y2   :     0.008013
      dxy     :     0.006970
 22 H s       :     0.843713  s :     0.843713
      pz      :     0.041216  p :     0.154817
      px      :     0.049736
      py      :     0.063865
      dz2     :     0.003482  d :     0.027609
      dxz     :     0.003096
      dyz     :     0.005466
      dx2y2   :     0.008324
      dxy     :     0.007241
 23 H s       :     0.854562  s :     0.854562
      pz      :     0.038411  p :     0.143705
      px      :     0.042968
      py      :     0.062326
      dz2     :     0.003214  d :     0.026840
      dxz     :     0.001985
      dyz     :     0.006749
      dx2y2   :     0.007268
      dxy     :     0.007626
 24 H s       :     0.854257  s :     0.854257
      pz      :     0.079527  p :     0.146709
      px      :     0.036654
      py      :     0.030528
      dz2     :     0.010568  d :     0.026983
      dxz     :     0.008726
      dyz     :     0.006960
      dx2y2   :     0.000169
      dxy     :     0.000561
 25 H s       :     0.825198  s :     0.825198
      pz      :     0.071149  p :     0.150926
      px      :     0.040905
      py      :     0.038872
      dz2     :     0.009437  d :     0.027756
      dxz     :     0.008330
      dyz     :     0.007948
      dx2y2   :     0.001468
      dxy     :     0.000574
 26 H s       :     0.845325  s :     0.845325
      pz      :     0.039091  p :     0.150379
      px      :     0.039727
      py      :     0.071561
      dz2     :     0.002839  d :     0.027702
      dxz     :     0.000178
      dyz     :     0.008740
      dx2y2   :     0.006985
      dxy     :     0.008961
 27 H s       :     0.825774  s :     0.825774
      pz      :     0.038923  p :     0.151187
      px      :     0.072245
      py      :     0.040019
      dz2     :     0.002580  d :     0.027743
      dxz     :     0.008758
      dyz     :     0.000397
      dx2y2   :     0.007937
      dxy     :     0.008071
 28 H s       :     0.741940  s :     0.741940
      pz      :     0.063727  p :     0.253819
      px      :     0.068969
      py      :     0.121123
      dz2     :     0.005403  d :     0.061837
      dxz     :     0.000539
      dyz     :     0.019543
      dx2y2   :     0.016009
      dxy     :     0.020344
 29 H s       :     0.748920  s :     0.748920
      pz      :     0.106766  p :     0.254194
      px      :     0.100017
      py      :     0.047412
      dz2     :     0.018904  d :     0.061412
      dxz     :     0.013834
      dyz     :     0.009737
      dx2y2   :     0.010332
      dxy     :     0.008605
 30 H s       :     0.833588  s :     0.833588
      pz      :     0.046734  p :     0.149267
      px      :     0.052140
      py      :     0.050394
      dz2     :     0.004395  d :     0.028487
      dxz     :     0.006140
      dyz     :     0.005226
      dx2y2   :     0.005745
      dxy     :     0.006981
 31 H s       :     0.845255  s :     0.845255
      pz      :     0.053005  p :     0.157092
      px      :     0.064193
      py      :     0.039893
      dz2     :     0.005081  d :     0.027542
      dxz     :     0.006416
      dyz     :     0.003733
      dx2y2   :     0.006164
      dxy     :     0.006147
 32 H s       :     0.843455  s :     0.843455
      pz      :     0.037476  p :     0.151431
      px      :     0.037635
      py      :     0.076320
      dz2     :     0.002680  d :     0.026468
      dxz     :     0.000479
      dyz     :     0.007571
      dx2y2   :     0.007720
      dxy     :     0.008017
 33 H s       :     0.848539  s :     0.848539
      pz      :     0.058742  p :     0.159108
      px      :     0.052027
      py      :     0.048339
      dz2     :     0.006238  d :     0.027763
      dxz     :     0.005309
      dyz     :     0.005612
      dx2y2   :     0.005531
      dxy     :     0.005074
 34 H s       :     0.706428  s :     0.706428
      pz      :     0.114855  p :     0.347793
      px      :     0.091024
      py      :     0.141914
      dz2     :     0.023524  d :     0.099576
      dxz     :     0.012756
      dyz     :     0.023192
      dx2y2   :     0.020387
      dxy     :     0.019717
 35 H s       :     0.838621  s :     0.838621
      pz      :     0.039773  p :     0.156764
      px      :     0.039244
      py      :     0.077747
      dz2     :     0.002748  d :     0.028022
      dxz     :     0.000525
      dyz     :     0.008329
      dx2y2   :     0.007937
      dxy     :     0.008483


                      *****************************
                      * MAYER POPULATION ANALYSIS *
                      *****************************

  NA   - Mulliken gross atomic population
  ZA   - Total nuclear charge
  QA   - Mulliken gross atomic charge
  VA   - Mayer's total valence
  BVA  - Mayer's bonded valence
  FA   - Mayer's free valence

  ATOM       NA         ZA         QA         VA         BVA        FA
  0 C      6.3128     6.0000    -0.3128     3.8648     3.8648    -0.0000
  1 C      5.9773     6.0000     0.0227     3.8526     3.8526    -0.0000
  2 O      8.3597     8.0000    -0.3597     2.0598     2.0598     0.0000
  3 C      5.5298     6.0000     0.4702     4.2232     4.2232    -0.0000
  4 O      8.4366     8.0000    -0.4366     2.0766     2.0766     0.0000
  5 C      6.2260     6.0000    -0.2260     3.6439     3.6439    -0.0000
  6 C      5.8474     6.0000     0.1526     3.8849     3.8849    -0.0000
  7 C      6.2732     6.0000    -0.2732     3.9035     3.9035    -0.0000
  8 N      7.1204     7.0000    -0.1204     3.3098     3.3098    -0.0000
  9 C      5.7882     6.0000     0.2118     4.1526     4.1526     0.0000
 10 S     16.4404    16.0000    -0.4404     1.7541     1.7541    -0.0000
 11 N      7.2060     7.0000    -0.2060     3.2548     3.2548    -0.0000
 12 C      5.9355     6.0000     0.0645     3.9382     3.9382    -0.0000
 13 C      5.9456     6.0000     0.0544     3.7174     3.7174     0.0000
 14 C      6.1863     6.0000    -0.1863     3.8470     3.8470     0.0000
 15 C      6.1344     6.0000    -0.1344     3.7988     3.7988     0.0000
 16 C      6.2781     6.0000    -0.2781     3.7928     3.7928    -0.0000
 17 C      5.6860     6.0000     0.3140     3.8749     3.8749    -0.0000
 18 O      8.3565     8.0000    -0.3565     2.1194     2.1194    -0.0000
 19 C      6.2624     6.0000    -0.2624     3.8589     3.8589    -0.0000
 20 H      0.8905     1.0000     0.1095     0.9736     0.9736    -0.0000
 21 H      0.9026     1.0000     0.0974     0.9846     0.9846    -0.0000
 22 H      0.8806     1.0000     0.1194     0.9889     0.9889    -0.0000
 23 H      0.8872     1.0000     0.1128     0.9779     0.9779    -0.0000
 24 H      0.8862     1.0000     0.1138     0.9841     0.9841    -0.0000
 25 H      0.8688     1.0000     0.1312     0.9807     0.9807     0.0000
 26 H      0.9047     1.0000     0.0953     0.9859     0.9859    -0.0000
 27 H      0.8683     1.0000     0.1317     0.9810     0.9810    -0.0000
 28 H      0.8030     1.0000     0.1970     1.0231     1.0231     0.0000
 29 H      0.8049     1.0000     0.1951     1.0188     1.0188    -0.0000
 30 H      0.8494     1.0000     0.1506     0.9935     0.9935    -0.0000
 31 H      0.8487     1.0000     0.1513     0.9852     0.9852     0.0000
 32 H      0.8396     1.0000     0.1604     0.9772     0.9772    -0.0000
 33 H      0.8693     1.0000     0.1307     0.9917     0.9917    -0.0000
 34 H      0.7593     1.0000     0.2407     1.0107     1.0107     0.0000
 35 H      0.8341     1.0000     0.1659     0.9868     0.9868    -0.0000

  Mayer bond orders larger than 0.100000
B(  0-C ,  1-C ) :   0.9583 B(  0-C , 20-H ) :   0.9709 B(  0-C , 21-H ) :   0.9777 
B(  0-C , 22-H ) :   0.9745 B(  1-C ,  2-O ) :   0.8959 B(  1-C , 23-H ) :   0.9845 
B(  1-C , 24-H ) :   0.9828 B(  2-O ,  3-C ) :   1.1607 B(  3-C ,  4-O ) :   1.9647 
B(  3-C ,  5-C ) :   1.0600 B(  5-C ,  6-C ) :   1.6545 B(  5-C , 12-C ) :   0.9714 
B(  6-C ,  7-C ) :   0.9661 B(  6-C ,  8-N ) :   1.1655 B(  7-C , 25-H ) :   0.9606 
B(  7-C , 26-H ) :   0.9903 B(  7-C , 27-H ) :   0.9604 B(  8-N ,  9-C ) :   1.1837 
B(  8-N , 28-H ) :   0.9478 B(  9-C , 10-S ) :   1.6066 B(  9-C , 11-N ) :   1.3056 
B( 11-N , 12-C ) :   0.9885 B( 11-N , 29-H ) :   0.9512 B( 12-C , 13-C ) :   0.9347 
B( 12-C , 30-H ) :   1.0019 B( 13-C , 14-C ) :   1.3555 B( 13-C , 19-C ) :   1.3837 
B( 14-C , 15-C ) :   1.3919 B( 14-C , 31-H ) :   0.9716 B( 15-C , 16-C ) :   1.3604 
B( 15-C , 32-H ) :   0.9712 B( 16-C , 17-C ) :   1.3315 B( 16-C , 33-H ) :   0.9851 
B( 17-C , 18-O ) :   1.1109 B( 17-C , 19-C ) :   1.3707 B( 18-O , 34-H ) :   0.9798 
B( 19-C , 35-H ) :   0.9578 

-------
TIMINGS
-------

Total SCF time: 0 days 1 hours 31 min 30 sec 

Total time                  ....    5490.198 sec
Sum of individual times     ....    5480.318 sec  ( 99.8%)

Fock matrix formation       ....    5438.791 sec  ( 99.1%)
Diagonalization             ....       4.414 sec  (  0.1%)
Density matrix formation    ....       0.195 sec  (  0.0%)
Population analysis         ....       0.908 sec  (  0.0%)
Initial guess               ....       5.243 sec  (  0.1%)
Orbital Transformation      ....       0.000 sec  (  0.0%)
Orbital Orthonormalization  ....       0.000 sec  (  0.0%)
DIIS solution               ....      22.011 sec  (  0.4%)
SOSCF solution              ....       7.608 sec  (  0.1%)

------------------------------------------------------------------------------
                                ORCA  MP2 
------------------------------------------------------------------------------

Freezing NCore=48 chemical core electrons

-------------
RI-MP2 ENERGY
-------------
Dimension of the basis                    ...  828
Memory devoted to MP2                     ...  256 MB   
Data format for buffers                   ... DOUBLE
Compression type for matrix containers    ... UNCOMPRESSED
Overall scaling of the MP2 energy         ...   1.000e+00
Calculating two index integrals           ... done (    0.033 sec)
Cholesky decomposition of V**-1           ... done (    1.580 sec)

-----------------
RI-TRANSFORMATION (AUX index driven)
-----------------

Dimension of the orbital-basis         ... 828
Dimension of the aux-basis             ... 2141
Transformation of internal/external MOs...   24-  76 to   77- 827
Number Format for Storage              ... Double (8 Byte)
Integral mode                          ... Direct

First Phase: integral generation and transformation of MO indices
  Aux angular momentum 0               ... done (    7.798 sec)
  Aux angular momentum 1               ... done (   13.749 sec)
  Aux angular momentum 2               ... done (   17.474 sec)
  Aux angular momentum 3               ... done (   14.260 sec)
  Aux angular momentum 4               ... done (    5.117 sec)
Closing buffer VIA ( 0.63 GB; CompressionRatio= 1.00)
  Phase 1 completed in    58.600 sec
Second Phase: sorting and transformation of aux index

IA-Transformation
Memory available                       ... 167 MB 
Max. # MO pairs treated in a batch     ... 12    
# of internal orbitals                 ... 53
# batches for internal orbitals        ... 5
Closing buffer IAV ( 0.63 GB; CompressionRatio= 1.00)
(ia|v) transformation done in    71.877 sec

  Phase 2 completed in    71.883 sec
RI-Integral transformation completed in   130.690 sec
Opening buffers                              ... done

Starting loop over batches of integrals:

Operator 0  - window                       ... ( 24- 76)x( 77-827)
Operator 0  - Memory available             ...   256 MB
Operator 0  - Memory needed per MO         ...  12.3 MB
Operator 0  - Number of orbitals per batch ... 13
Operator 0  - Number of batches            ... 5

OPERATOR  0   PASS   0:  MOs    24 ...   36
  Reading integrals       ... ok
  Internal MO  26
  Internal MO  29
  Internal MO  32
  Internal MO  35
OPERATOR  0   PASS   1:  MOs    37 ...   49
  Reading integrals       ... ok
  Internal MO  38
  Internal MO  41
  Internal MO  44
  Internal MO  47
OPERATOR  0   PASS   2:  MOs    50 ...   62
  Reading integrals       ... ok
  Internal MO  50
  Internal MO  53
  Internal MO  56
  Internal MO  59
  Internal MO  62
OPERATOR  0   PASS   3:  MOs    63 ...   75
  Reading integrals       ... ok
  Internal MO  65
  Internal MO  68
  Internal MO  71
  Internal MO  74
OPERATOR  0   PASS   4:  MOs    76 ...   76
  Reading integrals       ... ok
Time spent in pair loops =   442.106 sec
Deleting buffer (Ka|jb)[aa] ...done

-----------------------------------------------
 RI-MP2 CORRELATION ENERGY:     -3.532161067 Eh
-----------------------------------------------


-------
TIMINGS
-------

Total time                :  574.577 sec
Integral trafo            :  130.699 sec ( 22.7%)
I/O of integrals          :    6.068 sec (  1.1%)
K(i,j) Operators          :  382.701 sec ( 66.6%)
T(i,j) pair energies      :    4.001 sec (  0.7%)
V-calculation             :    0.033 sec (  0.0%)
V**(-1/2)                 :    1.580 sec (  0.3%)
Gamma(ia|P)               :    0.000 sec (  0.0%)
Gamma-Trafo               :    0.000 sec (  0.0%)
D(virtual)                :    0.000 sec (  0.0%)
D(internal)               :    0.000 sec (  0.0%)
W(virtual)                :    0.000 sec (  0.0%)
W(internal)               :    0.000 sec (  0.0%)
L(virtual)                :    0.000 sec (  0.0%)
L(internal)               :    0.000 sec (  0.0%)
G(D)                      :    0.000 sec (  0.0%)
G(Z)                      :    0.000 sec (  0.0%)
Z-Vector Solution         :    0.000 sec (  0.0%)
3-Index Derivative        :    0.000 sec (  0.0%)
2-Index Derivative        :    0.000 sec (  0.0%)
Separable Gradient        :    0.000 sec (  0.0%)


---------------------------------------
MP2 TOTAL ENERGY:    -1274.350452127 Eh
---------------------------------------

-------------------------   --------------------
FINAL SINGLE POINT ENERGY     -1274.350452126630
-------------------------   --------------------


                            ***************************************
                            *     ORCA property calculations      *
                            ***************************************


  WARNING: The energy has been calculated at the MP2 level but the densities
           used in the property calculations are still SCF densities
           MP2 response densities have not been calculated 
           use %mp2 Density relaxed end
           or  %mp2 Density unrelaxed end

                                    ---------------------
                                    Active property flags
                                    ---------------------
   (+) Dipole Moment


------------------------------------------------------------------------------
                       ORCA ELECTRIC PROPERTIES CALCULATION
------------------------------------------------------------------------------

Dipole Moment Calculation                       ... on
Quadrupole Moment Calculation                   ... off
Polarizability Calculation                      ... off
GBWName                                         ... CONFS/Conf340.orca.gbw
Electron density file                           ... CONFS/Conf340.orca.scfp
The origin for moment calculation is the CENTER OF MASS  = (32.852308, 31.541019 35.288790)

-------------
DIPOLE MOMENT
-------------
                                X             Y             Z
Electronic contribution:      9.67499      10.42380       7.32074
Nuclear contribution   :    -10.60788     -12.19069      -7.71601
                        -----------------------------------------
Total Dipole Moment    :     -0.93289      -1.76689      -0.39527
                        -----------------------------------------
Magnitude (a.u.)       :      2.03677
Magnitude (Debye)      :      5.17706



--------------------
Rotational spectrum 
--------------------
 
Rotational constants in cm-1:     0.012300     0.008683     0.006286 
Rotational constants in MHz :   368.736426   260.320892   188.446916 

 Dipole components along the rotational axes: 
x,y,z [a.u.] :     2.028824    -0.145051    -0.106142 
x,y,z [Debye]:     5.156862    -0.368691    -0.269791 

 

Timings for individual modules:

Sum of individual times         ...     6068.208 sec (= 101.137 min)
GTO integral calculation        ...        1.838 sec (=   0.031 min)   0.0 %
SCF iterations                  ...     5490.255 sec (=  91.504 min)  90.5 %
MP2 module                      ...      576.115 sec (=   9.602 min)   9.5 %
                             ****ORCA TERMINATED NORMALLY****
TOTAL RUN TIME: 0 days 1 hours 41 minutes 10 seconds 266 msec
