
                                 *****************
                                 * O   R   C   A *
                                 *****************

           --- An Ab Initio, DFT and Semiempirical electronic structure package ---

                  #######################################################
                  #                        -***-                        #
                  #          Department of theory and spectroscopy      #
                  #               Directorship: Frank Neese             #
                  #        Max Planck Institute fuer Kohlenforschung    #
                  #                Kaiser Wilhelm Platz 1               #
                  #                 D-45470 Muelheim/Ruhr               #
                  #                      Germany                        #
                  #                                                     #
                  #                  All rights reserved                #
                  #                        -***-                        #
                  #######################################################


                         Program Version 4.2.0 -  RELEASE  -


 With contributions from (in alphabetic order):
   Daniel Aravena         : Magnetic Suceptibility
   Michael Atanasov       : Ab Initio Ligand Field Theory (pilot matlab implementation)
   Alexander A. Auer      : GIAO ZORA, VPT2
   Ute Becker             : Parallelization
   Giovanni Bistoni       : ED, misc. LED, open-shell LED, HFLED
   Martin Brehm           : Molecular dynamics
   Dmytro Bykov           : SCF Hessian
   Vijay G. Chilkuri      : MRCI spin determinant printing, contributions to CSF-ICE
   Dipayan Datta          : RHF DLPNO-CCSD density
   Achintya Kumar Dutta   : EOM-CC, STEOM-CC
   Dmitry Ganyushin       : Spin-Orbit,Spin-Spin,Magnetic field MRCI
   Miquel Garcia          : C-PCM Hessian, Gaussian charge scheme
   Yang Guo               : DLPNO-NEVPT2, CIM, IAO-localization
   Andreas Hansen         : Spin unrestricted coupled pair/coupled cluster methods
   Benjamin Helmich-Paris : CASSCF linear response (MC-RPA)
   Lee Huntington         : MR-EOM, pCC
   Robert Izsak           : Overlap fitted RIJCOSX, COSX-SCS-MP3, EOM
   Christian Kollmar      : KDIIS, OOCD, Brueckner-CCSD(T), CCSD density
   Simone Kossmann        : Meta GGA functionals, TD-DFT gradient, OOMP2, MP2 Hessian
   Martin Krupicka        : AUTO-CI
   Lucas Lang             : DCDCAS
   Dagmar Lenk            : GEPOL surface, SMD
   Dimitrios Liakos       : Extrapolation schemes; Compound Job, initial MDCI parallelization
   Dimitrios Manganas     : Further ROCIS development; embedding schemes
   Dimitrios Pantazis     : SARC Basis sets
   Taras Petrenko         : DFT Hessian,TD-DFT gradient, ASA, ECA, R-Raman, ABS, FL, XAS/XES, NRVS
   Peter Pinski           : DLPNO-MP2, DLPNO-MP2 Gradient
   Christoph Reimann      : Effective Core Potentials
   Marius Retegan         : Local ZFS, SOC
   Christoph Riplinger    : Optimizer, TS searches, QM/MM, DLPNO-CCSD(T), (RO)-DLPNO pert. Triples
   Tobias Risthaus        : Range-separated hybrids, TD-DFT gradient, RPA, STAB
   Michael Roemelt        : Original ROCIS implementation
   Masaaki Saitow         : Open-shell DLPNO-CCSD energy and density
   Barbara Sandhoefer     : DKH picture change effects
   Avijit Sen             : IP-ROCIS
   Kantharuban Sivalingam : CASSCF convergence, NEVPT2, FIC-MRCI
   Bernardo de Souza      : ESD, SOC TD-DFT
   Georgi Stoychev        : AutoAux, RI-MP2 NMR
   Willem Van den Heuvel  : Paramagnetic NMR
   Boris Wezisla          : Elementary symmetry handling
   Frank Wennmohs         : Technical directorship


 We gratefully acknowledge several colleagues who have allowed us to
 interface, adapt or use parts of their codes:
   Stefan Grimme, W. Hujo, H. Kruse,             : VdW corrections, initial TS optimization,
                  C. Bannwarth                     DFT functionals, gCP, sTDA/sTD-DF
   Ed Valeev, F. Pavosevic, A. Kumar             : LibInt (2-el integral package), F12 methods
   Garnet Chan, S. Sharma, J. Yang, R. Olivares  : DMRG
   Ulf Ekstrom                                   : XCFun DFT Library
   Mihaly Kallay                                 : mrcc  (arbitrary order and MRCC methods)
   Andreas Klamt, Michael Diedenhofen            : otool_cosmo (COSMO solvation model)
   Jiri Pittner, Ondrej Demel                    : Mk-CCSD
   Frank Weinhold                                : gennbo (NPA and NBO analysis)
   Christopher J. Cramer and Donald G. Truhlar   : smd solvation model
   Lars Goerigk                                  : TD-DFT with DH, B97 family of functionals
   V. Asgeirsson, H. Jonsson                     : NEB implementation
   FAccTs GmbH                                   : IRC, NEB, NEB-TS, Multilevel, MM, QM/MM, CI optimization
   S Lehtola, MJT Oliveira, MAL Marques          : LibXC Library


 Your calculation uses the libint2 library for the computation of 2-el integrals
 For citations please refer to: http://libint.valeyev.net

 Your ORCA version has been built with support for libXC version: 4.2.3
 For citations please refer to: https://tddft.org/programs/libxc/

 This ORCA versions uses:
   CBLAS   interface :  Fast vector & matrix operations
   LAPACKE interface :  Fast linear algebra routines
   SCALAPACK package :  Parallel linear algebra routines


----- Orbital basis set information -----
Your calculation utilizes the basis: cc-pVTZ 
       H, B-Ne : Obtained from the ccRepo (grant-hill.group.shef.ac.uk/ccrepo) Feb. 2017
                 T. H. Dunning, Jr., J. Chem. Phys. 90, 1007 (1989)
            He : Obtained from the ccRepo (grant-hill.group.shef.ac.uk/ccrepo) Feb. 2017
                 D. E. Woon, T. H. Dunning, Jr., J. Chem. Phys. 100, 2975 (1994)
  Li-Be, Na-Mg : Obtained from the ccRepo (grant-hill.group.shef.ac.uk/ccrepo) Feb. 2017
                 B. P. Prascher, D. E. Woon, K. A. Peterson, T. H. Dunning, Jr., A. K. Wilson, Theor. Chem. Acc. 128, 69 (2011)
         Al-Ar : Obtained from the ccRepo (grant-hill.group.shef.ac.uk/ccrepo) Feb. 2017
                 D. E. Woon, T. H. Dunning, Jr., J. Chem. Phys. 98, 1358 (1993)
            Ca : Obtained from the Peterson Research Group Website (tyr0.chem.wsu.edu/~kipeters) Feb. 2017
                 J. Koput, K. A. Peterson, J. Phys. Chem. 106, 9595 (2002)
         Sc-Zn : Obtained from the ccRepo (grant-hill.group.shef.ac.uk/ccrepo) Feb. 2017
                 N. B. Balabanov, K. A. Peterson, J. Chem. Phys. 123, 064107 (2005)
                 N. B. Balabanov, K. A. Peterson, J. Chem. Phys. 125, 074110 (2006)
         Ga-Kr : Obtained from the ccRepo (grant-hill.group.shef.ac.uk/ccrepo) Feb. 2017
                 A. K. Wilson, D. E. Woon, K. A. Peterson, T. H. Dunning, Jr., J. Chem. Phys. 110, 7667 (1999)
             Y : Obtained from the ccRepo (grant-hill.group.shef.ac.uk/ccrepo) Feb. 2017
                 K. A. Peterson, D. Figgen, M. Dolg, H. Stoll, J. Chem. Phys. 126, 124101 (2007)
        Ag, Au : Obtained from the Peterson Research Group Website (tyr0.chem.wsu.edu/~kipeters) Feb. 2017
                 K. A. Peterson, C. Puzzarini, Theor. Chem. Acc. 114, 283 (2005)

----- AuxC basis set information -----
Your calculation utilizes the auxiliary basis: cc-pVTZ/C 
  Obtained from the EMSL Basis Set Exchange (bse.pnl.gov) Feb. 2017
  H-He, B-F, Al-Ar, Ga-Kr : F. Weigend, A. Kohn, C. Hattig, J. Chem. Phys. 116, 3175 (2002)
             Li-Be, Na-Mg : C. Haettig, Phys. Chem. Chem. Phys. 7, 59 (2005)
                       Ne : C. Haettig, Phys. Chem. Chem. Phys. 7, 59 (2005)
                            F. Weigend, A. Kohn, C. Hattig, J. Chem. Phys. 116, 3175 (2002)
                    Sc-Zn : J. G. Hill, J. A. Platts, J. Chem. Phys. 128, 044104 (2008)

================================================================================
                                        WARNINGS
                       Please study these warnings very carefully!
================================================================================


WARNING: No MP2 level density has been requested!
         To caclulate MP2 level properties use
         %mp2 Density relaxed end
         or
         %mp2 Density unrelaxed end

WARNING: Post HF methods need fully converged wavefunctions
  ===> : Setting SCFConvForced true
         You can overwrite this default with %scf ConvForced false 


INFO   : the flag for use of LIBINT has been found!

================================================================================
                                       INPUT FILE
================================================================================
NAME = CONFS/Conf292.orca
|  1> ! ri-mp2 cc-pvtz cc-pvtz/c TightSCF  NoKeepInts
|  2> 
|  3> %scf
|  4>   MaxCore 4096
|  5> end
|  6> *xyz  0  1
|  7>     C       15.1473010   14.5040372   17.3052818
|  8>     C       15.4236628   15.6414509   16.3045320
|  9>     O       16.7365775   15.4467929   15.7362687
| 10>     C       17.8937947   15.6595568   16.4414117
| 11>     O       18.7527548   14.7977635   16.4812699
| 12>     C       17.9319171   16.8507928   17.3527169
| 13>     C       17.4746308   18.0782596   16.9982554
| 14>     C       16.8924137   18.5001178   15.6637487
| 15>     N       17.6270499   19.1579913   17.8718045
| 16>     C       18.3614005   19.1298392   19.0278496
| 17>     S       18.5750015   20.4821198   19.9550510
| 18>     N       18.9124593   17.9219971   19.3750065
| 19>     C       18.6576688   16.6420088   18.6856088
| 20>     C       17.8891352   15.6841766   19.5893132
| 21>     C       18.3049450   14.3462263   19.7181112
| 22>     C       17.5952388   13.4513936   20.5361198
| 23>     C       16.4582048   13.8968324   21.2314194
| 24>     C       16.0382030   15.2275835   21.1030150
| 25>     O       14.9333674   15.6575594   21.7625013
| 26>     C       16.7460045   16.1164058   20.2876054
| 27>     H       15.8813725   14.4955274   18.1163664
| 28>     H       15.1907595   13.5306803   16.8006997
| 29>     H       14.1510522   14.6146762   17.7501470
| 30>     H       14.6731667   15.6020495   15.5044576
| 31>     H       15.3244890   16.6056774   16.8139088
| 32>     H       17.1624671   17.8063429   14.8582283
| 33>     H       17.2733196   19.4832053   15.3587184
| 34>     H       15.7989489   18.5665187   15.7054706
| 35>     H       17.2455174   20.0579594   17.6258410
| 36>     H       19.4332756   17.9245320   20.2429816
| 37>     H       19.6343368   16.1869464   18.4636226
| 38>     H       19.1739953   13.9942402   19.1661339
| 39>     H       17.9246010   12.4172603   20.6224954
| 40>     H       15.9057649   13.2076260   21.8615561
| 41>     H       14.6204118   14.9242131   22.3135866
| 42>     H       16.4017906   17.1416396   20.2028952
| 43> *
| 44> 
| 45>                          ****END OF INPUT****
================================================================================

                       ****************************
                       * Single Point Calculation *
                       ****************************

---------------------------------
CARTESIAN COORDINATES (ANGSTROEM)
---------------------------------
  C     15.147301   14.504037   17.305282
  C     15.423663   15.641451   16.304532
  O     16.736577   15.446793   15.736269
  C     17.893795   15.659557   16.441412
  O     18.752755   14.797763   16.481270
  C     17.931917   16.850793   17.352717
  C     17.474631   18.078260   16.998255
  C     16.892414   18.500118   15.663749
  N     17.627050   19.157991   17.871804
  C     18.361400   19.129839   19.027850
  S     18.575001   20.482120   19.955051
  N     18.912459   17.921997   19.375007
  C     18.657669   16.642009   18.685609
  C     17.889135   15.684177   19.589313
  C     18.304945   14.346226   19.718111
  C     17.595239   13.451394   20.536120
  C     16.458205   13.896832   21.231419
  C     16.038203   15.227583   21.103015
  O     14.933367   15.657559   21.762501
  C     16.746005   16.116406   20.287605
  H     15.881372   14.495527   18.116366
  H     15.190759   13.530680   16.800700
  H     14.151052   14.614676   17.750147
  H     14.673167   15.602049   15.504458
  H     15.324489   16.605677   16.813909
  H     17.162467   17.806343   14.858228
  H     17.273320   19.483205   15.358718
  H     15.798949   18.566519   15.705471
  H     17.245517   20.057959   17.625841
  H     19.433276   17.924532   20.242982
  H     19.634337   16.186946   18.463623
  H     19.173995   13.994240   19.166134
  H     17.924601   12.417260   20.622495
  H     15.905765   13.207626   21.861556
  H     14.620412   14.924213   22.313587
  H     16.401791   17.141640   20.202895

----------------------------
CARTESIAN COORDINATES (A.U.)
----------------------------
  NO LB      ZA    FRAG     MASS         X           Y           Z
   0 C     6.0000    0    12.011   28.624251   27.408658   32.702243
   1 C     6.0000    0    12.011   29.146499   29.558059   30.811100
   2 O     8.0000    0    15.999   31.627548   29.190208   29.737238
   3 C     6.0000    0    12.011   33.814371   29.592274   31.069765
   4 O     8.0000    0    15.999   35.437571   27.963720   31.145086
   5 C     6.0000    0    12.011   33.886412   31.843384   32.791883
   6 C     6.0000    0    12.011   33.022267   34.162960   32.122047
   7 C     6.0000    0    12.011   31.922036   34.960156   29.600195
   8 N     7.0000    0    14.007   33.310297   36.203357   33.772816
   9 C     6.0000    0    12.011   34.698018   36.150157   35.957425
  10 S    16.0000    0    32.060   35.101666   38.705597   37.709581
  11 N     7.0000    0    14.007   35.739369   33.867666   36.613456
  12 C     6.0000    0    12.011   35.257884   31.448839   35.310683
  13 C     6.0000    0    12.011   33.805566   29.638798   37.018437
  14 C     6.0000    0    12.011   34.591333   27.110439   37.261830
  15 C     6.0000    0    12.011   33.250183   25.419450   38.807642
  16 C     6.0000    0    12.011   31.101500   26.261207   40.121568
  17 C     6.0000    0    12.011   30.307811   28.775962   39.878919
  18 O     8.0000    0    15.999   28.219975   29.588499   41.125167
  19 C     6.0000    0    12.011   31.645362   30.455593   38.338018
  20 H     1.0000    0     1.008   30.011445   27.392577   34.234971
  21 H     1.0000    0     1.008   28.706375   25.569280   31.748721
  22 H     1.0000    0     1.008   26.741613   27.617736   33.542917
  23 H     1.0000    0     1.008   27.728267   29.483601   29.299179
  24 H     1.0000    0     1.008   28.959087   31.380183   31.773683
  25 H     1.0000    0     1.008   32.432363   33.649112   28.077982
  26 H     1.0000    0     1.008   32.641843   36.817922   29.023772
  27 H     1.0000    0     1.008   29.855687   35.085636   29.679038
  28 H     1.0000    0     1.008   32.589305   37.904050   33.308012
  29 H     1.0000    0     1.008   36.723569   33.872457   38.253691
  30 H     1.0000    0     1.008   37.103519   30.588896   34.891190
  31 H     1.0000    0     1.008   36.233600   26.445281   36.218744
  32 H     1.0000    0     1.008   33.872587   23.465221   38.970869
  33 H     1.0000    0     1.008   30.057540   24.958796   41.312354
  34 H     1.0000    0     1.008   27.628574   28.202676   42.166568
  35 H     1.0000    0     1.008   30.994892   32.393004   38.177939

--------------------------------
INTERNAL COORDINATES (ANGSTROEM)
--------------------------------
 C      0   0   0     0.000000000000     0.00000000     0.00000000
 C      1   0   0     1.539995432346     0.00000000     0.00000000
 O      2   1   0     1.443800514118   108.62537781     0.00000000
 C      3   2   1     1.371731305893   122.94976605   287.70344323
 O      4   3   2     1.217410703676   120.14948782   128.42563605
 C      4   3   2     1.500324529102   117.18252292   319.95834010
 C      6   4   3     1.356992431907   123.43396770   315.55271600
 C      7   6   4     1.515865833372   127.67063460   358.24611175
 N      7   6   4     1.397190093058   119.93051179   184.27866612
 C      9   7   6     1.369855327284   124.76640310     8.44857429
 S     10   9   7     1.653478347152   121.71391842   175.80140360
 N     10   9   7     1.372248611880   116.54251394   355.91932963
 C     12  10   9     1.475993711298   125.15731119   353.16261892
 C     13  12  10     1.524719010266   110.79067946   247.20924202
 C     14  13  12     1.406981776659   120.17710147   226.87612158
 C     15  14  13     1.404829712450   120.64516731   180.72770451
 C     16  15  14     1.405241465180   119.66761495     0.06151608
 C     17  16  15     1.401352094262   119.87999652     0.12438787
 O     18  17  16     1.356636708001   120.03411189   179.35346491
 C     18  17  16     1.398528104884   120.34867011   359.90359873
 H      1   2   3     1.093979712867   111.53835834    60.30399472
 H      1   2   3     1.097230783218   110.44146412   300.31224099
 H      1   2   3     1.096657515359   110.61720375   180.57609633
 H      2   1   3     1.097686618290   108.93187568   118.93168808
 H      2   1   3     1.095003611997   109.37962507   236.74920412
 H      8   7   6     1.096866247789   112.08211819   340.88032879
 H      8   7   6     1.097539895051   111.14000165   222.36675878
 H      8   7   6     1.096273262147   111.49683574   102.31050045
 H      9   7   6     1.007972059586   119.74410383   183.06063287
 H     12  10   9     1.012243458010   114.91921619   181.23622281
 H     13  12  10     1.100109105093   107.44056492   129.58009272
 H     15  14  13     1.088035651180   119.81790961   359.64143671
 H     16  15  14     1.088747851999   119.89318248   179.65711064
 H     17  16  15     1.085019615306   119.86645279   179.80096910
 H     19  18  17     0.969243525215   107.43033799     4.20588290
 H     20  18  17     1.084787247159   119.05104078   179.95202996

---------------------------
INTERNAL COORDINATES (A.U.)
---------------------------
 C      0   0   0     0.000000000000     0.00000000     0.00000000
 C      1   0   0     2.910169614624     0.00000000     0.00000000
 O      2   1   0     2.728387563697   108.62537781     0.00000000
 C      3   2   1     2.592196497465   122.94976605   287.70344323
 O      4   3   2     2.300572822451   120.14948782   128.42563605
 C      4   3   2     2.835202472007   117.18252292   319.95834010
 C      6   4   3     2.564344062108   123.43396770   315.55271600
 C      7   6   4     2.864571280841   127.67063460   358.24611175
 N      7   6   4     2.640306632908   119.93051179   184.27866612
 C      9   7   6     2.588651411660   124.76640310     8.44857429
 S     10   9   7     3.124621244485   121.71391842   175.80140360
 N     10   9   7     2.593174064107   116.54251394   355.91932963
 C     12  10   9     2.789223889744   125.15731119   353.16261892
 C     13  12  10     2.881301360585   110.79067946   247.20924202
 C     14  13  12     2.658810233303   120.17710147   226.87612158
 C     15  14  13     2.654743421325   120.64516731   180.72770451
 C     16  15  14     2.655521521221   119.66761495     0.06151608
 C     17  16  15     2.648171675353   119.87999652     0.12438787
 O     18  17  16     2.563671841346   120.03411189   179.35346491
 C     18  17  16     2.642835108824   120.34867011   359.90359873
 H      1   2   3     2.067322053385   111.53835834    60.30399472
 H      1   2   3     2.073465685989   110.44146412   300.31224099
 H      1   2   3     2.072382366735   110.61720375   180.57609633
 H      2   1   3     2.074327089438   108.93187568   118.93168808
 H      2   1   3     2.069256942329   109.37962507   236.74920412
 H      8   7   6     2.072776813862   112.08211819   340.88032879
 H      8   7   6     2.074049822700   111.14000165   222.36675878
 H      8   7   6     2.071656233399   111.49683574   102.31050045
 H      9   7   6     1.904791143262   119.74410383   183.06063287
 H     12  10   9     1.912862916492   114.91921619   181.23622281
 H     13  12  10     2.078904926059   107.44056492   129.58009272
 H     15  14  13     2.056089404673   119.81790961   359.64143671
 H     16  15  14     2.057435269174   119.89318248   179.65711064
 H     17  16  15     2.050389922862   119.86645279   179.80096910
 H     19  18  17     1.831604819733   107.43033799     4.20588290
 H     20  18  17     2.049950810702   119.05104078   179.95202996

---------------------
BASIS SET INFORMATION
---------------------
There are 5 groups of distinct atoms

 Group   1 Type C   : 18s5p2d1f contracted to 4s3p2d1f pattern {8811/311/11/1}
 Group   2 Type O   : 18s5p2d1f contracted to 4s3p2d1f pattern {8811/311/11/1}
 Group   3 Type N   : 18s5p2d1f contracted to 4s3p2d1f pattern {8811/311/11/1}
 Group   4 Type S   : 41s16p2d1f contracted to 5s4p2d1f pattern {13131311/7711/11/1}
 Group   5 Type H   : 5s2p1d contracted to 3s2p1d pattern {311/11/1}

Atom   0C    basis set group =>   1
Atom   1C    basis set group =>   1
Atom   2O    basis set group =>   2
Atom   3C    basis set group =>   1
Atom   4O    basis set group =>   2
Atom   5C    basis set group =>   1
Atom   6C    basis set group =>   1
Atom   7C    basis set group =>   1
Atom   8N    basis set group =>   3
Atom   9C    basis set group =>   1
Atom  10S    basis set group =>   4
Atom  11N    basis set group =>   3
Atom  12C    basis set group =>   1
Atom  13C    basis set group =>   1
Atom  14C    basis set group =>   1
Atom  15C    basis set group =>   1
Atom  16C    basis set group =>   1
Atom  17C    basis set group =>   1
Atom  18O    basis set group =>   2
Atom  19C    basis set group =>   1
Atom  20H    basis set group =>   5
Atom  21H    basis set group =>   5
Atom  22H    basis set group =>   5
Atom  23H    basis set group =>   5
Atom  24H    basis set group =>   5
Atom  25H    basis set group =>   5
Atom  26H    basis set group =>   5
Atom  27H    basis set group =>   5
Atom  28H    basis set group =>   5
Atom  29H    basis set group =>   5
Atom  30H    basis set group =>   5
Atom  31H    basis set group =>   5
Atom  32H    basis set group =>   5
Atom  33H    basis set group =>   5
Atom  34H    basis set group =>   5
Atom  35H    basis set group =>   5
---------------------------------
AUXILIARY/C BASIS SET INFORMATION
---------------------------------
There are 5 groups of distinct atoms

 Group   1 Type C   : 8s6p5d3f1g contracted to 8s6p5d3f1g pattern {11111111/111111/11111/111/1}
 Group   2 Type O   : 8s6p5d3f1g contracted to 8s6p5d3f1g pattern {11111111/111111/11111/111/1}
 Group   3 Type N   : 8s6p5d3f1g contracted to 8s6p5d3f1g pattern {11111111/111111/11111/111/1}
 Group   4 Type S   : 10s8p7d5f2g contracted to 10s8p7d5f2g pattern {1111111111/11111111/1111111/11111/11}
 Group   5 Type H   : 4s3p2d1f contracted to 4s3p2d1f pattern {1111/111/11/1}

Atom   0C    basis set group =>   1
Atom   1C    basis set group =>   1
Atom   2O    basis set group =>   2
Atom   3C    basis set group =>   1
Atom   4O    basis set group =>   2
Atom   5C    basis set group =>   1
Atom   6C    basis set group =>   1
Atom   7C    basis set group =>   1
Atom   8N    basis set group =>   3
Atom   9C    basis set group =>   1
Atom  10S    basis set group =>   4
Atom  11N    basis set group =>   3
Atom  12C    basis set group =>   1
Atom  13C    basis set group =>   1
Atom  14C    basis set group =>   1
Atom  15C    basis set group =>   1
Atom  16C    basis set group =>   1
Atom  17C    basis set group =>   1
Atom  18O    basis set group =>   2
Atom  19C    basis set group =>   1
Atom  20H    basis set group =>   5
Atom  21H    basis set group =>   5
Atom  22H    basis set group =>   5
Atom  23H    basis set group =>   5
Atom  24H    basis set group =>   5
Atom  25H    basis set group =>   5
Atom  26H    basis set group =>   5
Atom  27H    basis set group =>   5
Atom  28H    basis set group =>   5
Atom  29H    basis set group =>   5
Atom  30H    basis set group =>   5
Atom  31H    basis set group =>   5
Atom  32H    basis set group =>   5
Atom  33H    basis set group =>   5
Atom  34H    basis set group =>   5
Atom  35H    basis set group =>   5
------------------------------------------------------------------------------
                           ORCA GTO INTEGRAL CALCULATION
------------------------------------------------------------------------------

                         BASIS SET STATISTICS AND STARTUP INFO

 # of primitive gaussian shells          ...  682
 # of primitive gaussian functions       ... 1312
 # of contracted shells                  ...  298
 # of contracted basis functions         ...  828
 Highest angular momentum                ...    3
 Maximum contraction depth               ...   13
 Integral package used                   ... LIBINT
 Integral threshhold            Thresh   ...  2.500e-11
 Primitive cut-off              TCut     ...  2.500e-12


------------------------------ INTEGRAL EVALUATION ----------------------------


 * One electron integrals 
 Pre-screening matrix                    ... done
 Shell pair data                         ... done (   0.015 sec)

-------------------------------------------------------------------------------
                                 ORCA SCF
-------------------------------------------------------------------------------

------------
SCF SETTINGS
------------
Hamiltonian:
 Ab initio Hamiltonian  Method          .... Hartree-Fock(GTOs)


General Settings:
 Integral files         IntName         .... CONFS/Conf292.orca
 Hartree-Fock type      HFTyp           .... RHF
 Total Charge           Charge          ....    0
 Multiplicity           Mult            ....    1
 Number of Electrons    NEL             ....  154
 Basis Dimension        Dim             ....  828
 Nuclear Repulsion      ENuc            ....   1733.1003668253 Eh

Convergence Acceleration:
 DIIS                   CNVDIIS         .... on
   Start iteration      DIISMaxIt       ....    12
   Startup error        DIISStart       ....  0.200000
   # of expansion vecs  DIISMaxEq       ....     5
   Bias factor          DIISBfac        ....   1.050
   Max. coefficient     DIISMaxC        ....  10.000
 Newton-Raphson         CNVNR           .... off
 SOSCF                  CNVSOSCF        .... on
   Start iteration      SOSCFMaxIt      ....   150
   Startup grad/error   SOSCFStart      ....  0.003300
 Level Shifting         CNVShift        .... on
   Level shift para.    LevelShift      ....    0.2500
   Turn off err/grad.   ShiftErr        ....    0.0010
 Zerner damping         CNVZerner       .... off
 Static damping         CNVDamp         .... on
   Fraction old density DampFac         ....    0.7000
   Max. Damping (<1)    DampMax         ....    0.9800
   Min. Damping (>=0)   DampMin         ....    0.0000
   Turn off err/grad.   DampErr         ....    0.1000
 Fernandez-Rico         CNVRico         .... off

SCF Procedure:
 Maximum # iterations   MaxIter         ....   125
 SCF integral mode      SCFMode         .... Direct
   Integral package                     .... LIBINT
 Reset frequency        DirectResetFreq ....    20
 Integral Threshold     Thresh          ....  2.500e-11 Eh
 Primitive CutOff       TCut            ....  2.500e-12 Eh

Convergence Tolerance:
 Convergence Check Mode ConvCheckMode   .... Total+1el-Energy
 Convergence forced     ConvForced      .... 1
 Energy Change          TolE            ....  1.000e-08 Eh
 1-El. energy change                    ....  1.000e-05 Eh
 Orbital Gradient       TolG            ....  1.000e-05
 Orbital Rotation angle TolX            ....  1.000e-05
 DIIS Error             TolErr          ....  5.000e-07


Diagonalization of the overlap matrix:
Smallest eigenvalue                        ... 3.361e-05
Time for diagonalization                   ...    0.126 sec
Threshold for overlap eigenvalues          ... 1.000e-08
Number of eigenvalues below threshold      ... 0
Time for construction of square roots      ...    0.102 sec
Total time needed                          ...    0.231 sec

-------------------
DFT GRID GENERATION
-------------------

General Integration Accuracy     IntAcc      ...  4.340
Radial Grid Type                 RadialGrid  ... Gauss-Chebyshev
Angular Grid (max. acc.)         AngularGrid ... Lebedev-110
Angular grid pruning method      GridPruning ... 3 (G Style)
Weight generation scheme         WeightScheme... Becke
Basis function cutoff            BFCut       ...    1.0000e-11
Integration weight cutoff        WCut        ...    1.0000e-14
Grids for H and He will be reduced by one unit

# of grid points (after initial pruning)     ...  46246 (   0.0 sec)
# of grid points (after weights+screening)   ...  41075 (   0.3 sec)
nearest neighbour list constructed           ...    0.0 sec
Grid point re-assignment to atoms done       ...    0.0 sec
Grid point division into batches done        ...    0.0 sec
Reduced shell lists constructed in    1.0 sec

Total number of grid points                  ...    41075
Total number of batches                      ...      659
Average number of points per batch           ...       62
Average number of grid points per atom       ...     1141
Average number of shells per batch           ...   155.81 (52.29%)
Average number of basis functions per batch  ...   396.82 (47.93%)
Average number of large shells per batch     ...   100.36 (64.41%)
Average number of large basis fcns per batch ...   256.62 (64.67%)
Maximum spatial batch extension              ...  21.16, 21.50, 18.84 au
Average spatial batch extension              ...   3.47,  3.36,  3.29 au

Time for grid setup =    1.383 sec

------------------------------
INITIAL GUESS: MODEL POTENTIAL
------------------------------
Loading Hartree-Fock densities                     ... done
Calculating cut-offs                               ... done
Setting up the integral package                    ... done
Initializing the effective Hamiltonian             ... done
Starting the Coulomb interaction                   ... done (   3.3 sec)
Reading the grid                                   ... done
Mapping shells                                     ... done
Starting the XC term evaluation                    ... done (   1.5 sec)
Transforming the Hamiltonian                       ... done (   0.1 sec)
Diagonalizing the Hamiltonian                      ... done (   0.1 sec)
Back transforming the eigenvectors                 ... done (   0.0 sec)
Now organizing SCF variables                       ... done
                      ------------------
                      INITIAL GUESS DONE (   6.8 sec)
                      ------------------
--------------
SCF ITERATIONS
--------------
ITER       Energy         Delta-E        Max-DP      RMS-DP      [F,P]     Damp
               ***  Starting incremental Fock matrix formation  ***
  0  -1270.0055798996   0.000000000000 0.04930113  0.00044825  0.3129913 0.7000
  1  -1270.2712689331  -0.265689033525 0.03608080  0.00036446  0.1835079 0.7000
                               ***Turning on DIIS***
  2  -1270.4369240794  -0.165655146279 0.02584465  0.00024318  0.1098570 0.7000
  3  -1272.5570890130  -2.120164933624 0.06318453  0.00052151  0.0829953 0.0000
  4  -1270.7467707936   1.810318219373 0.01239382  0.00010340  0.0066363 0.0000
  5  -1270.8027315086  -0.055960714973 0.00648912  0.00005507  0.0038626 0.0000
                      *** Initiating the SOSCF procedure ***
                           *** Shutting down DIIS ***
                      *** Re-Reading the Fockian *** 
                      *** Removing any level shift *** 
ITER      Energy       Delta-E        Grad      Rot      Max-DP    RMS-DP
  6  -1270.78238211   0.0203493963  0.001680  0.001680  0.003054  0.000028
               *** Restarting incremental Fock matrix formation ***
  7  -1270.79714927  -0.0147671535  0.000970  0.002460  0.001696  0.000018
  8  -1270.79719782  -0.0000485591  0.000437  0.002913  0.001901  0.000019
  9  -1270.79721678  -0.0000189512  0.000160  0.000322  0.000378  0.000005
 10  -1270.79721924  -0.0000024613  0.000049  0.000132  0.000125  0.000001
 11  -1270.79721948  -0.0000002377  0.000023  0.000128  0.000098  0.000001
 12  -1270.79721954  -0.0000000643  0.000010  0.000037  0.000028  0.000000
 13  -1270.79721955  -0.0000000075  0.000003  0.000009  0.000007  0.000000
                  ***Gradient check signals convergence***
              ***Rediagonalizing the Fockian in SOSCF/NRSCF***

               *****************************************************
               *                     SUCCESS                       *
               *           SCF CONVERGED AFTER  14 CYCLES          *
               *****************************************************


----------------
TOTAL SCF ENERGY
----------------

Total Energy       :        -1270.79721955 Eh          -34580.15036 eV

Components:
Nuclear Repulsion  :         1733.10036683 Eh           47160.05855 eV
Electronic Energy  :        -3003.89758637 Eh          -81740.20892 eV
One Electron Energy:        -5186.94842799 Eh         -141144.04235 eV
Two Electron Energy:         2183.05084161 Eh           59403.83343 eV

Virial components:
Potential Energy   :        -2539.76859353 Eh          -69110.61695 eV
Kinetic Energy     :         1268.97137398 Eh           34530.46658 eV
Virial Ratio       :            2.00143884


---------------
SCF CONVERGENCE
---------------

  Last Energy change         ...    5.1887e-10  Tolerance :   1.0000e-08
  Last MAX-Density change    ...    3.4827e-06  Tolerance :   1.0000e-07
  Last RMS-Density change    ...    3.6153e-08  Tolerance :   5.0000e-09
  Last Orbital Gradient      ...    1.4294e-06  Tolerance :   1.0000e-05
  Last Orbital Rotation      ...    3.7768e-06  Tolerance :   1.0000e-05

             **** THE GBW FILE WAS UPDATED (CONFS/Conf292.orca.gbw) ****
             **** DENSITY FILE WAS UPDATED (CONFS/Conf292.orca.scfp) ****
             **** ENERGY FILE WAS UPDATED (CONFS/Conf292.orca.en.tmp) ****
             **** THE GBW FILE WAS UPDATED (CONFS/Conf292.orca.gbw) ****
             **** DENSITY FILE WAS UPDATED (CONFS/Conf292.orca.scfp) ****
----------------
ORBITAL ENERGIES
----------------

  NO   OCC          E(Eh)            E(eV) 
   0   2.0000     -91.891141     -2500.4851 
   1   2.0000     -20.598835      -560.5228 
   2   2.0000     -20.594987      -560.4181 
   3   2.0000     -20.551100      -559.2239 
   4   2.0000     -15.630202      -425.3194 
   5   2.0000     -15.611028      -424.7977 
   6   2.0000     -11.397830      -310.1507 
   7   2.0000     -11.387069      -309.8579 
   8   2.0000     -11.336825      -308.4907 
   9   2.0000     -11.315631      -307.9140 
  10   2.0000     -11.311983      -307.8147 
  11   2.0000     -11.306281      -307.6595 
  12   2.0000     -11.266891      -306.5877 
  13   2.0000     -11.266040      -306.5645 
  14   2.0000     -11.261550      -306.4424 
  15   2.0000     -11.255834      -306.2868 
  16   2.0000     -11.245275      -305.9995 
  17   2.0000     -11.241021      -305.8837 
  18   2.0000     -11.237944      -305.8000 
  19   2.0000     -11.224781      -305.4418 
  20   2.0000      -8.896229      -242.0787 
  21   2.0000      -6.577809      -178.9913 
  22   2.0000      -6.575792      -178.9364 
  23   2.0000      -6.575209      -178.9205 
  24   2.0000      -1.447011       -39.3752 
  25   2.0000      -1.418607       -38.6023 
  26   2.0000      -1.358860       -36.9765 
  27   2.0000      -1.342689       -36.5364 
  28   2.0000      -1.241095       -33.7719 
  29   2.0000      -1.160129       -31.5687 
  30   2.0000      -1.124829       -30.6082 
  31   2.0000      -1.047708       -28.5096 
  32   2.0000      -1.034788       -28.1580 
  33   2.0000      -1.017721       -27.6936 
  34   2.0000      -1.005132       -27.3510 
  35   2.0000      -0.989395       -26.9228 
  36   2.0000      -0.927599       -25.2413 
  37   2.0000      -0.889869       -24.2146 
  38   2.0000      -0.855054       -23.2672 
  39   2.0000      -0.842041       -22.9131 
  40   2.0000      -0.835824       -22.7439 
  41   2.0000      -0.831936       -22.6381 
  42   2.0000      -0.747726       -20.3467 
  43   2.0000      -0.738951       -20.1079 
  44   2.0000      -0.730483       -19.8775 
  45   2.0000      -0.696904       -18.9637 
  46   2.0000      -0.687743       -18.7144 
  47   2.0000      -0.680980       -18.5304 
  48   2.0000      -0.677072       -18.4241 
  49   2.0000      -0.660395       -17.9703 
  50   2.0000      -0.656708       -17.8699 
  51   2.0000      -0.648619       -17.6498 
  52   2.0000      -0.639740       -17.4082 
  53   2.0000      -0.618500       -16.8302 
  54   2.0000      -0.608536       -16.5591 
  55   2.0000      -0.606478       -16.5031 
  56   2.0000      -0.601757       -16.3746 
  57   2.0000      -0.584509       -15.9053 
  58   2.0000      -0.576836       -15.6965 
  59   2.0000      -0.567405       -15.4399 
  60   2.0000      -0.560450       -15.2506 
  61   2.0000      -0.549581       -14.9549 
  62   2.0000      -0.546283       -14.8651 
  63   2.0000      -0.531577       -14.4649 
  64   2.0000      -0.521014       -14.1775 
  65   2.0000      -0.513388       -13.9700 
  66   2.0000      -0.501897       -13.6573 
  67   2.0000      -0.497055       -13.5255 
  68   2.0000      -0.484850       -13.1934 
  69   2.0000      -0.469830       -12.7847 
  70   2.0000      -0.458373       -12.4730 
  71   2.0000      -0.448014       -12.1911 
  72   2.0000      -0.358994        -9.7687 
  73   2.0000      -0.351333        -9.5602 
  74   2.0000      -0.330573        -8.9953 
  75   2.0000      -0.323608        -8.8058 
  76   2.0000      -0.319617        -8.6972 
  77   0.0000       0.075453         2.0532 
  78   0.0000       0.104320         2.8387 
  79   0.0000       0.115880         3.1533 
  80   0.0000       0.129305         3.5186 
  81   0.0000       0.135179         3.6784 
  82   0.0000       0.144902         3.9430 
  83   0.0000       0.150194         4.0870 
  84   0.0000       0.155630         4.2349 
  85   0.0000       0.158750         4.3198 
  86   0.0000       0.169923         4.6239 
  87   0.0000       0.172458         4.6928 
  88   0.0000       0.189720         5.1626 
  89   0.0000       0.197597         5.3769 
  90   0.0000       0.200649         5.4599 
  91   0.0000       0.205135         5.5820 
  92   0.0000       0.208785         5.6813 
  93   0.0000       0.216186         5.8827 
  94   0.0000       0.224860         6.1188 
  95   0.0000       0.235252         6.4015 
  96   0.0000       0.243626         6.6294 
  97   0.0000       0.251030         6.8309 
  98   0.0000       0.265825         7.2335 
  99   0.0000       0.277604         7.5540 
 100   0.0000       0.290671         7.9096 
 101   0.0000       0.297689         8.1005 
 102   0.0000       0.306584         8.3426 
 103   0.0000       0.312423         8.5015 
 104   0.0000       0.322006         8.7622 
 105   0.0000       0.332267         9.0414 
 106   0.0000       0.339452         9.2369 
 107   0.0000       0.341854         9.3023 
 108   0.0000       0.349398         9.5076 
 109   0.0000       0.358417         9.7530 
 110   0.0000       0.369921        10.0661 
 111   0.0000       0.372797        10.1443 
 112   0.0000       0.382319        10.4034 
 113   0.0000       0.384622        10.4661 
 114   0.0000       0.407378        11.0853 
 115   0.0000       0.409759        11.1501 
 116   0.0000       0.412288        11.2189 
 117   0.0000       0.426848        11.6151 
 118   0.0000       0.433148        11.7866 
 119   0.0000       0.437295        11.8994 
 120   0.0000       0.444227        12.0880 
 121   0.0000       0.447725        12.1832 
 122   0.0000       0.452067        12.3014 
 123   0.0000       0.463326        12.6077 
 124   0.0000       0.472221        12.8498 
 125   0.0000       0.474297        12.9063 
 126   0.0000       0.477951        13.0057 
 127   0.0000       0.490596        13.3498 
 128   0.0000       0.495221        13.4757 
 129   0.0000       0.503059        13.6889 
 130   0.0000       0.505536        13.7563 
 131   0.0000       0.511980        13.9317 
 132   0.0000       0.516814        14.0632 
 133   0.0000       0.520999        14.1771 
 134   0.0000       0.522560        14.2196 
 135   0.0000       0.529709        14.4141 
 136   0.0000       0.537246        14.6192 
 137   0.0000       0.544657        14.8209 
 138   0.0000       0.551305        15.0018 
 139   0.0000       0.553974        15.0744 
 140   0.0000       0.557811        15.1788 
 141   0.0000       0.559871        15.2349 
 142   0.0000       0.562362        15.3027 
 143   0.0000       0.568585        15.4720 
 144   0.0000       0.574850        15.6425 
 145   0.0000       0.581100        15.8125 
 146   0.0000       0.584634        15.9087 
 147   0.0000       0.591031        16.0828 
 148   0.0000       0.599137        16.3033 
 149   0.0000       0.602051        16.3826 
 150   0.0000       0.605105        16.4658 
 151   0.0000       0.608733        16.5645 
 152   0.0000       0.613908        16.7053 
 153   0.0000       0.618672        16.8349 
 154   0.0000       0.621059        16.8999 
 155   0.0000       0.626240        17.0408 
 156   0.0000       0.626679        17.0528 
 157   0.0000       0.636176        17.3112 
 158   0.0000       0.643062        17.4986 
 159   0.0000       0.644859        17.5475 
 160   0.0000       0.651336        17.7238 
 161   0.0000       0.656155        17.8549 
 162   0.0000       0.656686        17.8693 
 163   0.0000       0.666310        18.1312 
 164   0.0000       0.671246        18.2655 
 165   0.0000       0.678342        18.4586 
 166   0.0000       0.681805        18.5528 
 167   0.0000       0.690857        18.7992 
 168   0.0000       0.693541        18.8722 
 169   0.0000       0.694278        18.8923 
 170   0.0000       0.706322        19.2200 
 171   0.0000       0.707719        19.2580 
 172   0.0000       0.724483        19.7142 
 173   0.0000       0.726913        19.7803 
 174   0.0000       0.731408        19.9026 
 175   0.0000       0.736542        20.0423 
 176   0.0000       0.743131        20.2216 
 177   0.0000       0.750014        20.4089 
 178   0.0000       0.755058        20.5462 
 179   0.0000       0.760965        20.7069 
 180   0.0000       0.774948        21.0874 
 181   0.0000       0.776340        21.1253 
 182   0.0000       0.782279        21.2869 
 183   0.0000       0.790453        21.5093 
 184   0.0000       0.797532        21.7020 
 185   0.0000       0.810758        22.0618 
 186   0.0000       0.819755        22.3067 
 187   0.0000       0.827614        22.5205 
 188   0.0000       0.829443        22.5703 
 189   0.0000       0.841001        22.8848 
 190   0.0000       0.848401        23.0862 
 191   0.0000       0.855266        23.2730 
 192   0.0000       0.866756        23.5856 
 193   0.0000       0.871551        23.7161 
 194   0.0000       0.876815        23.8593 
 195   0.0000       0.887601        24.1528 
 196   0.0000       0.889144        24.1948 
 197   0.0000       0.897398        24.4194 
 198   0.0000       0.905215        24.6322 
 199   0.0000       0.917990        24.9798 
 200   0.0000       0.922837        25.1117 
 201   0.0000       0.930044        25.3078 
 202   0.0000       0.935735        25.4626 
 203   0.0000       0.945164        25.7192 
 204   0.0000       0.949256        25.8306 
 205   0.0000       0.956374        26.0243 
 206   0.0000       0.959465        26.1084 
 207   0.0000       0.970315        26.4036 
 208   0.0000       0.972657        26.4673 
 209   0.0000       0.975729        26.5509 
 210   0.0000       0.982709        26.7409 
 211   0.0000       0.997311        27.1382 
 212   0.0000       1.000281        27.2190 
 213   0.0000       1.008410        27.4402 
 214   0.0000       1.013783        27.5864 
 215   0.0000       1.019870        27.7521 
 216   0.0000       1.030671        28.0460 
 217   0.0000       1.036563        28.2063 
 218   0.0000       1.040501        28.3135 
 219   0.0000       1.046244        28.4697 
 220   0.0000       1.058292        28.7976 
 221   0.0000       1.061654        28.8891 
 222   0.0000       1.068183        29.0667 
 223   0.0000       1.079303        29.3693 
 224   0.0000       1.089030        29.6340 
 225   0.0000       1.093415        29.7533 
 226   0.0000       1.104413        30.0526 
 227   0.0000       1.107536        30.1376 
 228   0.0000       1.120157        30.4810 
 229   0.0000       1.122576        30.5469 
 230   0.0000       1.136433        30.9239 
 231   0.0000       1.140061        31.0226 
 232   0.0000       1.151324        31.3291 
 233   0.0000       1.153681        31.3933 
 234   0.0000       1.163444        31.6589 
 235   0.0000       1.165845        31.7243 
 236   0.0000       1.176139        32.0044 
 237   0.0000       1.179823        32.1046 
 238   0.0000       1.188802        32.3490 
 239   0.0000       1.196156        32.5491 
 240   0.0000       1.203286        32.7431 
 241   0.0000       1.205972        32.8162 
 242   0.0000       1.215799        33.0836 
 243   0.0000       1.219385        33.1812 
 244   0.0000       1.221689        33.2438 
 245   0.0000       1.227284        33.3961 
 246   0.0000       1.230776        33.4911 
 247   0.0000       1.245421        33.8896 
 248   0.0000       1.252245        34.0753 
 249   0.0000       1.268785        34.5254 
 250   0.0000       1.273888        34.6643 
 251   0.0000       1.284537        34.9540 
 252   0.0000       1.295211        35.2445 
 253   0.0000       1.298731        35.3403 
 254   0.0000       1.303501        35.4701 
 255   0.0000       1.307224        35.5714 
 256   0.0000       1.315884        35.8070 
 257   0.0000       1.324733        36.0478 
 258   0.0000       1.330158        36.1954 
 259   0.0000       1.333948        36.2986 
 260   0.0000       1.347900        36.6782 
 261   0.0000       1.354164        36.8487 
 262   0.0000       1.361839        37.0575 
 263   0.0000       1.375677        37.4341 
 264   0.0000       1.384073        37.6625 
 265   0.0000       1.391042        37.8522 
 266   0.0000       1.397606        38.0308 
 267   0.0000       1.400141        38.0998 
 268   0.0000       1.406717        38.2787 
 269   0.0000       1.412906        38.4471 
 270   0.0000       1.419439        38.6249 
 271   0.0000       1.433305        39.0022 
 272   0.0000       1.437967        39.1291 
 273   0.0000       1.450592        39.4726 
 274   0.0000       1.460730        39.7485 
 275   0.0000       1.464410        39.8486 
 276   0.0000       1.468997        39.9734 
 277   0.0000       1.473834        40.1051 
 278   0.0000       1.480777        40.2940 
 279   0.0000       1.490106        40.5479 
 280   0.0000       1.500744        40.8373 
 281   0.0000       1.507056        41.0091 
 282   0.0000       1.515839        41.2481 
 283   0.0000       1.522283        41.4234 
 284   0.0000       1.532937        41.7133 
 285   0.0000       1.534484        41.7554 
 286   0.0000       1.547777        42.1172 
 287   0.0000       1.552325        42.2409 
 288   0.0000       1.558951        42.4212 
 289   0.0000       1.561892        42.5013 
 290   0.0000       1.573050        42.8049 
 291   0.0000       1.577329        42.9213 
 292   0.0000       1.587281        43.1921 
 293   0.0000       1.590641        43.2835 
 294   0.0000       1.600046        43.5395 
 295   0.0000       1.613029        43.8927 
 296   0.0000       1.616095        43.9762 
 297   0.0000       1.622246        44.1436 
 298   0.0000       1.627263        44.2801 
 299   0.0000       1.630367        44.3645 
 300   0.0000       1.644247        44.7422 
 301   0.0000       1.646941        44.8155 
 302   0.0000       1.657069        45.0912 
 303   0.0000       1.659896        45.1681 
 304   0.0000       1.665938        45.3325 
 305   0.0000       1.680078        45.7172 
 306   0.0000       1.686937        45.9039 
 307   0.0000       1.694936        46.1216 
 308   0.0000       1.701361        46.2964 
 309   0.0000       1.714364        46.6502 
 310   0.0000       1.718790        46.7707 
 311   0.0000       1.732989        47.1570 
 312   0.0000       1.741213        47.3808 
 313   0.0000       1.750980        47.6466 
 314   0.0000       1.764400        48.0118 
 315   0.0000       1.780874        48.4600 
 316   0.0000       1.787379        48.6371 
 317   0.0000       1.791833        48.7582 
 318   0.0000       1.795780        48.8656 
 319   0.0000       1.814434        49.3733 
 320   0.0000       1.828255        49.7494 
 321   0.0000       1.835960        49.9590 
 322   0.0000       1.846679        50.2507 
 323   0.0000       1.852454        50.4078 
 324   0.0000       1.858509        50.5726 
 325   0.0000       1.871232        50.9188 
 326   0.0000       1.886714        51.3401 
 327   0.0000       1.904511        51.8244 
 328   0.0000       1.909730        51.9664 
 329   0.0000       1.918214        52.1972 
 330   0.0000       1.922202        52.3058 
 331   0.0000       1.936366        52.6912 
 332   0.0000       1.938098        52.7383 
 333   0.0000       1.953814        53.1660 
 334   0.0000       1.974895        53.7396 
 335   0.0000       1.983125        53.9636 
 336   0.0000       1.994289        54.2674 
 337   0.0000       2.001677        54.4684 
 338   0.0000       2.017777        54.9065 
 339   0.0000       2.018115        54.9157 
 340   0.0000       2.029574        55.2275 
 341   0.0000       2.032203        55.2991 
 342   0.0000       2.041261        55.5455 
 343   0.0000       2.066210        56.2244 
 344   0.0000       2.085843        56.7587 
 345   0.0000       2.102054        57.1998 
 346   0.0000       2.126445        57.8635 
 347   0.0000       2.143101        58.3168 
 348   0.0000       2.155103        58.6433 
 349   0.0000       2.172338        59.1123 
 350   0.0000       2.183207        59.4081 
 351   0.0000       2.206650        60.0460 
 352   0.0000       2.216703        60.3196 
 353   0.0000       2.230007        60.6816 
 354   0.0000       2.242618        61.0247 
 355   0.0000       2.259648        61.4881 
 356   0.0000       2.285241        62.1846 
 357   0.0000       2.290149        62.3181 
 358   0.0000       2.297632        62.5217 
 359   0.0000       2.315834        63.0171 
 360   0.0000       2.325432        63.2782 
 361   0.0000       2.337870        63.6167 
 362   0.0000       2.354761        64.0763 
 363   0.0000       2.366475        64.3951 
 364   0.0000       2.368659        64.4545 
 365   0.0000       2.389750        65.0284 
 366   0.0000       2.394684        65.1627 
 367   0.0000       2.406968        65.4969 
 368   0.0000       2.419737        65.8444 
 369   0.0000       2.441638        66.4403 
 370   0.0000       2.448814        66.6356 
 371   0.0000       2.467436        67.1423 
 372   0.0000       2.480050        67.4856 
 373   0.0000       2.494227        67.8714 
 374   0.0000       2.508048        68.2474 
 375   0.0000       2.522235        68.6335 
 376   0.0000       2.526934        68.7614 
 377   0.0000       2.543330        69.2075 
 378   0.0000       2.552356        69.4531 
 379   0.0000       2.569342        69.9154 
 380   0.0000       2.579757        70.1988 
 381   0.0000       2.586177        70.3735 
 382   0.0000       2.599138        70.7262 
 383   0.0000       2.609055        70.9960 
 384   0.0000       2.616153        71.1891 
 385   0.0000       2.629194        71.5440 
 386   0.0000       2.637595        71.7726 
 387   0.0000       2.649523        72.0972 
 388   0.0000       2.659111        72.3581 
 389   0.0000       2.666812        72.5676 
 390   0.0000       2.684254        73.0423 
 391   0.0000       2.697306        73.3974 
 392   0.0000       2.707961        73.6874 
 393   0.0000       2.733950        74.3946 
 394   0.0000       2.735618        74.4400 
 395   0.0000       2.738869        74.5284 
 396   0.0000       2.752231        74.8920 
 397   0.0000       2.767761        75.3146 
 398   0.0000       2.770200        75.3810 
 399   0.0000       2.778012        75.5936 
 400   0.0000       2.789940        75.9181 
 401   0.0000       2.799425        76.1762 
 402   0.0000       2.815896        76.6244 
 403   0.0000       2.823861        76.8412 
 404   0.0000       2.824871        76.8686 
 405   0.0000       2.830346        77.0176 
 406   0.0000       2.838240        77.2324 
 407   0.0000       2.846802        77.4654 
 408   0.0000       2.865497        77.9741 
 409   0.0000       2.869047        78.0707 
 410   0.0000       2.884908        78.5023 
 411   0.0000       2.888316        78.5951 
 412   0.0000       2.903186        78.9997 
 413   0.0000       2.908234        79.1371 
 414   0.0000       2.918577        79.4185 
 415   0.0000       2.935566        79.8808 
 416   0.0000       2.947571        80.2075 
 417   0.0000       2.954416        80.3938 
 418   0.0000       2.957521        80.4782 
 419   0.0000       2.963099        80.6300 
 420   0.0000       2.965522        80.6960 
 421   0.0000       2.981175        81.1219 
 422   0.0000       2.991781        81.4105 
 423   0.0000       2.999710        81.6263 
 424   0.0000       3.009935        81.9045 
 425   0.0000       3.013326        81.9968 
 426   0.0000       3.017829        82.1193 
 427   0.0000       3.028973        82.4225 
 428   0.0000       3.031963        82.5039 
 429   0.0000       3.037192        82.6462 
 430   0.0000       3.041025        82.7505 
 431   0.0000       3.049734        82.9875 
 432   0.0000       3.065069        83.4048 
 433   0.0000       3.070835        83.5617 
 434   0.0000       3.075557        83.6902 
 435   0.0000       3.083619        83.9095 
 436   0.0000       3.092950        84.1634 
 437   0.0000       3.100276        84.3628 
 438   0.0000       3.105688        84.5101 
 439   0.0000       3.117023        84.8185 
 440   0.0000       3.126433        85.0746 
 441   0.0000       3.129095        85.1470 
 442   0.0000       3.135682        85.3262 
 443   0.0000       3.138371        85.3994 
 444   0.0000       3.152759        85.7909 
 445   0.0000       3.157179        85.9112 
 446   0.0000       3.167411        86.1896 
 447   0.0000       3.171313        86.2958 
 448   0.0000       3.173443        86.3538 
 449   0.0000       3.191011        86.8318 
 450   0.0000       3.193552        86.9010 
 451   0.0000       3.199885        87.0733 
 452   0.0000       3.209384        87.3318 
 453   0.0000       3.218904        87.5908 
 454   0.0000       3.227320        87.8198 
 455   0.0000       3.232218        87.9531 
 456   0.0000       3.245438        88.3129 
 457   0.0000       3.253069        88.5205 
 458   0.0000       3.259258        88.6889 
 459   0.0000       3.269800        88.9758 
 460   0.0000       3.278412        89.2101 
 461   0.0000       3.285009        89.3896 
 462   0.0000       3.287763        89.4646 
 463   0.0000       3.294222        89.6403 
 464   0.0000       3.297736        89.7360 
 465   0.0000       3.304323        89.9152 
 466   0.0000       3.315929        90.2310 
 467   0.0000       3.322675        90.4146 
 468   0.0000       3.325561        90.4931 
 469   0.0000       3.334329        90.7317 
 470   0.0000       3.340198        90.8914 
 471   0.0000       3.348076        91.1058 
 472   0.0000       3.352105        91.2154 
 473   0.0000       3.360831        91.4529 
 474   0.0000       3.367504        91.6344 
 475   0.0000       3.369003        91.6752 
 476   0.0000       3.374320        91.8199 
 477   0.0000       3.381653        92.0195 
 478   0.0000       3.385593        92.1267 
 479   0.0000       3.392019        92.3015 
 480   0.0000       3.397284        92.4448 
 481   0.0000       3.400369        92.5288 
 482   0.0000       3.406040        92.6831 
 483   0.0000       3.406747        92.7023 
 484   0.0000       3.421344        93.0995 
 485   0.0000       3.427814        93.2756 
 486   0.0000       3.432353        93.3991 
 487   0.0000       3.439689        93.5987 
 488   0.0000       3.442550        93.6765 
 489   0.0000       3.448193        93.8301 
 490   0.0000       3.451595        93.9227 
 491   0.0000       3.456822        94.0649 
 492   0.0000       3.462518        94.2199 
 493   0.0000       3.468330        94.3780 
 494   0.0000       3.478696        94.6601 
 495   0.0000       3.483028        94.7780 
 496   0.0000       3.492610        95.0387 
 497   0.0000       3.507959        95.4564 
 498   0.0000       3.510034        95.5129 
 499   0.0000       3.518125        95.7330 
 500   0.0000       3.522212        95.8443 
 501   0.0000       3.525952        95.9460 
 502   0.0000       3.535579        96.2080 
 503   0.0000       3.543113        96.4130 
 504   0.0000       3.550056        96.6019 
 505   0.0000       3.551771        96.6486 
 506   0.0000       3.563517        96.9682 
 507   0.0000       3.575980        97.3074 
 508   0.0000       3.579141        97.3934 
 509   0.0000       3.587736        97.6273 
 510   0.0000       3.598063        97.9083 
 511   0.0000       3.607172        98.1561 
 512   0.0000       3.615710        98.3885 
 513   0.0000       3.622036        98.5606 
 514   0.0000       3.626988        98.6954 
 515   0.0000       3.628368        98.7329 
 516   0.0000       3.631680        98.8230 
 517   0.0000       3.636668        98.9588 
 518   0.0000       3.641557        99.0918 
 519   0.0000       3.653117        99.4064 
 520   0.0000       3.660038        99.5947 
 521   0.0000       3.667900        99.8086 
 522   0.0000       3.669447        99.8507 
 523   0.0000       3.678767       100.1043 
 524   0.0000       3.681429       100.1768 
 525   0.0000       3.690191       100.4152 
 526   0.0000       3.698794       100.6493 
 527   0.0000       3.706507       100.8592 
 528   0.0000       3.708761       100.9205 
 529   0.0000       3.716414       101.1288 
 530   0.0000       3.724102       101.3380 
 531   0.0000       3.727680       101.4353 
 532   0.0000       3.734940       101.6329 
 533   0.0000       3.742970       101.8514 
 534   0.0000       3.750547       102.0576 
 535   0.0000       3.752480       102.1102 
 536   0.0000       3.763851       102.4196 
 537   0.0000       3.764812       102.4457 
 538   0.0000       3.777279       102.7850 
 539   0.0000       3.781184       102.8912 
 540   0.0000       3.787139       103.0533 
 541   0.0000       3.790410       103.1423 
 542   0.0000       3.803647       103.5025 
 543   0.0000       3.809791       103.6697 
 544   0.0000       3.819806       103.9422 
 545   0.0000       3.827585       104.1539 
 546   0.0000       3.830276       104.2271 
 547   0.0000       3.838239       104.4438 
 548   0.0000       3.841310       104.5274 
 549   0.0000       3.852065       104.8200 
 550   0.0000       3.859999       105.0359 
 551   0.0000       3.862560       105.1056 
 552   0.0000       3.873335       105.3988 
 553   0.0000       3.883986       105.6886 
 554   0.0000       3.888866       105.8214 
 555   0.0000       3.892038       105.9077 
 556   0.0000       3.903551       106.2210 
 557   0.0000       3.919792       106.6630 
 558   0.0000       3.922734       106.7430 
 559   0.0000       3.940924       107.2380 
 560   0.0000       3.944968       107.3480 
 561   0.0000       3.952400       107.5503 
 562   0.0000       3.959512       107.7438 
 563   0.0000       3.968117       107.9780 
 564   0.0000       3.979016       108.2745 
 565   0.0000       3.988545       108.5338 
 566   0.0000       3.996186       108.7417 
 567   0.0000       4.000779       108.8667 
 568   0.0000       4.011021       109.1454 
 569   0.0000       4.023842       109.4943 
 570   0.0000       4.036975       109.8517 
 571   0.0000       4.046080       110.0994 
 572   0.0000       4.046865       110.1208 
 573   0.0000       4.058046       110.4250 
 574   0.0000       4.065019       110.6148 
 575   0.0000       4.084524       111.1456 
 576   0.0000       4.086901       111.2102 
 577   0.0000       4.089642       111.2848 
 578   0.0000       4.105529       111.7171 
 579   0.0000       4.109707       111.8308 
 580   0.0000       4.113859       111.9438 
 581   0.0000       4.116153       112.0062 
 582   0.0000       4.125570       112.2625 
 583   0.0000       4.133179       112.4695 
 584   0.0000       4.142874       112.7333 
 585   0.0000       4.150076       112.9293 
 586   0.0000       4.154209       113.0418 
 587   0.0000       4.163098       113.2837 
 588   0.0000       4.169510       113.4581 
 589   0.0000       4.179118       113.7196 
 590   0.0000       4.181652       113.7885 
 591   0.0000       4.192268       114.0774 
 592   0.0000       4.199189       114.2657 
 593   0.0000       4.207394       114.4890 
 594   0.0000       4.210765       114.5807 
 595   0.0000       4.218771       114.7986 
 596   0.0000       4.225534       114.9826 
 597   0.0000       4.236309       115.2758 
 598   0.0000       4.248830       115.6165 
 599   0.0000       4.251104       115.6784 
 600   0.0000       4.254940       115.7828 
 601   0.0000       4.264295       116.0374 
 602   0.0000       4.275376       116.3389 
 603   0.0000       4.284930       116.5989 
 604   0.0000       4.296997       116.9272 
 605   0.0000       4.302026       117.0641 
 606   0.0000       4.304810       117.1398 
 607   0.0000       4.321130       117.5839 
 608   0.0000       4.330159       117.8296 
 609   0.0000       4.332714       117.8991 
 610   0.0000       4.344066       118.2080 
 611   0.0000       4.353161       118.4555 
 612   0.0000       4.365024       118.7783 
 613   0.0000       4.371343       118.9503 
 614   0.0000       4.376981       119.1037 
 615   0.0000       4.381882       119.2371 
 616   0.0000       4.393114       119.5427 
 617   0.0000       4.408516       119.9618 
 618   0.0000       4.413650       120.1015 
 619   0.0000       4.416332       120.1745 
 620   0.0000       4.424553       120.3982 
 621   0.0000       4.427681       120.4833 
 622   0.0000       4.436220       120.7157 
 623   0.0000       4.444674       120.9457 
 624   0.0000       4.459660       121.3535 
 625   0.0000       4.467553       121.5683 
 626   0.0000       4.477550       121.8403 
 627   0.0000       4.480214       121.9128 
 628   0.0000       4.490955       122.2051 
 629   0.0000       4.502216       122.5115 
 630   0.0000       4.504959       122.5862 
 631   0.0000       4.515455       122.8718 
 632   0.0000       4.522685       123.0685 
 633   0.0000       4.533121       123.3525 
 634   0.0000       4.535312       123.4121 
 635   0.0000       4.544855       123.6718 
 636   0.0000       4.556795       123.9967 
 637   0.0000       4.563517       124.1796 
 638   0.0000       4.566680       124.2657 
 639   0.0000       4.580854       124.6514 
 640   0.0000       4.595531       125.0508 
 641   0.0000       4.600506       125.1861 
 642   0.0000       4.618644       125.6797 
 643   0.0000       4.623691       125.8170 
 644   0.0000       4.629904       125.9861 
 645   0.0000       4.632893       126.0674 
 646   0.0000       4.635670       126.1430 
 647   0.0000       4.643820       126.3648 
 648   0.0000       4.652511       126.6012 
 649   0.0000       4.663416       126.8980 
 650   0.0000       4.674776       127.2071 
 651   0.0000       4.681530       127.3909 
 652   0.0000       4.684476       127.4711 
 653   0.0000       4.688878       127.5908 
 654   0.0000       4.698712       127.8585 
 655   0.0000       4.704334       128.0114 
 656   0.0000       4.713094       128.2498 
 657   0.0000       4.721633       128.4822 
 658   0.0000       4.738369       128.9376 
 659   0.0000       4.750126       129.2575 
 660   0.0000       4.751601       129.2976 
 661   0.0000       4.756477       129.4303 
 662   0.0000       4.780321       130.0792 
 663   0.0000       4.806988       130.8048 
 664   0.0000       4.815147       131.0268 
 665   0.0000       4.823997       131.2676 
 666   0.0000       4.848277       131.9283 
 667   0.0000       4.876061       132.6844 
 668   0.0000       4.892002       133.1181 
 669   0.0000       4.909718       133.6002 
 670   0.0000       4.914381       133.7271 
 671   0.0000       4.919545       133.8676 
 672   0.0000       4.935848       134.3112 
 673   0.0000       4.948898       134.6663 
 674   0.0000       4.979253       135.4924 
 675   0.0000       4.985144       135.6527 
 676   0.0000       5.000738       136.0770 
 677   0.0000       5.016212       136.4981 
 678   0.0000       5.029776       136.8672 
 679   0.0000       5.043955       137.2530 
 680   0.0000       5.049286       137.3981 
 681   0.0000       5.074466       138.0832 
 682   0.0000       5.083053       138.3169 
 683   0.0000       5.095797       138.6637 
 684   0.0000       5.099012       138.7512 
 685   0.0000       5.124576       139.4468 
 686   0.0000       5.128881       139.5639 
 687   0.0000       5.134857       139.7266 
 688   0.0000       5.152297       140.2011 
 689   0.0000       5.159327       140.3924 
 690   0.0000       5.171811       140.7321 
 691   0.0000       5.183994       141.0636 
 692   0.0000       5.193250       141.3155 
 693   0.0000       5.207601       141.7060 
 694   0.0000       5.217188       141.9669 
 695   0.0000       5.223309       142.1335 
 696   0.0000       5.227442       142.2459 
 697   0.0000       5.232521       142.3841 
 698   0.0000       5.241206       142.6205 
 699   0.0000       5.252615       142.9309 
 700   0.0000       5.265121       143.2712 
 701   0.0000       5.280646       143.6937 
 702   0.0000       5.295710       144.1036 
 703   0.0000       5.311230       144.5259 
 704   0.0000       5.330180       145.0416 
 705   0.0000       5.335919       145.1977 
 706   0.0000       5.340513       145.3227 
 707   0.0000       5.352887       145.6595 
 708   0.0000       5.361276       145.8877 
 709   0.0000       5.371848       146.1754 
 710   0.0000       5.395578       146.8211 
 711   0.0000       5.421607       147.5294 
 712   0.0000       5.444059       148.1404 
 713   0.0000       5.465570       148.7257 
 714   0.0000       5.470268       148.8536 
 715   0.0000       5.484105       149.2301 
 716   0.0000       5.495252       149.5334 
 717   0.0000       5.505509       149.8125 
 718   0.0000       5.519713       150.1990 
 719   0.0000       5.525925       150.3681 
 720   0.0000       5.544493       150.8733 
 721   0.0000       5.554804       151.1539 
 722   0.0000       5.560612       151.3120 
 723   0.0000       5.568229       151.5192 
 724   0.0000       5.580892       151.8638 
 725   0.0000       5.601091       152.4134 
 726   0.0000       5.614208       152.7704 
 727   0.0000       5.630586       153.2160 
 728   0.0000       5.638038       153.4188 
 729   0.0000       5.650727       153.7641 
 730   0.0000       5.655980       153.9070 
 731   0.0000       5.675866       154.4482 
 732   0.0000       5.681901       154.6124 
 733   0.0000       5.682465       154.6277 
 734   0.0000       5.697907       155.0479 
 735   0.0000       5.724339       155.7672 
 736   0.0000       5.725151       155.7893 
 737   0.0000       5.743177       156.2798 
 738   0.0000       5.747211       156.3896 
 739   0.0000       5.756414       156.6400 
 740   0.0000       5.761408       156.7759 
 741   0.0000       5.780351       157.2913 
 742   0.0000       5.799519       157.8129 
 743   0.0000       5.803689       157.9264 
 744   0.0000       5.819617       158.3598 
 745   0.0000       5.855131       159.3262 
 746   0.0000       5.869429       159.7153 
 747   0.0000       5.885194       160.1443 
 748   0.0000       5.890182       160.2800 
 749   0.0000       5.932063       161.4196 
 750   0.0000       5.937529       161.5684 
 751   0.0000       5.950988       161.9346 
 752   0.0000       5.973237       162.5400 
 753   0.0000       5.998103       163.2167 
 754   0.0000       6.006671       163.4498 
 755   0.0000       6.041466       164.3966 
 756   0.0000       6.051687       164.6748 
 757   0.0000       6.062781       164.9766 
 758   0.0000       6.072493       165.2409 
 759   0.0000       6.092833       165.7944 
 760   0.0000       6.097283       165.9155 
 761   0.0000       6.166645       167.8030 
 762   0.0000       6.219377       169.2379 
 763   0.0000       6.232603       169.5978 
 764   0.0000       6.242801       169.8753 
 765   0.0000       6.318482       171.9346 
 766   0.0000       6.324843       172.1077 
 767   0.0000       6.338472       172.4786 
 768   0.0000       6.347116       172.7138 
 769   0.0000       6.364196       173.1786 
 770   0.0000       6.378204       173.5598 
 771   0.0000       6.384079       173.7196 
 772   0.0000       6.403307       174.2428 
 773   0.0000       6.444729       175.3700 
 774   0.0000       6.458180       175.7360 
 775   0.0000       6.460918       175.8105 
 776   0.0000       6.500623       176.8910 
 777   0.0000       6.555721       178.3902 
 778   0.0000       6.598357       179.5504 
 779   0.0000       6.615640       180.0207 
 780   0.0000       6.642282       180.7457 
 781   0.0000       6.687910       181.9873 
 782   0.0000       6.718595       182.8223 
 783   0.0000       6.757776       183.8884 
 784   0.0000       6.829625       185.8435 
 785   0.0000       6.857486       186.6017 
 786   0.0000       6.908115       187.9794 
 787   0.0000       6.921513       188.3439 
 788   0.0000       6.946340       189.0195 
 789   0.0000       7.006219       190.6489 
 790   0.0000       7.053687       191.9406 
 791   0.0000       7.061906       192.1642 
 792   0.0000       7.082061       192.7127 
 793   0.0000       7.131175       194.0491 
 794   0.0000       7.214641       196.3204 
 795   0.0000       7.258069       197.5021 
 796   0.0000       7.281514       198.1401 
 797   0.0000       7.283134       198.1841 
 798   0.0000       7.345402       199.8786 
 799   0.0000       7.388285       201.0455 
 800   0.0000       7.390451       201.1044 
 801   0.0000       7.531349       204.9384 
 802   0.0000       7.576993       206.1805 
 803   0.0000       7.587573       206.4683 
 804   0.0000       7.628908       207.5931 
 805   0.0000       7.772669       211.5051 
 806   0.0000       7.822030       212.8483 
 807   0.0000       7.933288       215.8757 
 808   0.0000       7.973405       216.9674 
 809   0.0000       9.547253       259.7940 
 810   0.0000       9.686667       263.5876 
 811   0.0000      10.842500       295.0394 
 812   0.0000      11.202756       304.8425 
 813   0.0000      11.899137       323.7920 
 814   0.0000      12.598432       342.8208 
 815   0.0000      12.953522       352.4833 
 816   0.0000      13.097182       356.3924 
 817   0.0000      13.221233       359.7680 
 818   0.0000      13.267444       361.0255 
 819   0.0000      13.418150       365.1264 
 820   0.0000      13.503168       367.4399 
 821   0.0000      13.747031       374.0757 
 822   0.0000      13.935857       379.2140 
 823   0.0000      14.066843       382.7782 
 824   0.0000      14.212948       386.7540 
 825   0.0000      14.457502       393.4086 
 826   0.0000      14.619827       397.8257 
 827   0.0000      15.959443       434.2785 

                    ********************************
                    * MULLIKEN POPULATION ANALYSIS *
                    ********************************

-----------------------
MULLIKEN ATOMIC CHARGES
-----------------------
   0 C :   -0.277802
   1 C :    0.021335
   2 O :   -0.343204
   3 C :    0.429029
   4 O :   -0.383491
   5 C :   -0.216678
   6 C :    0.144672
   7 C :   -0.319457
   8 N :   -0.130541
   9 C :    0.197990
  10 S :   -0.438035
  11 N :   -0.205271
  12 C :    0.061875
  13 C :   -0.000367
  14 C :   -0.173756
  15 C :   -0.134767
  16 C :   -0.271673
  17 C :    0.304884
  18 O :   -0.358990
  19 C :   -0.244034
  20 H :    0.105903
  21 H :    0.110987
  22 H :    0.094337
  23 H :    0.119882
  24 H :    0.086029
  25 H :    0.140431
  26 H :    0.128117
  27 H :    0.121508
  28 H :    0.197459
  29 H :    0.196639
  30 H :    0.162289
  31 H :    0.166481
  32 H :    0.162460
  33 H :    0.132248
  34 H :    0.241379
  35 H :    0.172135
Sum of atomic charges:   -0.0000000

--------------------------------
MULLIKEN REDUCED ORBITAL CHARGES
--------------------------------
  0 C s       :     3.261834  s :     3.261834
      pz      :     0.973159  p :     2.938585
      px      :     1.001410
      py      :     0.964017
      dz2     :     0.010115  d :     0.072923
      dxz     :     0.016165
      dyz     :     0.020052
      dx2y2   :     0.023099
      dxy     :     0.003492
      f0      :     0.000294  f :     0.004459
      f+1     :     0.000338
      f-1     :     0.000704
      f+2     :     0.002112
      f-2     :     0.000379
      f+3     :     0.000248
      f-3     :     0.000384
  1 C s       :     3.169249  s :     3.169249
      pz      :     0.947170  p :     2.638429
      px      :     0.717063
      py      :     0.974196
      dz2     :     0.022464  d :     0.159361
      dxz     :     0.044472
      dyz     :     0.025679
      dx2y2   :     0.037237
      dxy     :     0.029509
      f0      :     0.000857  f :     0.011625
      f+1     :     0.001878
      f-1     :     0.000756
      f+2     :     0.002987
      f-2     :     0.001328
      f+3     :     0.001646
      f-3     :     0.002172
  2 O s       :     3.726972  s :     3.726972
      pz      :     1.607935  p :     4.581347
      px      :     1.163270
      py      :     1.810142
      dz2     :     0.004056  d :     0.032618
      dxz     :     0.014781
      dyz     :     0.002768
      dx2y2   :     0.004752
      dxy     :     0.006261
      f0      :     0.000156  f :     0.002268
      f+1     :     0.000285
      f-1     :     0.000022
      f+2     :     0.000589
      f-2     :     0.000248
      f+3     :     0.000590
      f-3     :     0.000376
  3 C s       :     3.062074  s :     3.062074
      pz      :     0.696395  p :     2.196941
      px      :     0.698518
      py      :     0.802028
      dz2     :     0.027505  d :     0.285816
      dxz     :     0.069634
      dyz     :     0.040205
      dx2y2   :     0.085911
      dxy     :     0.062562
      f0      :     0.002302  f :     0.026140
      f+1     :     0.003179
      f-1     :     0.001599
      f+2     :     0.002363
      f-2     :     0.005480
      f+3     :     0.005182
      f-3     :     0.006034
  4 O s       :     3.770997  s :     3.770997
      pz      :     1.550162  p :     4.574179
      px      :     1.527431
      py      :     1.496585
      dz2     :     0.003754  d :     0.035846
      dxz     :     0.005106
      dyz     :     0.005800
      dx2y2   :     0.009088
      dxy     :     0.012098
      f0      :     0.000250  f :     0.002470
      f+1     :     0.000211
      f-1     :     0.000208
      f+2     :     0.000013
      f-2     :     0.000438
      f+3     :     0.000649
      f-3     :     0.000700
  5 C s       :     3.175551  s :     3.175551
      pz      :     0.966153  p :     2.947250
      px      :     1.073773
      py      :     0.907324
      dz2     :     0.015921  d :     0.083306
      dxz     :     0.011838
      dyz     :     0.026620
      dx2y2   :     0.012044
      dxy     :     0.016883
      f0      :     0.001078  f :     0.010571
      f+1     :     0.001256
      f-1     :     0.001818
      f+2     :     0.002062
      f-2     :     0.001086
      f+3     :     0.001419
      f-3     :     0.001851
  6 C s       :     3.188301  s :     3.188301
      pz      :     0.866672  p :     2.477901
      px      :     0.841805
      py      :     0.769424
      dz2     :     0.033654  d :     0.174908
      dxz     :     0.020197
      dyz     :     0.048404
      dx2y2   :     0.027851
      dxy     :     0.044801
      f0      :     0.001776  f :     0.014218
      f+1     :     0.001094
      f-1     :     0.003088
      f+2     :     0.002485
      f-2     :     0.002212
      f+3     :     0.001796
      f-3     :     0.001767
  7 C s       :     3.291479  s :     3.291479
      pz      :     0.902044  p :     2.952472
      px      :     0.999482
      py      :     1.050945
      dz2     :     0.017541  d :     0.070877
      dxz     :     0.011362
      dyz     :     0.015515
      dx2y2   :     0.018178
      dxy     :     0.008280
      f0      :     0.000699  f :     0.004630
      f+1     :     0.001010
      f-1     :     0.001029
      f+2     :     0.000578
      f-2     :     0.000324
      f+3     :     0.000910
      f-3     :     0.000080
  8 N s       :     3.347164  s :     3.347164
      pz      :     1.167667  p :     3.719344
      px      :     1.452762
      py      :     1.098915
      dz2     :     0.014857  d :     0.059062
      dxz     :     0.009415
      dyz     :     0.016104
      dx2y2   :     0.008639
      dxy     :     0.010048
      f0      :     0.000683  f :     0.004971
      f+1     :     0.000991
      f-1     :     0.000785
      f+2     :     0.000926
      f-2     :     0.000792
      f+3     :     0.000424
      f-3     :     0.000371
  9 C s       :     3.167867  s :     3.167867
      pz      :     0.774557  p :     2.354316
      px      :     0.698774
      py      :     0.880985
      dz2     :     0.066452  d :     0.262224
      dxz     :     0.035139
      dyz     :     0.051632
      dx2y2   :     0.048565
      dxy     :     0.060437
      f0      :     0.003063  f :     0.017603
      f+1     :     0.002143
      f-1     :     0.002781
      f+2     :     0.002768
      f-2     :     0.002039
      f+3     :     0.002238
      f-3     :     0.002570
 10 S s       :     5.855568  s :     5.855568
      pz      :     3.531038  p :    10.487646
      px      :     3.694755
      py      :     3.261853
      dz2     :     0.008161  d :     0.084685
      dxz     :     0.004915
      dyz     :     0.039231
      dx2y2   :     0.018536
      dxy     :     0.013841
      f0      :     0.001214  f :     0.010135
      f+1     :     0.000069
      f-1     :     0.001943
      f+2     :     0.003269
      f-2     :     0.001281
      f+3     :     0.001214
      f-3     :     0.001146
 11 N s       :     3.375880  s :     3.375880
      pz      :     1.264169  p :     3.767272
      px      :     1.465889
      py      :     1.037215
      dz2     :     0.010491  d :     0.057675
      dxz     :     0.006602
      dyz     :     0.014935
      dx2y2   :     0.011999
      dxy     :     0.013648
      f0      :     0.000349  f :     0.004444
      f+1     :     0.000575
      f-1     :     0.000559
      f+2     :     0.000698
      f-2     :     0.000647
      f+3     :     0.000822
      f-3     :     0.000793
 12 C s       :     3.116717  s :     3.116717
      pz      :     0.835161  p :     2.625920
      px      :     1.001769
      py      :     0.788991
      dz2     :     0.038726  d :     0.184200
      dxz     :     0.028026
      dyz     :     0.039409
      dx2y2   :     0.034192
      dxy     :     0.043848
      f0      :     0.001301  f :     0.011288
      f+1     :     0.001307
      f-1     :     0.001949
      f+2     :     0.002145
      f-2     :     0.001757
      f+3     :     0.001412
      f-3     :     0.001418
 13 C s       :     3.118314  s :     3.118314
      pz      :     0.909511  p :     2.763457
      px      :     0.915295
      py      :     0.938651
      dz2     :     0.017735  d :     0.107374
      dxz     :     0.011957
      dyz     :     0.028982
      dx2y2   :     0.021251
      dxy     :     0.027449
      f0      :     0.001083  f :     0.011221
      f+1     :     0.001530
      f-1     :     0.001139
[...]
      f-1     :     0.004888
      f+2     :     0.007193
      f-2     :     0.005101
      f+3     :     0.007100
      f-3     :     0.009047
 15 C s       :     2.705502  s :     2.705502
      pz      :     0.888645  p :     2.793542
      px      :     0.938359
      py      :     0.966538
      dz2     :     0.086963  d :     0.415882
      dxz     :     0.070957
      dyz     :     0.054412
      dx2y2   :     0.112169
      dxy     :     0.091381
      f0      :     0.002964  f :     0.041069
      f+1     :     0.005112
      f-1     :     0.005745
      f+2     :     0.007103
      f-2     :     0.006196
      f+3     :     0.007294
      f-3     :     0.006655
 16 C s       :     2.701586  s :     2.701586
      pz      :     0.933215  p :     2.867718
      px      :     0.963108
      py      :     0.971395
      dz2     :     0.040645  d :     0.390694
      dxz     :     0.058031
      dyz     :     0.083585
      dx2y2   :     0.096492
      dxy     :     0.111940
      f0      :     0.004105  f :     0.040349
      f+1     :     0.004546
      f-1     :     0.003642
      f+2     :     0.006107
      f-2     :     0.005156
      f+3     :     0.008950
      f-3     :     0.007842
 17 C s       :     2.701149  s :     2.701149
      pz      :     0.845687  p :     2.683357
      px      :     0.821159
      py      :     1.016511
      dz2     :     0.119450  d :     0.708955
      dxz     :     0.110886
      dyz     :     0.132704
      dx2y2   :     0.171561
      dxy     :     0.174354
      f0      :     0.008524  f :     0.099345
      f+1     :     0.015976
      f-1     :     0.008664
      f+2     :     0.015826
      f-2     :     0.014162
      f+3     :     0.017759
      f-3     :     0.018432
 18 O s       :     3.177212  s :     3.177212
      pz      :     1.450180  p :     4.347109
      px      :     1.397476
      py      :     1.499454
      dz2     :     0.007641  d :     0.075544
      dxz     :     0.017242
      dyz     :     0.016862
      dx2y2   :     0.016676
      dxy     :     0.017123
      f0      :     0.000575  f :     0.005071
      f+1     :     0.000742
      f-1     :     0.000348
      f+2     :     0.000687
      f-2     :     0.000942
      f+3     :     0.000798
      f-3     :     0.000980
 19 C s       :     2.695349  s :     2.695349
      pz      :     0.928445  p :     2.848334
      px      :     0.954476
      py      :     0.965413
      dz2     :     0.070691  d :     0.388358
      dxz     :     0.068205
      dyz     :     0.056207
      dx2y2   :     0.098415
      dxy     :     0.094841
      f0      :     0.003084  f :     0.040813
      f+1     :     0.005142
      f-1     :     0.005257
      f+2     :     0.007126
      f-2     :     0.006706
      f+3     :     0.007298
      f-3     :     0.006200
 20 H s       :     0.839773  s :     0.839773
      pz      :     0.061457  p :     0.159396
      px      :     0.057318
      py      :     0.040621
      dz2     :     0.007598  d :     0.027973
      dxz     :     0.006837
      dyz     :     0.005747
      dx2y2   :     0.004177
      dxy     :     0.003614
 21 H s       :     0.845027  s :     0.845027
      pz      :     0.045185  p :     0.150775
      px      :     0.039195
      py      :     0.066395
      dz2     :     0.004432  d :     0.027560
      dxz     :     0.002423
      dyz     :     0.007551
      dx2y2   :     0.006330
      dxy     :     0.006824
 22 H s       :     0.846726  s :     0.846726
      pz      :     0.045952  p :     0.151773
      px      :     0.066646
      py      :     0.039175
      dz2     :     0.003820  d :     0.027500
      dxz     :     0.008300
      dyz     :     0.002071
      dx2y2   :     0.006439
      dxy     :     0.006871
 23 H s       :     0.851815  s :     0.851815
      pz      :     0.057055  p :     0.143773
      px      :     0.045645
      py      :     0.041073
      dz2     :     0.005321  d :     0.026788
      dxz     :     0.007798
      dyz     :     0.005960
      dx2y2   :     0.003823
      dxy     :     0.003886
 24 H s       :     0.858679  s :     0.858679
      pz      :     0.050980  p :     0.154497
      px      :     0.028680
      py      :     0.074836
      dz2     :     0.004921  d :     0.027756
      dxz     :     0.002055
      dyz     :     0.008614
      dx2y2   :     0.006808
      dxy     :     0.005358
 25 H s       :     0.827281  s :     0.827281
      pz      :     0.055418  p :     0.152085
      px      :     0.040559
      py      :     0.056109
      dz2     :     0.007785  d :     0.027735
      dxz     :     0.005045
      dyz     :     0.006707
      dx2y2   :     0.004521
      dxy     :     0.003677
 26 H s       :     0.834347  s :     0.834347
      pz      :     0.039092  p :     0.150464
      px      :     0.043665
      py      :     0.067707
      dz2     :     0.003151  d :     0.027724
      dxz     :     0.001594
      dyz     :     0.008017
      dx2y2   :     0.007995
      dxy     :     0.006966
 27 H s       :     0.835533  s :     0.835533
      pz      :     0.037788  p :     0.153958
      px      :     0.074670
      py      :     0.041500
      dz2     :     0.002334  d :     0.027776
      dxz     :     0.008735
      dyz     :     0.000210
      dx2y2   :     0.006886
      dxy     :     0.009611
 28 H s       :     0.742271  s :     0.742271
      pz      :     0.056068  p :     0.253103
      px      :     0.087704
      py      :     0.109331
      dz2     :     0.006947  d :     0.061731
      dxz     :     0.003141
      dyz     :     0.015873
      dx2y2   :     0.016914
      dxy     :     0.018857
 29 H s       :     0.747799  s :     0.747799
      pz      :     0.116099  p :     0.253962
      px      :     0.094756
      py      :     0.043107
      dz2     :     0.022134  d :     0.061338
      dxz     :     0.017157
      dyz     :     0.011614
      dx2y2   :     0.006276
      dxy     :     0.004157
 30 H s       :     0.825289  s :     0.825289
      pz      :     0.038397  p :     0.149258
      px      :     0.070791
      py      :     0.040071
      dz2     :     0.002827  d :     0.028402
      dxz     :     0.007771
      dyz     :     0.002209
      dx2y2   :     0.007934
      dxy     :     0.007662
 31 H s       :     0.838464  s :     0.838464
      pz      :     0.053178  p :     0.156398
      px      :     0.066552
      py      :     0.036668
      dz2     :     0.004957  d :     0.027411
      dxz     :     0.006900
      dyz     :     0.003176
      dx2y2   :     0.006067
      dxy     :     0.006310
 32 H s       :     0.841554  s :     0.841554
      pz      :     0.037062  p :     0.150888
      px      :     0.039067
      py      :     0.074758
      dz2     :     0.002635  d :     0.026421
      dxz     :     0.000797
      dyz     :     0.007126
      dx2y2   :     0.007857
      dxy     :     0.008007
 33 H s       :     0.848167  s :     0.848167
      pz      :     0.057238  p :     0.158824
      px      :     0.049063
      py      :     0.052523
      dz2     :     0.005828  d :     0.027733
      dxz     :     0.004730
      dyz     :     0.005862
      dx2y2   :     0.005923
      dxy     :     0.005390
 34 H s       :     0.706171  s :     0.706171
      pz      :     0.114927  p :     0.347556
      px      :     0.084667
      py      :     0.147963
      dz2     :     0.023239  d :     0.099494
      dxz     :     0.011528
      dyz     :     0.024161
      dx2y2   :     0.020738
      dxy     :     0.019828
 35 H s       :     0.838438  s :     0.838438
      pz      :     0.041392  p :     0.158018
      px      :     0.040861
      py      :     0.075764
      dz2     :     0.002617  d :     0.028021
      dxz     :     0.000987
      dyz     :     0.007861
      dx2y2   :     0.008105
      dxy     :     0.008451


                      *****************************
                      * MAYER POPULATION ANALYSIS *
                      *****************************

  NA   - Mulliken gross atomic population
  ZA   - Total nuclear charge
  QA   - Mulliken gross atomic charge
  VA   - Mayer's total valence
  BVA  - Mayer's bonded valence
  FA   - Mayer's free valence

  ATOM       NA         ZA         QA         VA         BVA        FA
  0 C      6.2778     6.0000    -0.2778     3.8914     3.8914    -0.0000
  1 C      5.9787     6.0000     0.0213     3.8683     3.8683    -0.0000
  2 O      8.3432     8.0000    -0.3432     2.0247     2.0247    -0.0000
  3 C      5.5710     6.0000     0.4290     4.2400     4.2400    -0.0000
  4 O      8.3835     8.0000    -0.3835     2.1262     2.1262     0.0000
  5 C      6.2167     6.0000    -0.2167     3.5646     3.5646    -0.0000
  6 C      5.8553     6.0000     0.1447     3.8131     3.8131    -0.0000
  7 C      6.3195     6.0000    -0.3195     3.8700     3.8700    -0.0000
  8 N      7.1305     7.0000    -0.1305     3.2683     3.2683    -0.0000
  9 C      5.8020     6.0000     0.1980     4.1540     4.1540     0.0000
 10 S     16.4380    16.0000    -0.4380     1.7560     1.7560     0.0000
 11 N      7.2053     7.0000    -0.2053     3.2597     3.2597     0.0000
 12 C      5.9381     6.0000     0.0619     3.9474     3.9474    -0.0000
 13 C      6.0004     6.0000    -0.0004     3.7552     3.7552    -0.0000
 14 C      6.1738     6.0000    -0.1738     3.8594     3.8594    -0.0000
 15 C      6.1348     6.0000    -0.1348     3.8086     3.8086    -0.0000
 16 C      6.2717     6.0000    -0.2717     3.7867     3.7867    -0.0000
 17 C      5.6951     6.0000     0.3049     3.8766     3.8766     0.0000
 18 O      8.3590     8.0000    -0.3590     2.1161     2.1161    -0.0000
 19 C      6.2440     6.0000    -0.2440     3.8199     3.8199    -0.0000
 20 H      0.8941     1.0000     0.1059     0.9784     0.9784    -0.0000
 21 H      0.8890     1.0000     0.1110     0.9841     0.9841     0.0000
 22 H      0.9057     1.0000     0.0943     0.9829     0.9829    -0.0000
 23 H      0.8801     1.0000     0.1199     0.9735     0.9735     0.0000
 24 H      0.9140     1.0000     0.0860     0.9654     0.9654    -0.0000
 25 H      0.8596     1.0000     0.1404     0.9846     0.9846    -0.0000
 26 H      0.8719     1.0000     0.1281     0.9830     0.9830    -0.0000
 27 H      0.8785     1.0000     0.1215     0.9696     0.9696    -0.0000
 28 H      0.8025     1.0000     0.1975     1.0214     1.0214     0.0000
 29 H      0.8034     1.0000     0.1966     1.0167     1.0167     0.0000
 30 H      0.8377     1.0000     0.1623     0.9954     0.9954    -0.0000
 31 H      0.8335     1.0000     0.1665     0.9862     0.9862    -0.0000
 32 H      0.8375     1.0000     0.1625     0.9772     0.9772     0.0000
 33 H      0.8678     1.0000     0.1322     0.9907     0.9907    -0.0000
 34 H      0.7586     1.0000     0.2414     1.0102     1.0102     0.0000
 35 H      0.8279     1.0000     0.1721     0.9861     0.9861    -0.0000

  Mayer bond orders larger than 0.100000
B(  0-C ,  1-C ) :   0.9779 B(  0-C , 20-H ) :   0.9674 B(  0-C , 21-H ) :   0.9797 
B(  0-C , 22-H ) :   0.9759 B(  1-C ,  2-O ) :   0.8959 B(  1-C , 23-H ) :   0.9808 
B(  1-C , 24-H ) :   0.9669 B(  2-O ,  3-C ) :   1.1505 B(  3-C ,  4-O ) :   2.0812 
B(  3-C ,  5-C ) :   0.9477 B(  5-C ,  6-C ) :   1.6796 B(  5-C , 12-C ) :   0.9568 
B(  6-C ,  7-C ) :   0.9419 B(  6-C ,  8-N ) :   1.1262 B(  7-C , 25-H ) :   0.9727 
B(  7-C , 26-H ) :   0.9791 B(  7-C , 27-H ) :   0.9647 B(  8-N ,  9-C ) :   1.1865 
B(  8-N , 28-H ) :   0.9508 B(  9-C , 10-S ) :   1.6139 B(  9-C , 11-N ) :   1.2950 
B( 11-N , 12-C ) :   0.9969 B( 11-N , 29-H ) :   0.9506 B( 12-C , 13-C ) :   0.9438 
B( 12-C , 30-H ) :   0.9971 B( 13-C , 14-C ) :   1.3907 B( 13-C , 19-C ) :   1.3611 
B( 14-C , 15-C ) :   1.3922 B( 14-C , 31-H ) :   0.9606 B( 15-C , 16-C ) :   1.3629 
B( 15-C , 32-H ) :   0.9712 B( 16-C , 17-C ) :   1.3313 B( 16-C , 33-H ) :   0.9845 
B( 17-C , 18-O ) :   1.1105 B( 17-C , 19-C ) :   1.3704 B( 18-O , 34-H ) :   0.9794 
B( 19-C , 35-H ) :   0.9570 

-------
TIMINGS
-------

Total SCF time: 0 days 1 hours 47 min 7 sec 

Total time                  ....    6427.072 sec
Sum of individual times     ....    6417.063 sec  ( 99.8%)

Fock matrix formation       ....    6380.264 sec  ( 99.3%)
Diagonalization             ....       2.185 sec  (  0.0%)
Density matrix formation    ....       0.300 sec  (  0.0%)
Population analysis         ....       0.260 sec  (  0.0%)
Initial guess               ....       5.437 sec  (  0.1%)
Orbital Transformation      ....       0.000 sec  (  0.0%)
Orbital Orthonormalization  ....       0.000 sec  (  0.0%)
DIIS solution               ....      23.988 sec  (  0.4%)
SOSCF solution              ....       3.245 sec  (  0.1%)

------------------------------------------------------------------------------
                                ORCA  MP2 
------------------------------------------------------------------------------

Freezing NCore=48 chemical core electrons

-------------
RI-MP2 ENERGY
-------------
Dimension of the basis                    ...  828
Memory devoted to MP2                     ...  256 MB   
Data format for buffers                   ... DOUBLE
Compression type for matrix containers    ... UNCOMPRESSED
Overall scaling of the MP2 energy         ...   1.000e+00
Calculating two index integrals           ... done (    0.043 sec)
Cholesky decomposition of V**-1           ... done (    0.366 sec)

-----------------
RI-TRANSFORMATION (AUX index driven)
-----------------

Dimension of the orbital-basis         ... 828
Dimension of the aux-basis             ... 2141
Transformation of internal/external MOs...   24-  76 to   77- 827
Number Format for Storage              ... Double (8 Byte)
Integral mode                          ... Direct

First Phase: integral generation and transformation of MO indices
  Aux angular momentum 0               ... done (    5.895 sec)
  Aux angular momentum 1               ... done (    9.163 sec)
  Aux angular momentum 2               ... done (   11.835 sec)
  Aux angular momentum 3               ... done (    9.293 sec)
  Aux angular momentum 4               ... done (    3.246 sec)
Closing buffer VIA ( 0.63 GB; CompressionRatio= 1.00)
  Phase 1 completed in    40.148 sec
Second Phase: sorting and transformation of aux index

IA-Transformation
Memory available                       ... 167 MB 
Max. # MO pairs treated in a batch     ... 12    
# of internal orbitals                 ... 53
# batches for internal orbitals        ... 5
Closing buffer IAV ( 0.63 GB; CompressionRatio= 1.00)
(ia|v) transformation done in    38.900 sec

  Phase 2 completed in    38.904 sec
RI-Integral transformation completed in    79.059 sec
Opening buffers                              ... done

Starting loop over batches of integrals:

Operator 0  - window                       ... ( 24- 76)x( 77-827)
Operator 0  - Memory available             ...   256 MB
Operator 0  - Memory needed per MO         ...  12.3 MB
Operator 0  - Number of orbitals per batch ... 13
Operator 0  - Number of batches            ... 5

OPERATOR  0   PASS   0:  MOs    24 ...   36
  Reading integrals       ... ok
  Internal MO  26
  Internal MO  29
  Internal MO  32
  Internal MO  35
OPERATOR  0   PASS   1:  MOs    37 ...   49
  Reading integrals       ... ok
  Internal MO  38
  Internal MO  41
  Internal MO  44
  Internal MO  47
OPERATOR  0   PASS   2:  MOs    50 ...   62
  Reading integrals       ... ok
  Internal MO  50
  Internal MO  53
  Internal MO  56
  Internal MO  59
  Internal MO  62
OPERATOR  0   PASS   3:  MOs    63 ...   75
  Reading integrals       ... ok
  Internal MO  65
  Internal MO  68
  Internal MO  71
  Internal MO  74
OPERATOR  0   PASS   4:  MOs    76 ...   76
  Reading integrals       ... ok
Time spent in pair loops =    99.958 sec
Deleting buffer (Ka|jb)[aa] ...done

-----------------------------------------------
 RI-MP2 CORRELATION ENERGY:     -3.539504570 Eh
-----------------------------------------------


-------
TIMINGS
-------

Total time                :  179.565 sec
Integral trafo            :   79.075 sec ( 44.0%)
I/O of integrals          :    5.379 sec (  3.0%)
K(i,j) Operators          :   55.702 sec ( 31.0%)
T(i,j) pair energies      :    8.853 sec (  4.9%)
V-calculation             :    0.043 sec (  0.0%)
V**(-1/2)                 :    0.366 sec (  0.2%)
Gamma(ia|P)               :    0.000 sec (  0.0%)
Gamma-Trafo               :    0.000 sec (  0.0%)
D(virtual)                :    0.000 sec (  0.0%)
D(internal)               :    0.000 sec (  0.0%)
W(virtual)                :    0.000 sec (  0.0%)
W(internal)               :    0.000 sec (  0.0%)
L(virtual)                :    0.000 sec (  0.0%)
L(internal)               :    0.000 sec (  0.0%)
G(D)                      :    0.000 sec (  0.0%)
G(Z)                      :    0.000 sec (  0.0%)
Z-Vector Solution         :    0.000 sec (  0.0%)
3-Index Derivative        :    0.000 sec (  0.0%)
2-Index Derivative        :    0.000 sec (  0.0%)
Separable Gradient        :    0.000 sec (  0.0%)


---------------------------------------
MP2 TOTAL ENERGY:    -1274.336724116 Eh
---------------------------------------

-------------------------   --------------------
FINAL SINGLE POINT ENERGY     -1274.336724116491
-------------------------   --------------------


                            ***************************************
                            *     ORCA property calculations      *
                            ***************************************


  WARNING: The energy has been calculated at the MP2 level but the densities
           used in the property calculations are still SCF densities
           MP2 response densities have not been calculated 
           use %mp2 Density relaxed end
           or  %mp2 Density unrelaxed end

                                    ---------------------
                                    Active property flags
                                    ---------------------
   (+) Dipole Moment


------------------------------------------------------------------------------
                       ORCA ELECTRIC PROPERTIES CALCULATION
------------------------------------------------------------------------------

Dipole Moment Calculation                       ... on
Quadrupole Moment Calculation                   ... off
Polarizability Calculation                      ... off
GBWName                                         ... CONFS/Conf292.orca.gbw
Electron density file                           ... CONFS/Conf292.orca.scfp
The origin for moment calculation is the CENTER OF MASS  = (32.800041, 31.390016 35.193357)

-------------
DIPOLE MOMENT
-------------
                                X             Y             Z
Electronic contribution:      9.69989       7.91620       5.82806
Nuclear contribution   :    -11.23010      -8.79425      -6.22962
                        -----------------------------------------
Total Dipole Moment    :     -1.53020      -0.87805      -0.40156
                        -----------------------------------------
Magnitude (a.u.)       :      1.80935
Magnitude (Debye)      :      4.59900



--------------------
Rotational spectrum 
--------------------
 
Rotational constants in cm-1:     0.011881     0.009481     0.006762 
Rotational constants in MHz :   356.171713   284.242616   202.725813 

 Dipole components along the rotational axes: 
x,y,z [a.u.] :    -1.218846    -0.657359     1.164493 
x,y,z [Debye]:    -3.098060    -1.670875     2.959906 

 

Timings for individual modules:

Sum of individual times         ...     6609.062 sec (= 110.151 min)
GTO integral calculation        ...        1.480 sec (=   0.025 min)   0.0 %
SCF iterations                  ...     6427.149 sec (= 107.119 min)  97.2 %
MP2 module                      ...      180.433 sec (=   3.007 min)   2.7 %
                             ****ORCA TERMINATED NORMALLY****
TOTAL RUN TIME: 0 days 1 hours 50 minutes 10 seconds 124 msec
