
                                 *****************
                                 * O   R   C   A *
                                 *****************

           --- An Ab Initio, DFT and Semiempirical electronic structure package ---

                  #######################################################
                  #                        -***-                        #
                  #          Department of theory and spectroscopy      #
                  #               Directorship: Frank Neese             #
                  #        Max Planck Institute fuer Kohlenforschung    #
                  #                Kaiser Wilhelm Platz 1               #
                  #                 D-45470 Muelheim/Ruhr               #
                  #                      Germany                        #
                  #                                                     #
                  #                  All rights reserved                #
                  #                        -***-                        #
                  #######################################################


                         Program Version 4.2.0 -  RELEASE  -


 With contributions from (in alphabetic order):
   Daniel Aravena         : Magnetic Suceptibility
   Michael Atanasov       : Ab Initio Ligand Field Theory (pilot matlab implementation)
   Alexander A. Auer      : GIAO ZORA, VPT2
   Ute Becker             : Parallelization
   Giovanni Bistoni       : ED, misc. LED, open-shell LED, HFLED
   Martin Brehm           : Molecular dynamics
   Dmytro Bykov           : SCF Hessian
   Vijay G. Chilkuri      : MRCI spin determinant printing, contributions to CSF-ICE
   Dipayan Datta          : RHF DLPNO-CCSD density
   Achintya Kumar Dutta   : EOM-CC, STEOM-CC
   Dmitry Ganyushin       : Spin-Orbit,Spin-Spin,Magnetic field MRCI
   Miquel Garcia          : C-PCM Hessian, Gaussian charge scheme
   Yang Guo               : DLPNO-NEVPT2, CIM, IAO-localization
   Andreas Hansen         : Spin unrestricted coupled pair/coupled cluster methods
   Benjamin Helmich-Paris : CASSCF linear response (MC-RPA)
   Lee Huntington         : MR-EOM, pCC
   Robert Izsak           : Overlap fitted RIJCOSX, COSX-SCS-MP3, EOM
   Christian Kollmar      : KDIIS, OOCD, Brueckner-CCSD(T), CCSD density
   Simone Kossmann        : Meta GGA functionals, TD-DFT gradient, OOMP2, MP2 Hessian
   Martin Krupicka        : AUTO-CI
   Lucas Lang             : DCDCAS
   Dagmar Lenk            : GEPOL surface, SMD
   Dimitrios Liakos       : Extrapolation schemes; Compound Job, initial MDCI parallelization
   Dimitrios Manganas     : Further ROCIS development; embedding schemes
   Dimitrios Pantazis     : SARC Basis sets
   Taras Petrenko         : DFT Hessian,TD-DFT gradient, ASA, ECA, R-Raman, ABS, FL, XAS/XES, NRVS
   Peter Pinski           : DLPNO-MP2, DLPNO-MP2 Gradient
   Christoph Reimann      : Effective Core Potentials
   Marius Retegan         : Local ZFS, SOC
   Christoph Riplinger    : Optimizer, TS searches, QM/MM, DLPNO-CCSD(T), (RO)-DLPNO pert. Triples
   Tobias Risthaus        : Range-separated hybrids, TD-DFT gradient, RPA, STAB
   Michael Roemelt        : Original ROCIS implementation
   Masaaki Saitow         : Open-shell DLPNO-CCSD energy and density
   Barbara Sandhoefer     : DKH picture change effects
   Avijit Sen             : IP-ROCIS
   Kantharuban Sivalingam : CASSCF convergence, NEVPT2, FIC-MRCI
   Bernardo de Souza      : ESD, SOC TD-DFT
   Georgi Stoychev        : AutoAux, RI-MP2 NMR
   Willem Van den Heuvel  : Paramagnetic NMR
   Boris Wezisla          : Elementary symmetry handling
   Frank Wennmohs         : Technical directorship


 We gratefully acknowledge several colleagues who have allowed us to
 interface, adapt or use parts of their codes:
   Stefan Grimme, W. Hujo, H. Kruse,             : VdW corrections, initial TS optimization,
                  C. Bannwarth                     DFT functionals, gCP, sTDA/sTD-DF
   Ed Valeev, F. Pavosevic, A. Kumar             : LibInt (2-el integral package), F12 methods
   Garnet Chan, S. Sharma, J. Yang, R. Olivares  : DMRG
   Ulf Ekstrom                                   : XCFun DFT Library
   Mihaly Kallay                                 : mrcc  (arbitrary order and MRCC methods)
   Andreas Klamt, Michael Diedenhofen            : otool_cosmo (COSMO solvation model)
   Jiri Pittner, Ondrej Demel                    : Mk-CCSD
   Frank Weinhold                                : gennbo (NPA and NBO analysis)
   Christopher J. Cramer and Donald G. Truhlar   : smd solvation model
   Lars Goerigk                                  : TD-DFT with DH, B97 family of functionals
   V. Asgeirsson, H. Jonsson                     : NEB implementation
   FAccTs GmbH                                   : IRC, NEB, NEB-TS, Multilevel, MM, QM/MM, CI optimization
   S Lehtola, MJT Oliveira, MAL Marques          : LibXC Library


 Your calculation uses the libint2 library for the computation of 2-el integrals
 For citations please refer to: http://libint.valeyev.net

 Your ORCA version has been built with support for libXC version: 4.2.3
 For citations please refer to: https://tddft.org/programs/libxc/

 This ORCA versions uses:
   CBLAS   interface :  Fast vector & matrix operations
   LAPACKE interface :  Fast linear algebra routines
   SCALAPACK package :  Parallel linear algebra routines


----- Orbital basis set information -----
Your calculation utilizes the basis: cc-pVTZ 
       H, B-Ne : Obtained from the ccRepo (grant-hill.group.shef.ac.uk/ccrepo) Feb. 2017
                 T. H. Dunning, Jr., J. Chem. Phys. 90, 1007 (1989)
            He : Obtained from the ccRepo (grant-hill.group.shef.ac.uk/ccrepo) Feb. 2017
                 D. E. Woon, T. H. Dunning, Jr., J. Chem. Phys. 100, 2975 (1994)
  Li-Be, Na-Mg : Obtained from the ccRepo (grant-hill.group.shef.ac.uk/ccrepo) Feb. 2017
                 B. P. Prascher, D. E. Woon, K. A. Peterson, T. H. Dunning, Jr., A. K. Wilson, Theor. Chem. Acc. 128, 69 (2011)
         Al-Ar : Obtained from the ccRepo (grant-hill.group.shef.ac.uk/ccrepo) Feb. 2017
                 D. E. Woon, T. H. Dunning, Jr., J. Chem. Phys. 98, 1358 (1993)
            Ca : Obtained from the Peterson Research Group Website (tyr0.chem.wsu.edu/~kipeters) Feb. 2017
                 J. Koput, K. A. Peterson, J. Phys. Chem. 106, 9595 (2002)
         Sc-Zn : Obtained from the ccRepo (grant-hill.group.shef.ac.uk/ccrepo) Feb. 2017
                 N. B. Balabanov, K. A. Peterson, J. Chem. Phys. 123, 064107 (2005)
                 N. B. Balabanov, K. A. Peterson, J. Chem. Phys. 125, 074110 (2006)
         Ga-Kr : Obtained from the ccRepo (grant-hill.group.shef.ac.uk/ccrepo) Feb. 2017
                 A. K. Wilson, D. E. Woon, K. A. Peterson, T. H. Dunning, Jr., J. Chem. Phys. 110, 7667 (1999)
             Y : Obtained from the ccRepo (grant-hill.group.shef.ac.uk/ccrepo) Feb. 2017
                 K. A. Peterson, D. Figgen, M. Dolg, H. Stoll, J. Chem. Phys. 126, 124101 (2007)
        Ag, Au : Obtained from the Peterson Research Group Website (tyr0.chem.wsu.edu/~kipeters) Feb. 2017
                 K. A. Peterson, C. Puzzarini, Theor. Chem. Acc. 114, 283 (2005)

----- AuxC basis set information -----
Your calculation utilizes the auxiliary basis: cc-pVTZ/C 
  Obtained from the EMSL Basis Set Exchange (bse.pnl.gov) Feb. 2017
  H-He, B-F, Al-Ar, Ga-Kr : F. Weigend, A. Kohn, C. Hattig, J. Chem. Phys. 116, 3175 (2002)
             Li-Be, Na-Mg : C. Haettig, Phys. Chem. Chem. Phys. 7, 59 (2005)
                       Ne : C. Haettig, Phys. Chem. Chem. Phys. 7, 59 (2005)
                            F. Weigend, A. Kohn, C. Hattig, J. Chem. Phys. 116, 3175 (2002)
                    Sc-Zn : J. G. Hill, J. A. Platts, J. Chem. Phys. 128, 044104 (2008)

================================================================================
                                        WARNINGS
                       Please study these warnings very carefully!
================================================================================


WARNING: No MP2 level density has been requested!
         To caclulate MP2 level properties use
         %mp2 Density relaxed end
         or
         %mp2 Density unrelaxed end

WARNING: Post HF methods need fully converged wavefunctions
  ===> : Setting SCFConvForced true
         You can overwrite this default with %scf ConvForced false 


INFO   : the flag for use of LIBINT has been found!

================================================================================
                                       INPUT FILE
================================================================================
NAME = CONFS/Conf80.orca
|  1> ! ri-mp2 cc-pvtz cc-pvtz/c TightSCF  NoKeepInts
|  2> 
|  3> %scf
|  4>   MaxCore 4096
|  5> end
|  6> *xyz  0  1
|  7>     C       14.6631003   14.4558512   17.1726158
|  8>     C       15.5926831   15.6100013   16.7653366
|  9>     O       16.8725301   15.0248101   16.4591337
| 10>     C       18.0811859   15.6706038   16.5450567
| 11>     O       19.1022163   15.0203008   16.4210428
| 12>     C       18.0862294   16.9023625   17.3870280
| 13>     C       17.5884493   18.0812119   16.9509615
| 14>     C       16.9877532   18.3640549   15.5912698
| 15>     N       17.6541946   19.2089229   17.7717330
| 16>     C       18.2743788   19.2469388   18.9941964
| 17>     S       18.3472747   20.6374133   19.8858384
| 18>     N       18.8246629   18.0715960   19.4459823
| 19>     C       18.7263386   16.7640696   18.7660227
| 20>     C       17.9547586   15.7498593   19.6049700
| 21>     C       18.4107774   14.4225134   19.7011462
| 22>     C       17.6882393   13.4682622   20.4364046
| 23>     C       16.4954568   13.8420288   21.0782119
| 24>     C       16.0334305   15.1610562   20.9784278
| 25>     O       14.8729942   15.5214977   21.5816730
| 26>     C       16.7553166   16.1097229   20.2473924
| 27>     H       15.0654385   13.9310343   18.0488123
| 28>     H       14.5614693   13.7326377   16.3538275
| 29>     H       13.6653373   14.8332760   17.4269723
| 30>     H       15.1885273   16.1398471   15.8936609
| 31>     H       15.6502051   16.3028451   17.6136944
| 32>     H       17.1289064   17.5310870   14.8914655
| 33>     H       17.4591764   19.2426874   15.1323367
| 34>     H       15.9115076   18.5613511   15.6683259
| 35>     H       17.2686649   20.0847057   17.4544287
| 36>     H       19.2559194   18.1256673   20.3602453
| 37>     H       19.7484068   16.3834113   18.6217816
| 38>     H       19.3204932   14.1243424   19.1841012
| 39>     H       18.0493887   12.4429802   20.4969364
| 40>     H       15.9319571   13.1061662   21.6422735
| 41>     H       14.5545767   14.7533921   22.0798759
| 42>     H       16.3750548   17.1234912   20.1808183
| 43> *
| 44> 
| 45>                          ****END OF INPUT****
================================================================================

                       ****************************
                       * Single Point Calculation *
                       ****************************

---------------------------------
CARTESIAN COORDINATES (ANGSTROEM)
---------------------------------
  C     14.663100   14.455851   17.172616
  C     15.592683   15.610001   16.765337
  O     16.872530   15.024810   16.459134
  C     18.081186   15.670604   16.545057
  O     19.102216   15.020301   16.421043
  C     18.086229   16.902362   17.387028
  C     17.588449   18.081212   16.950961
  C     16.987753   18.364055   15.591270
  N     17.654195   19.208923   17.771733
  C     18.274379   19.246939   18.994196
  S     18.347275   20.637413   19.885838
  N     18.824663   18.071596   19.445982
  C     18.726339   16.764070   18.766023
  C     17.954759   15.749859   19.604970
  C     18.410777   14.422513   19.701146
  C     17.688239   13.468262   20.436405
  C     16.495457   13.842029   21.078212
  C     16.033431   15.161056   20.978428
  O     14.872994   15.521498   21.581673
  C     16.755317   16.109723   20.247392
  H     15.065438   13.931034   18.048812
  H     14.561469   13.732638   16.353828
  H     13.665337   14.833276   17.426972
  H     15.188527   16.139847   15.893661
  H     15.650205   16.302845   17.613694
  H     17.128906   17.531087   14.891465
  H     17.459176   19.242687   15.132337
  H     15.911508   18.561351   15.668326
  H     17.268665   20.084706   17.454429
  H     19.255919   18.125667   20.360245
  H     19.748407   16.383411   18.621782
  H     19.320493   14.124342   19.184101
  H     18.049389   12.442980   20.496936
  H     15.931957   13.106166   21.642274
  H     14.554577   14.753392   22.079876
  H     16.375055   17.123491   20.180818

----------------------------
CARTESIAN COORDINATES (A.U.)
----------------------------
  NO LB      ZA    FRAG     MASS         X           Y           Z
   0 C     6.0000    0    12.011   27.709244   27.317600   32.451541
   1 C     6.0000    0    12.011   29.465901   29.498627   31.681895
   2 O     8.0000    0    15.999   31.884461   28.392776   31.103255
   3 C     6.0000    0    12.011   34.168490   29.613150   31.265626
   4 O     8.0000    0    15.999   36.097957   28.384255   31.031274
   5 C     6.0000    0    12.011   34.178020   31.940836   32.856721
   6 C     6.0000    0    12.011   33.237352   34.168539   32.032675
   7 C     6.0000    0    12.011   32.102201   34.703034   29.463230
   8 N     7.0000    0    14.007   33.361593   36.299604   33.583708
   9 C     6.0000    0    12.011   34.533571   36.371443   35.893829
  10 S    16.0000    0    32.060   34.671324   38.999059   37.578789
  11 N     7.0000    0    14.007   35.573457   34.150367   36.747581
  12 C     6.0000    0    12.011   35.387651   31.679500   35.462644
  13 C     6.0000    0    12.011   33.929577   29.762921   37.048024
  14 C     6.0000    0    12.011   34.791327   27.254600   37.229771
  15 C     6.0000    0    12.011   33.425928   25.451327   38.619208
  16 C     6.0000    0    12.011   31.171896   26.157644   39.832048
  17 C     6.0000    0    12.011   30.298793   28.650244   39.643483
  18 O     8.0000    0    15.999   28.105886   29.331380   40.783451
  19 C     6.0000    0    12.011   31.662960   30.442964   38.262027
  20 H     1.0000    0     1.008   28.469553   26.325840   34.107312
  21 H     1.0000    0     1.008   27.517189   25.950924   30.904255
  22 H     1.0000    0     1.008   25.823745   28.030829   32.932205
  23 H     1.0000    0     1.008   28.702157   30.499891   30.034666
  24 H     1.0000    0     1.008   29.574602   30.807912   33.285059
  25 H     1.0000    0     1.008   32.368942   33.128953   28.140792
  26 H     1.0000    0     1.008   32.993062   36.363409   28.595972
  27 H     1.0000    0     1.008   30.068392   35.075870   29.608845
  28 H     1.0000    0     1.008   32.633047   37.954593   32.984090
  29 H     1.0000    0     1.008   36.388414   34.252547   38.475288
  30 H     1.0000    0     1.008   37.319080   30.960160   35.190067
  31 H     1.0000    0     1.008   36.510441   26.691139   36.252697
  32 H     1.0000    0     1.008   34.108402   23.513825   38.733596
  33 H     1.0000    0     1.008   30.107036   24.767065   40.897970
  34 H     1.0000    0     1.008   27.504164   27.879871   41.724919
  35 H     1.0000    0     1.008   30.944369   32.358709   38.136220

--------------------------------
INTERNAL COORDINATES (ANGSTROEM)
--------------------------------
 C      0   0   0     0.000000000000     0.00000000     0.00000000
 C      1   0   0     1.536900446398     0.00000000     0.00000000
 O      2   1   0     1.440214324306   106.78035118     0.00000000
 C      3   2   1     1.373055391367   125.29864485   206.01653112
 O      4   3   2     1.216871610699   118.74239667   170.89354312
 C      4   3   2     1.492035724084   115.25041739    18.77125613
 C      6   4   3     1.351896789056   122.45341895   282.33834934
 C      7   6   4     1.513141594912   126.79966581   358.86588665
 N      7   6   4     1.396323887644   119.82214677   181.73978169
 C      9   7   6     1.371309744340   124.58928733     4.29656544
 S     10   9   7     1.653408178143   121.60051283   178.11856080
 N     10   9   7     1.374173856418   116.77431063   357.71156910
 C     12  10   9     1.477036902823   125.39027282   355.85814347
 C     13  12  10     1.525709933507   111.65311021   243.91736876
 C     14  13  12     1.406787171411   120.05750625   222.04670048
 C     15  14  13     1.404728291672   120.66404587   181.96409888
 C     16  15  14     1.405115003804   119.67056576     0.23485023
 C     17  16  15     1.401163249038   119.85444507     0.14687442
 O     18  17  16     1.356626423376   120.03350494   179.11546792
 C     18  17  16     1.398392221487   120.37364090   359.76747350
 H      1   2   3     1.097738180222   110.41762964    59.82698617
 H      1   2   3     1.097169497826   110.68737439   299.87659555
 H      1   2   3     1.096666637095   110.68990593   179.65814284
 H      2   1   3     1.097222406088   110.51009940   120.54941594
 H      2   1   3     1.096837393830   107.52459075   239.64098270
 H      8   7   6     1.097035007007   112.34638716   350.98994601
 H      8   7   6     1.097658641760   110.78298009   231.87658428
 H      8   7   6     1.096890160682   111.10085459   111.99693588
 H      9   7   6     1.008122354259   119.90680356   181.08883315
 H     12  10   9     1.012315517734   114.95043816   181.38389106
 H     13  12  10     1.100149826951   107.74673795   125.26989956
 H     15  14  13     1.088036908398   119.80904713     0.63487358
 H     16  15  14     1.088713078573   119.88179152   179.59629011
 H     17  16  15     1.084984408447   119.86324851   179.65453946
 H     19  18  17     0.969320404524   107.39745495     4.21072294
 H     20  18  17     1.084784454818   119.01971926   179.72087284

---------------------------
INTERNAL COORDINATES (A.U.)
---------------------------
 C      0   0   0     0.000000000000     0.00000000     0.00000000
 C      1   0   0     2.904320938794     0.00000000     0.00000000
 O      2   1   0     2.721610647088   106.78035118     0.00000000
 C      3   2   1     2.594698656388   125.29864485   206.01653112
 O      4   3   2     2.299554084366   118.74239667   170.89354312
 C      4   3   2     2.819538900545   115.25041739    18.77125613
 C      6   4   3     2.554714692642   122.45341895   282.33834934
 C      7   6   4     2.859423216229   126.79966581   358.86588665
 N      7   6   4     2.638669741899   119.82214677   181.73978169
 C      9   7   6     2.591399861580   124.58928733     4.29656544
 S     10   9   7     3.124488644276   121.60051283   178.11856080
 N     10   9   7     2.596812249025   116.77431063   357.71156910
 C     12  10   9     2.791195236030   125.39027282   355.85814347
 C     13  12  10     2.883173934132   111.65311021   243.91736876
 C     14  13  12     2.658442482681   120.05750625   222.04670048
 C     15  14  13     2.654551763831   120.66404587   181.96409888
 C     16  15  14     2.655282543853   119.67056576     0.23485023
 C     17  16  15     2.647814809597   119.85444507     0.14687442
 O     18  17  16     2.563652406222   120.03350494   179.11546792
 C     18  17  16     2.642578326416   120.37364090   359.76747350
 H      1   2   3     2.074424527369   110.41762964    59.82698617
 H      1   2   3     2.073349873383   110.68737439   299.87659555
 H      1   2   3     2.072399604317   110.68990593   179.65814284
 H      2   1   3     2.073449855509   110.51009940   120.54941594
 H      2   1   3     2.072722287782   107.52459075   239.64098270
 H      8   7   6     2.073095722568   112.34638716   350.98994601
 H      8   7   6     2.074274221458   110.78298009   231.87658428
 H      8   7   6     2.072822002682   111.10085459   111.99693588
 H      9   7   6     1.905075159033   119.90680356   181.08883315
 H     12  10   9     1.912999089636   114.95043816   181.38389106
 H     13  12  10     2.078981879217   107.74673795   125.26989956
 H     15  14  13     2.056091780470   119.80904713     0.63487358
 H     16  15  14     2.057369556921   119.88179152   179.59629011
 H     17  16  15     2.050323391540   119.86324851   179.65453946
 H     19  18  17     1.831750100572   107.39745495     4.21072294
 H     20  18  17     2.049945533941   119.01971926   179.72087284

---------------------
BASIS SET INFORMATION
---------------------
There are 5 groups of distinct atoms

 Group   1 Type C   : 18s5p2d1f contracted to 4s3p2d1f pattern {8811/311/11/1}
 Group   2 Type O   : 18s5p2d1f contracted to 4s3p2d1f pattern {8811/311/11/1}
 Group   3 Type N   : 18s5p2d1f contracted to 4s3p2d1f pattern {8811/311/11/1}
 Group   4 Type S   : 41s16p2d1f contracted to 5s4p2d1f pattern {13131311/7711/11/1}
 Group   5 Type H   : 5s2p1d contracted to 3s2p1d pattern {311/11/1}

Atom   0C    basis set group =>   1
Atom   1C    basis set group =>   1
Atom   2O    basis set group =>   2
Atom   3C    basis set group =>   1
Atom   4O    basis set group =>   2
Atom   5C    basis set group =>   1
Atom   6C    basis set group =>   1
Atom   7C    basis set group =>   1
Atom   8N    basis set group =>   3
Atom   9C    basis set group =>   1
Atom  10S    basis set group =>   4
Atom  11N    basis set group =>   3
Atom  12C    basis set group =>   1
Atom  13C    basis set group =>   1
Atom  14C    basis set group =>   1
Atom  15C    basis set group =>   1
Atom  16C    basis set group =>   1
Atom  17C    basis set group =>   1
Atom  18O    basis set group =>   2
Atom  19C    basis set group =>   1
Atom  20H    basis set group =>   5
Atom  21H    basis set group =>   5
Atom  22H    basis set group =>   5
Atom  23H    basis set group =>   5
Atom  24H    basis set group =>   5
Atom  25H    basis set group =>   5
Atom  26H    basis set group =>   5
Atom  27H    basis set group =>   5
Atom  28H    basis set group =>   5
Atom  29H    basis set group =>   5
Atom  30H    basis set group =>   5
Atom  31H    basis set group =>   5
Atom  32H    basis set group =>   5
Atom  33H    basis set group =>   5
Atom  34H    basis set group =>   5
Atom  35H    basis set group =>   5
---------------------------------
AUXILIARY/C BASIS SET INFORMATION
---------------------------------
There are 5 groups of distinct atoms

 Group   1 Type C   : 8s6p5d3f1g contracted to 8s6p5d3f1g pattern {11111111/111111/11111/111/1}
 Group   2 Type O   : 8s6p5d3f1g contracted to 8s6p5d3f1g pattern {11111111/111111/11111/111/1}
 Group   3 Type N   : 8s6p5d3f1g contracted to 8s6p5d3f1g pattern {11111111/111111/11111/111/1}
 Group   4 Type S   : 10s8p7d5f2g contracted to 10s8p7d5f2g pattern {1111111111/11111111/1111111/11111/11}
 Group   5 Type H   : 4s3p2d1f contracted to 4s3p2d1f pattern {1111/111/11/1}

Atom   0C    basis set group =>   1
Atom   1C    basis set group =>   1
Atom   2O    basis set group =>   2
Atom   3C    basis set group =>   1
Atom   4O    basis set group =>   2
Atom   5C    basis set group =>   1
Atom   6C    basis set group =>   1
Atom   7C    basis set group =>   1
Atom   8N    basis set group =>   3
Atom   9C    basis set group =>   1
Atom  10S    basis set group =>   4
Atom  11N    basis set group =>   3
Atom  12C    basis set group =>   1
Atom  13C    basis set group =>   1
Atom  14C    basis set group =>   1
Atom  15C    basis set group =>   1
Atom  16C    basis set group =>   1
Atom  17C    basis set group =>   1
Atom  18O    basis set group =>   2
Atom  19C    basis set group =>   1
Atom  20H    basis set group =>   5
Atom  21H    basis set group =>   5
Atom  22H    basis set group =>   5
Atom  23H    basis set group =>   5
Atom  24H    basis set group =>   5
Atom  25H    basis set group =>   5
Atom  26H    basis set group =>   5
Atom  27H    basis set group =>   5
Atom  28H    basis set group =>   5
Atom  29H    basis set group =>   5
Atom  30H    basis set group =>   5
Atom  31H    basis set group =>   5
Atom  32H    basis set group =>   5
Atom  33H    basis set group =>   5
Atom  34H    basis set group =>   5
Atom  35H    basis set group =>   5
------------------------------------------------------------------------------
                           ORCA GTO INTEGRAL CALCULATION
------------------------------------------------------------------------------

                         BASIS SET STATISTICS AND STARTUP INFO

 # of primitive gaussian shells          ...  682
 # of primitive gaussian functions       ... 1312
 # of contracted shells                  ...  298
 # of contracted basis functions         ...  828
 Highest angular momentum                ...    3
 Maximum contraction depth               ...   13
 Integral package used                   ... LIBINT
 Integral threshhold            Thresh   ...  2.500e-11
 Primitive cut-off              TCut     ...  2.500e-12


------------------------------ INTEGRAL EVALUATION ----------------------------


 * One electron integrals 
 Pre-screening matrix                    ... done
 Shell pair data                         ... done (   0.013 sec)

-------------------------------------------------------------------------------
                                 ORCA SCF
-------------------------------------------------------------------------------

------------
SCF SETTINGS
------------
Hamiltonian:
 Ab initio Hamiltonian  Method          .... Hartree-Fock(GTOs)


General Settings:
 Integral files         IntName         .... CONFS/Conf80.orca
 Hartree-Fock type      HFTyp           .... RHF
 Total Charge           Charge          ....    0
 Multiplicity           Mult            ....    1
 Number of Electrons    NEL             ....  154
 Basis Dimension        Dim             ....  828
 Nuclear Repulsion      ENuc            ....   1735.2134978484 Eh

Convergence Acceleration:
 DIIS                   CNVDIIS         .... on
   Start iteration      DIISMaxIt       ....    12
   Startup error        DIISStart       ....  0.200000
   # of expansion vecs  DIISMaxEq       ....     5
   Bias factor          DIISBfac        ....   1.050
   Max. coefficient     DIISMaxC        ....  10.000
 Newton-Raphson         CNVNR           .... off
 SOSCF                  CNVSOSCF        .... on
   Start iteration      SOSCFMaxIt      ....   150
   Startup grad/error   SOSCFStart      ....  0.003300
 Level Shifting         CNVShift        .... on
   Level shift para.    LevelShift      ....    0.2500
   Turn off err/grad.   ShiftErr        ....    0.0010
 Zerner damping         CNVZerner       .... off
 Static damping         CNVDamp         .... on
   Fraction old density DampFac         ....    0.7000
   Max. Damping (<1)    DampMax         ....    0.9800
   Min. Damping (>=0)   DampMin         ....    0.0000
   Turn off err/grad.   DampErr         ....    0.1000
 Fernandez-Rico         CNVRico         .... off

SCF Procedure:
 Maximum # iterations   MaxIter         ....   125
 SCF integral mode      SCFMode         .... Direct
   Integral package                     .... LIBINT
 Reset frequency        DirectResetFreq ....    20
 Integral Threshold     Thresh          ....  2.500e-11 Eh
 Primitive CutOff       TCut            ....  2.500e-12 Eh

Convergence Tolerance:
 Convergence Check Mode ConvCheckMode   .... Total+1el-Energy
 Convergence forced     ConvForced      .... 1
 Energy Change          TolE            ....  1.000e-08 Eh
 1-El. energy change                    ....  1.000e-05 Eh
 Orbital Gradient       TolG            ....  1.000e-05
 Orbital Rotation angle TolX            ....  1.000e-05
 DIIS Error             TolErr          ....  5.000e-07


Diagonalization of the overlap matrix:
Smallest eigenvalue                        ... 3.285e-05
Time for diagonalization                   ...    0.281 sec
Threshold for overlap eigenvalues          ... 1.000e-08
Number of eigenvalues below threshold      ... 0
Time for construction of square roots      ...    0.330 sec
Total time needed                          ...    0.612 sec

-------------------
DFT GRID GENERATION
-------------------

General Integration Accuracy     IntAcc      ...  4.340
Radial Grid Type                 RadialGrid  ... Gauss-Chebyshev
Angular Grid (max. acc.)         AngularGrid ... Lebedev-110
Angular grid pruning method      GridPruning ... 3 (G Style)
Weight generation scheme         WeightScheme... Becke
Basis function cutoff            BFCut       ...    1.0000e-11
Integration weight cutoff        WCut        ...    1.0000e-14
Grids for H and He will be reduced by one unit

# of grid points (after initial pruning)     ...  46246 (   0.0 sec)
# of grid points (after weights+screening)   ...  41123 (   0.3 sec)
nearest neighbour list constructed           ...    0.0 sec
Grid point re-assignment to atoms done       ...    0.0 sec
Grid point division into batches done        ...    0.0 sec
Reduced shell lists constructed in    0.8 sec

Total number of grid points                  ...    41123
Total number of batches                      ...      662
Average number of points per batch           ...       62
Average number of grid points per atom       ...     1142
Average number of shells per batch           ...   155.92 (52.32%)
Average number of basis functions per batch  ...   397.26 (47.98%)
Average number of large shells per batch     ...   100.23 (64.28%)
Average number of large basis fcns per batch ...   255.79 (64.39%)
Maximum spatial batch extension              ...  19.49, 19.21, 19.50 au
Average spatial batch extension              ...   3.50,  3.35,  3.32 au

Time for grid setup =    1.143 sec

------------------------------
INITIAL GUESS: MODEL POTENTIAL
------------------------------
Loading Hartree-Fock densities                     ... done
Calculating cut-offs                               ... done
Setting up the integral package                    ... done
Initializing the effective Hamiltonian             ... done
Starting the Coulomb interaction                   ... done (   3.0 sec)
Reading the grid                                   ... done
Mapping shells                                     ... done
Starting the XC term evaluation                    ... done (   1.1 sec)
Transforming the Hamiltonian                       ... done (   0.2 sec)
Diagonalizing the Hamiltonian                      ... done (   0.3 sec)
Back transforming the eigenvectors                 ... done (   0.1 sec)
Now organizing SCF variables                       ... done
                      ------------------
                      INITIAL GUESS DONE (   6.1 sec)
                      ------------------
--------------
SCF ITERATIONS
--------------
ITER       Energy         Delta-E        Max-DP      RMS-DP      [F,P]     Damp
               ***  Starting incremental Fock matrix formation  ***
  0  -1269.9911284006   0.000000000000 0.04926775  0.00045108  0.3190566 0.7000
  1  -1270.2595368851  -0.268408484490 0.03606747  0.00036678  0.1896208 0.7000
                               ***Turning on DIIS***
  2  -1270.4264787532  -0.166941868114 0.02584347  0.00024470  0.1098643 0.7000
  3  -1272.5475432839  -2.121064530758 0.06321366  0.00052417  0.0830371 0.0000
  4  -1270.7389770551   1.808566228853 0.01294812  0.00010301  0.0076795 0.0000
  5  -1270.7948549128  -0.055877857658 0.00542470  0.00005386  0.0039623 0.0000
  6  -1270.7739376035   0.020917309214 0.00264247  0.00002750  0.0036143 0.0000
                      *** Initiating the SOSCF procedure ***
                           *** Shutting down DIIS ***
                      *** Re-Reading the Fockian *** 
                      *** Removing any level shift *** 
ITER      Energy       Delta-E        Grad      Rot      Max-DP    RMS-DP
  7  -1270.78891910  -0.0149814952  0.000915  0.000915  0.001344  0.000016
               *** Restarting incremental Fock matrix formation ***
  8  -1270.78913372  -0.0002146260  0.000488  0.001205  0.000648  0.000009
  9  -1270.78914774  -0.0000140182  0.000226  0.001430  0.001093  0.000012
 10  -1270.78915366  -0.0000059129  0.000071  0.000093  0.000168  0.000002
 11  -1270.78915424  -0.0000005887  0.000034  0.000058  0.000063  0.000001
 12  -1270.78915435  -0.0000001025  0.000007  0.000024  0.000033  0.000000
 13  -1270.78915436  -0.0000000114  0.000006  0.000027  0.000015  0.000000
                  ***Gradient check signals convergence***
              ***Rediagonalizing the Fockian in SOSCF/NRSCF***

               *****************************************************
               *                     SUCCESS                       *
               *           SCF CONVERGED AFTER  14 CYCLES          *
               *****************************************************


----------------
TOTAL SCF ENERGY
----------------

Total Energy       :        -1270.78915437 Eh          -34579.93090 eV

Components:
Nuclear Repulsion  :         1735.21349785 Eh           47217.55977 eV
Electronic Energy  :        -3006.00265222 Eh          -81797.49067 eV
One Electron Energy:        -5191.07821749 Eh         -141256.41964 eV
Two Electron Energy:         2185.07556527 Eh           59458.92896 eV

Virial components:
Potential Energy   :        -2539.79589123 Eh          -69111.35975 eV
Kinetic Energy     :         1269.00673686 Eh           34531.42885 eV
Virial Ratio       :            2.00140458


---------------
SCF CONVERGENCE
---------------

  Last Energy change         ...   -8.7639e-09  Tolerance :   1.0000e-08
  Last MAX-Density change    ...    3.2734e-06  Tolerance :   1.0000e-07
  Last RMS-Density change    ...    4.3476e-08  Tolerance :   5.0000e-09
  Last Orbital Gradient      ...    1.5280e-06  Tolerance :   1.0000e-05
  Last Orbital Rotation      ...    4.5543e-06  Tolerance :   1.0000e-05

             **** THE GBW FILE WAS UPDATED (CONFS/Conf80.orca.gbw) ****
             **** DENSITY FILE WAS UPDATED (CONFS/Conf80.orca.scfp) ****
             **** ENERGY FILE WAS UPDATED (CONFS/Conf80.orca.en.tmp) ****
             **** THE GBW FILE WAS UPDATED (CONFS/Conf80.orca.gbw) ****
             **** DENSITY FILE WAS UPDATED (CONFS/Conf80.orca.scfp) ****
----------------
ORBITAL ENERGIES
----------------

  NO   OCC          E(Eh)            E(eV) 
   0   2.0000     -91.889755     -2500.4474 
   1   2.0000     -20.602764      -560.6297 
   2   2.0000     -20.600238      -560.5610 
   3   2.0000     -20.550571      -559.2095 
   4   2.0000     -15.626200      -425.2105 
   5   2.0000     -15.611906      -424.8216 
   6   2.0000     -11.397137      -310.1319 
   7   2.0000     -11.386763      -309.8496 
   8   2.0000     -11.326998      -308.2233 
   9   2.0000     -11.316977      -307.9506 
  10   2.0000     -11.315850      -307.9199 
  11   2.0000     -11.303170      -307.5749 
  12   2.0000     -11.270686      -306.6910 
  13   2.0000     -11.264396      -306.5198 
  14   2.0000     -11.263851      -306.5050 
  15   2.0000     -11.256800      -306.3131 
  16   2.0000     -11.246066      -306.0210 
  17   2.0000     -11.242542      -305.9251 
  18   2.0000     -11.239303      -305.8370 
  19   2.0000     -11.230069      -305.5857 
  20   2.0000      -8.894878      -242.0419 
  21   2.0000      -6.576469      -178.9548 
  22   2.0000      -6.574440      -178.8996 
  23   2.0000      -6.573868      -178.8840 
  24   2.0000      -1.449574       -39.4449 
  25   2.0000      -1.420041       -38.6413 
  26   2.0000      -1.359852       -37.0034 
  27   2.0000      -1.339745       -36.4563 
  28   2.0000      -1.239797       -33.7366 
  29   2.0000      -1.161614       -31.6091 
  30   2.0000      -1.125899       -30.6373 
  31   2.0000      -1.049482       -28.5579 
  32   2.0000      -1.039637       -28.2900 
  33   2.0000      -1.019046       -27.7296 
  34   2.0000      -1.005398       -27.3583 
  35   2.0000      -0.989429       -26.9237 
  36   2.0000      -0.928178       -25.2570 
  37   2.0000      -0.881058       -23.9748 
  38   2.0000      -0.855355       -23.2754 
  39   2.0000      -0.841760       -22.9054 
  40   2.0000      -0.837142       -22.7798 
  41   2.0000      -0.836815       -22.7709 
  42   2.0000      -0.757093       -20.6015 
  43   2.0000      -0.739907       -20.1339 
  44   2.0000      -0.731617       -19.9083 
  45   2.0000      -0.698532       -19.0080 
  46   2.0000      -0.689011       -18.7489 
  47   2.0000      -0.682136       -18.5619 
  48   2.0000      -0.677341       -18.4314 
  49   2.0000      -0.660370       -17.9696 
  50   2.0000      -0.658060       -17.9067 
  51   2.0000      -0.649219       -17.6661 
  52   2.0000      -0.640061       -17.4170 
  53   2.0000      -0.612298       -16.6615 
  54   2.0000      -0.608527       -16.5589 
  55   2.0000      -0.604556       -16.4508 
  56   2.0000      -0.598955       -16.2984 
  57   2.0000      -0.584745       -15.9117 
  58   2.0000      -0.578226       -15.7343 
  59   2.0000      -0.569424       -15.4948 
  60   2.0000      -0.561631       -15.2828 
  61   2.0000      -0.556582       -15.1454 
  62   2.0000      -0.550371       -14.9763 
  63   2.0000      -0.528681       -14.3862 
  64   2.0000      -0.518868       -14.1191 
  65   2.0000      -0.515224       -14.0200 
  66   2.0000      -0.504186       -13.7196 
  67   2.0000      -0.502401       -13.6710 
  68   2.0000      -0.488544       -13.2940 
  69   2.0000      -0.470860       -12.8127 
  70   2.0000      -0.452955       -12.3255 
  71   2.0000      -0.450963       -12.2713 
  72   2.0000      -0.356400        -9.6981 
  73   2.0000      -0.352131        -9.5820 
  74   2.0000      -0.329500        -8.9661 
  75   2.0000      -0.324583        -8.8323 
  76   2.0000      -0.318088        -8.6556 
  77   0.0000       0.087466         2.3801 
  78   0.0000       0.103950         2.8286 
  79   0.0000       0.110314         3.0018 
  80   0.0000       0.126940         3.4542 
  81   0.0000       0.132745         3.6122 
  82   0.0000       0.144067         3.9203 
  83   0.0000       0.145494         3.9591 
  84   0.0000       0.149998         4.0817 
  85   0.0000       0.158223         4.3055 
  86   0.0000       0.167735         4.5643 
  87   0.0000       0.173573         4.7232 
  88   0.0000       0.184277         5.0144 
  89   0.0000       0.190665         5.1883 
  90   0.0000       0.196583         5.3493 
  91   0.0000       0.205301         5.5865 
  92   0.0000       0.212646         5.7864 
  93   0.0000       0.217561         5.9201 
  94   0.0000       0.224654         6.1131 
  95   0.0000       0.232796         6.3347 
  96   0.0000       0.234548         6.3824 
  97   0.0000       0.244344         6.6489 
  98   0.0000       0.255260         6.9460 
  99   0.0000       0.275524         7.4974 
 100   0.0000       0.285878         7.7791 
 101   0.0000       0.298520         8.1231 
 102   0.0000       0.305730         8.3193 
 103   0.0000       0.314529         8.5588 
 104   0.0000       0.323793         8.8108 
 105   0.0000       0.335561         9.1311 
 106   0.0000       0.342734         9.3263 
 107   0.0000       0.346965         9.4414 
 108   0.0000       0.347934         9.4678 
 109   0.0000       0.353954         9.6316 
 110   0.0000       0.361364         9.8332 
 111   0.0000       0.373344        10.1592 
 112   0.0000       0.381285        10.3753 
 113   0.0000       0.388835        10.5807 
 114   0.0000       0.397210        10.8086 
 115   0.0000       0.405045        11.0218 
 116   0.0000       0.417297        11.3552 
 117   0.0000       0.423257        11.5174 
 118   0.0000       0.431187        11.7332 
 119   0.0000       0.438740        11.9387 
 120   0.0000       0.443366        12.0646 
 121   0.0000       0.447343        12.1728 
 122   0.0000       0.454183        12.3589 
 123   0.0000       0.458214        12.4686 
 124   0.0000       0.469297        12.7702 
 125   0.0000       0.475877        12.9493 
 126   0.0000       0.482300        13.1241 
 127   0.0000       0.486404        13.2357 
 128   0.0000       0.488967        13.3055 
 129   0.0000       0.501481        13.6460 
 130   0.0000       0.504283        13.7222 
 131   0.0000       0.509456        13.8630 
 132   0.0000       0.515122        14.0172 
 133   0.0000       0.520331        14.1589 
 134   0.0000       0.524553        14.2738 
 135   0.0000       0.529103        14.3976 
 136   0.0000       0.535687        14.5768 
 137   0.0000       0.536591        14.6014 
 138   0.0000       0.548932        14.9372 
 139   0.0000       0.552899        15.0451 
 140   0.0000       0.558290        15.1918 
 141   0.0000       0.560341        15.2477 
 142   0.0000       0.564731        15.3671 
 143   0.0000       0.571230        15.5439 
 144   0.0000       0.577172        15.7056 
 145   0.0000       0.582873        15.8608 
 146   0.0000       0.583730        15.8841 
 147   0.0000       0.590593        16.0709 
 148   0.0000       0.593269        16.1437 
 149   0.0000       0.595460        16.2033 
 150   0.0000       0.601398        16.3649 
 151   0.0000       0.604255        16.4426 
 152   0.0000       0.607017        16.5178 
 153   0.0000       0.611887        16.6503 
 154   0.0000       0.621611        16.9149 
 155   0.0000       0.625532        17.0216 
 156   0.0000       0.627465        17.0742 
 157   0.0000       0.635367        17.2892 
 158   0.0000       0.636851        17.3296 
 159   0.0000       0.644464        17.5368 
 160   0.0000       0.652505        17.7556 
 161   0.0000       0.657691        17.8967 
 162   0.0000       0.659744        17.9525 
 163   0.0000       0.667256        18.1569 
 164   0.0000       0.670988        18.2585 
 165   0.0000       0.682019        18.5587 
 166   0.0000       0.688556        18.7366 
 167   0.0000       0.695245        18.9186 
 168   0.0000       0.695874        18.9357 
 169   0.0000       0.700624        19.0649 
 170   0.0000       0.703842        19.1525 
 171   0.0000       0.708894        19.2900 
 172   0.0000       0.720168        19.5968 
 173   0.0000       0.731184        19.8965 
 174   0.0000       0.734829        19.9957 
 175   0.0000       0.736902        20.0521 
 176   0.0000       0.742790        20.2124 
 177   0.0000       0.745565        20.2879 
 178   0.0000       0.752557        20.4781 
 179   0.0000       0.763159        20.7666 
 180   0.0000       0.767663        20.8892 
 181   0.0000       0.775739        21.1089 
 182   0.0000       0.780056        21.2264 
 183   0.0000       0.792390        21.5620 
 184   0.0000       0.804460        21.8905 
 185   0.0000       0.809922        22.0391 
 186   0.0000       0.819968        22.3125 
 187   0.0000       0.830738        22.6055 
 188   0.0000       0.836899        22.7732 
 189   0.0000       0.842923        22.9371 
 190   0.0000       0.847916        23.0730 
 191   0.0000       0.853784        23.2326 
 192   0.0000       0.863368        23.4934 
 193   0.0000       0.867641        23.6097 
 194   0.0000       0.870428        23.6855 
 195   0.0000       0.876377        23.8474 
 196   0.0000       0.887435        24.1483 
 197   0.0000       0.896041        24.3825 
 198   0.0000       0.903640        24.5893 
 199   0.0000       0.905372        24.6364 
 200   0.0000       0.914924        24.8963 
 201   0.0000       0.917587        24.9688 
 202   0.0000       0.924750        25.1637 
 203   0.0000       0.939948        25.5773 
 204   0.0000       0.946678        25.7604 
 205   0.0000       0.955799        26.0086 
 206   0.0000       0.963864        26.2281 
 207   0.0000       0.966007        26.2864 
 208   0.0000       0.969504        26.3816 
 209   0.0000       0.980202        26.6727 
 210   0.0000       0.989694        26.9309 
 211   0.0000       0.995711        27.0947 
 212   0.0000       0.999865        27.2077 
 213   0.0000       1.005482        27.3605 
 214   0.0000       1.011219        27.5167 
 215   0.0000       1.015561        27.6348 
 216   0.0000       1.027781        27.9674 
 217   0.0000       1.029799        28.0223 
 218   0.0000       1.037330        28.2272 
 219   0.0000       1.041503        28.3407 
 220   0.0000       1.056197        28.7406 
 221   0.0000       1.060660        28.8620 
 222   0.0000       1.068704        29.0809 
 223   0.0000       1.078347        29.3433 
 224   0.0000       1.083734        29.4899 
 225   0.0000       1.085915        29.5492 
 226   0.0000       1.090877        29.6843 
 227   0.0000       1.097452        29.8632 
 228   0.0000       1.103129        30.0177 
 229   0.0000       1.111237        30.2383 
 230   0.0000       1.115350        30.3502 
 231   0.0000       1.126626        30.6570 
 232   0.0000       1.134640        30.8751 
 233   0.0000       1.149245        31.2725 
 234   0.0000       1.161101        31.5952 
 235   0.0000       1.165227        31.7075 
 236   0.0000       1.168109        31.7859 
 237   0.0000       1.175892        31.9977 
 238   0.0000       1.178208        32.0607 
 239   0.0000       1.189284        32.3621 
 240   0.0000       1.194962        32.5166 
 241   0.0000       1.201640        32.6983 
 242   0.0000       1.207851        32.8673 
 243   0.0000       1.212295        32.9882 
 244   0.0000       1.222396        33.2631 
 245   0.0000       1.226768        33.3821 
 246   0.0000       1.233866        33.5752 
 247   0.0000       1.241626        33.7864 
 248   0.0000       1.254567        34.1385 
 249   0.0000       1.262561        34.3560 
 250   0.0000       1.268976        34.5306 
 251   0.0000       1.279177        34.8082 
 252   0.0000       1.284652        34.9571 
 253   0.0000       1.290070        35.1046 
 254   0.0000       1.300015        35.3752 
 255   0.0000       1.308733        35.6124 
 256   0.0000       1.320621        35.9359 
 257   0.0000       1.324181        36.0328 
 258   0.0000       1.328469        36.1495 
 259   0.0000       1.330131        36.1947 
 260   0.0000       1.344120        36.5754 
 261   0.0000       1.347527        36.6681 
 262   0.0000       1.357965        36.9521 
 263   0.0000       1.365610        37.1601 
 264   0.0000       1.377978        37.4967 
 265   0.0000       1.385072        37.6897 
 266   0.0000       1.401739        38.1433 
 267   0.0000       1.403934        38.2030 
 268   0.0000       1.406728        38.2790 
 269   0.0000       1.423908        38.7465 
 270   0.0000       1.435852        39.0715 
 271   0.0000       1.440432        39.1962 
 272   0.0000       1.446159        39.3520 
 273   0.0000       1.453803        39.5600 
 274   0.0000       1.463793        39.8318 
 275   0.0000       1.470861        40.0242 
 276   0.0000       1.475815        40.1590 
 277   0.0000       1.483477        40.3675 
 278   0.0000       1.490055        40.5465 
 279   0.0000       1.493317        40.6352 
 280   0.0000       1.505542        40.9679 
 281   0.0000       1.511251        41.1232 
 282   0.0000       1.512197        41.1490 
 283   0.0000       1.521647        41.4061 
 284   0.0000       1.525058        41.4989 
 285   0.0000       1.534375        41.7525 
 286   0.0000       1.539697        41.8973 
 287   0.0000       1.547236        42.1024 
 288   0.0000       1.550574        42.1933 
 289   0.0000       1.560484        42.4629 
 290   0.0000       1.562384        42.5146 
 291   0.0000       1.569491        42.7080 
 292   0.0000       1.577524        42.9266 
 293   0.0000       1.582991        43.0754 
 294   0.0000       1.599840        43.5339 
 295   0.0000       1.600478        43.5512 
 296   0.0000       1.614489        43.9325 
 297   0.0000       1.617997        44.0279 
 298   0.0000       1.626187        44.2508 
 299   0.0000       1.631657        44.3996 
 300   0.0000       1.639802        44.6213 
 301   0.0000       1.643733        44.7282 
 302   0.0000       1.648922        44.8694 
 303   0.0000       1.656794        45.0837 
 304   0.0000       1.678034        45.6616 
 305   0.0000       1.686966        45.9047 
 306   0.0000       1.691022        46.0151 
 307   0.0000       1.703247        46.3477 
 308   0.0000       1.712448        46.5981 
 309   0.0000       1.716342        46.7040 
 310   0.0000       1.723957        46.9113 
 311   0.0000       1.733885        47.1814 
 312   0.0000       1.738591        47.3095 
 313   0.0000       1.747821        47.5606 
 314   0.0000       1.749323        47.6015 
 315   0.0000       1.770709        48.1834 
 316   0.0000       1.776863        48.3509 
 317   0.0000       1.787384        48.6372 
 318   0.0000       1.801342        49.0170 
 319   0.0000       1.816662        49.4339 
 320   0.0000       1.829976        49.7962 
 321   0.0000       1.833970        49.9049 
 322   0.0000       1.845775        50.2261 
 323   0.0000       1.853285        50.4305 
 324   0.0000       1.858853        50.5820 
 325   0.0000       1.869950        50.8839 
 326   0.0000       1.879203        51.1357 
 327   0.0000       1.899975        51.7009 
 328   0.0000       1.909707        51.9658 
 329   0.0000       1.913457        52.0678 
 330   0.0000       1.931980        52.5718 
 331   0.0000       1.937691        52.7273 
 332   0.0000       1.942815        52.8667 
 333   0.0000       1.968103        53.5548 
 334   0.0000       1.980491        53.8919 
 335   0.0000       1.993853        54.2555 
 336   0.0000       2.001313        54.4585 
 337   0.0000       2.010327        54.7038 
 338   0.0000       2.015860        54.8543 
 339   0.0000       2.017699        54.9044 
 340   0.0000       2.033346        55.3302 
 341   0.0000       2.043631        55.6100 
 342   0.0000       2.063010        56.1374 
 343   0.0000       2.077961        56.5442 
 344   0.0000       2.091283        56.9067 
 345   0.0000       2.101251        57.1779 
 346   0.0000       2.123064        57.7715 
 347   0.0000       2.141989        58.2865 
 348   0.0000       2.161488        58.8171 
 349   0.0000       2.174789        59.1790 
 350   0.0000       2.177952        59.2651 
 351   0.0000       2.189047        59.5670 
 352   0.0000       2.211203        60.1699 
 353   0.0000       2.233413        60.7743 
 354   0.0000       2.235636        60.8348 
 355   0.0000       2.277297        61.9684 
 356   0.0000       2.288600        62.2760 
 357   0.0000       2.293287        62.4035 
 358   0.0000       2.300115        62.5893 
 359   0.0000       2.309410        62.8423 
 360   0.0000       2.320818        63.1527 
 361   0.0000       2.338134        63.6239 
 362   0.0000       2.349095        63.9221 
 363   0.0000       2.364444        64.3398 
 364   0.0000       2.369264        64.4710 
 365   0.0000       2.374784        64.6211 
 366   0.0000       2.391769        65.0833 
 367   0.0000       2.397671        65.2439 
 368   0.0000       2.407593        65.5139 
 369   0.0000       2.431788        66.1723 
 370   0.0000       2.437035        66.3151 
 371   0.0000       2.449961        66.6668 
 372   0.0000       2.467898        67.1549 
 373   0.0000       2.473336        67.3029 
 374   0.0000       2.497716        67.9663 
 375   0.0000       2.508087        68.2485 
 376   0.0000       2.511878        68.3517 
 377   0.0000       2.533841        68.9493 
 378   0.0000       2.554801        69.5197 
 379   0.0000       2.565440        69.8092 
 380   0.0000       2.567703        69.8708 
 381   0.0000       2.589866        70.4738 
 382   0.0000       2.597181        70.6729 
 383   0.0000       2.606504        70.9266 
 384   0.0000       2.617086        71.2145 
 385   0.0000       2.627755        71.5049 
 386   0.0000       2.633463        71.6602 
 387   0.0000       2.648504        72.0695 
 388   0.0000       2.654986        72.2459 
 389   0.0000       2.663230        72.4702 
 390   0.0000       2.684342        73.0447 
 391   0.0000       2.690693        73.2175 
 392   0.0000       2.708794        73.7100 
 393   0.0000       2.716530        73.9205 
 394   0.0000       2.734726        74.4157 
 395   0.0000       2.738960        74.5309 
 396   0.0000       2.746164        74.7269 
 397   0.0000       2.749707        74.8233 
 398   0.0000       2.757576        75.0375 
 399   0.0000       2.759127        75.0797 
 400   0.0000       2.776472        75.5516 
 401   0.0000       2.786104        75.8137 
 402   0.0000       2.792691        75.9930 
 403   0.0000       2.802155        76.2505 
 404   0.0000       2.823830        76.8403 
 405   0.0000       2.827833        76.9492 
 406   0.0000       2.848147        77.5020 
 407   0.0000       2.848568        77.5135 
 408   0.0000       2.859171        77.8020 
 409   0.0000       2.869337        78.0786 
 410   0.0000       2.884045        78.4789 
 411   0.0000       2.889269        78.6210 
 412   0.0000       2.897016        78.8318 
 413   0.0000       2.908834        79.1534 
 414   0.0000       2.923208        79.5445 
 415   0.0000       2.927245        79.6544 
 416   0.0000       2.937744        79.9401 
 417   0.0000       2.949278        80.2539 
 418   0.0000       2.961457        80.5854 
 419   0.0000       2.966183        80.7139 
 420   0.0000       2.972169        80.8768 
 421   0.0000       2.982879        81.1683 
 422   0.0000       2.988952        81.3335 
 423   0.0000       2.996455        81.5377 
 424   0.0000       3.012853        81.9839 
 425   0.0000       3.018287        82.1318 
 426   0.0000       3.022431        82.2445 
 427   0.0000       3.030551        82.4655 
 428   0.0000       3.033736        82.5522 
 429   0.0000       3.044014        82.8318 
 430   0.0000       3.045615        82.8754 
 431   0.0000       3.053884        83.1004 
 432   0.0000       3.055649        83.1484 
 433   0.0000       3.066567        83.4455 
 434   0.0000       3.080422        83.8225 
 435   0.0000       3.086552        83.9894 
 436   0.0000       3.091982        84.1371 
 437   0.0000       3.096863        84.2699 
 438   0.0000       3.107250        84.5526 
 439   0.0000       3.117549        84.8328 
 440   0.0000       3.122536        84.9685 
 441   0.0000       3.123750        85.0015 
 442   0.0000       3.134910        85.3053 
 443   0.0000       3.145130        85.5833 
 444   0.0000       3.147573        85.6498 
 445   0.0000       3.153516        85.8115 
 446   0.0000       3.163246        86.0763 
 447   0.0000       3.176663        86.4414 
 448   0.0000       3.181852        86.5826 
 449   0.0000       3.200471        87.0892 
 450   0.0000       3.202739        87.1510 
 451   0.0000       3.212567        87.4184 
 452   0.0000       3.216407        87.5229 
 453   0.0000       3.223122        87.7056 
 454   0.0000       3.232539        87.9619 
 455   0.0000       3.235592        88.0449 
 456   0.0000       3.243013        88.2469 
 457   0.0000       3.249097        88.4124 
 458   0.0000       3.255576        88.5887 
 459   0.0000       3.268006        88.9270 
 460   0.0000       3.276598        89.1608 
 461   0.0000       3.280445        89.2655 
 462   0.0000       3.286474        89.4295 
 463   0.0000       3.291228        89.5589 
 464   0.0000       3.295350        89.6710 
 465   0.0000       3.301699        89.8438 
 466   0.0000       3.308087        90.0176 
 467   0.0000       3.322998        90.4234 
 468   0.0000       3.331106        90.6440 
 469   0.0000       3.332688        90.6870 
 470   0.0000       3.338639        90.8490 
 471   0.0000       3.341409        90.9243 
 472   0.0000       3.350785        91.1795 
 473   0.0000       3.353360        91.2496 
 474   0.0000       3.359063        91.4047 
 475   0.0000       3.363422        91.5234 
 476   0.0000       3.364296        91.5472 
 477   0.0000       3.373688        91.8027 
 478   0.0000       3.381910        92.0264 
 479   0.0000       3.384931        92.1086 
 480   0.0000       3.397730        92.4569 
 481   0.0000       3.400354        92.5283 
 482   0.0000       3.403277        92.6079 
 483   0.0000       3.409682        92.7822 
 484   0.0000       3.417472        92.9941 
 485   0.0000       3.419522        93.0499 
 486   0.0000       3.428283        93.2883 
 487   0.0000       3.431867        93.3859 
 488   0.0000       3.440251        93.6140 
 489   0.0000       3.442398        93.6724 
 490   0.0000       3.449752        93.8725 
 491   0.0000       3.455880        94.0393 
 492   0.0000       3.458962        94.1231 
 493   0.0000       3.463108        94.2359 
 494   0.0000       3.472188        94.4830 
 495   0.0000       3.478714        94.6606 
 496   0.0000       3.486599        94.8752 
 497   0.0000       3.495766        95.1246 
 498   0.0000       3.498426        95.1970 
 499   0.0000       3.511803        95.5610 
 500   0.0000       3.516157        95.6795 
 501   0.0000       3.520884        95.8081 
 502   0.0000       3.522862        95.8620 
 503   0.0000       3.531237        96.0899 
 504   0.0000       3.536839        96.2423 
 505   0.0000       3.543823        96.4323 
 506   0.0000       3.558669        96.8363 
 507   0.0000       3.573834        97.2490 
 508   0.0000       3.580568        97.4322 
 509   0.0000       3.590699        97.7079 
 510   0.0000       3.599706        97.9530 
 511   0.0000       3.604544        98.0846 
 512   0.0000       3.606634        98.1415 
 513   0.0000       3.615051        98.3706 
 514   0.0000       3.620638        98.5226 
 515   0.0000       3.627330        98.7047 
 516   0.0000       3.629310        98.7585 
 517   0.0000       3.631978        98.8311 
 518   0.0000       3.642844        99.1268 
 519   0.0000       3.646359        99.2225 
 520   0.0000       3.653011        99.4035 
 521   0.0000       3.664179        99.7074 
 522   0.0000       3.665830        99.7523 
 523   0.0000       3.673782        99.9687 
 524   0.0000       3.678371       100.0936 
 525   0.0000       3.688994       100.3826 
 526   0.0000       3.694799       100.5406 
 527   0.0000       3.697726       100.6202 
 528   0.0000       3.704640       100.8084 
 529   0.0000       3.713816       101.0581 
 530   0.0000       3.721536       101.2682 
 531   0.0000       3.732511       101.5668 
 532   0.0000       3.733219       101.5861 
 533   0.0000       3.742841       101.8479 
 534   0.0000       3.749001       102.0155 
 535   0.0000       3.755222       102.1848 
 536   0.0000       3.758110       102.2634 
 537   0.0000       3.763466       102.4091 
 538   0.0000       3.771141       102.6180 
 539   0.0000       3.774806       102.7177 
 540   0.0000       3.783820       102.9630 
 541   0.0000       3.788126       103.0802 
 542   0.0000       3.795743       103.2874 
 543   0.0000       3.805646       103.5569 
 544   0.0000       3.810455       103.6877 
 545   0.0000       3.819474       103.9332 
 546   0.0000       3.821837       103.9975 
 547   0.0000       3.834567       104.3439 
 548   0.0000       3.837565       104.4255 
 549   0.0000       3.849426       104.7482 
 550   0.0000       3.856209       104.9328 
 551   0.0000       3.864872       105.1685 
 552   0.0000       3.875508       105.4579 
 553   0.0000       3.877896       105.5229 
 554   0.0000       3.888613       105.8145 
 555   0.0000       3.904669       106.2515 
 556   0.0000       3.909704       106.3884 
 557   0.0000       3.921484       106.7090 
 558   0.0000       3.924236       106.7839 
 559   0.0000       3.929353       106.9231 
 560   0.0000       3.939844       107.2086 
 561   0.0000       3.947591       107.4194 
 562   0.0000       3.954483       107.6069 
 563   0.0000       3.974166       108.1426 
 564   0.0000       3.978501       108.2605 
 565   0.0000       3.988330       108.5280 
 566   0.0000       4.003625       108.9442 
 567   0.0000       4.009867       109.1140 
 568   0.0000       4.020331       109.3988 
 569   0.0000       4.030634       109.6791 
 570   0.0000       4.034309       109.7791 
 571   0.0000       4.043093       110.0181 
 572   0.0000       4.057600       110.4129 
 573   0.0000       4.064115       110.5902 
 574   0.0000       4.068746       110.7162 
 575   0.0000       4.077767       110.9617 
 576   0.0000       4.082210       111.0826 
 577   0.0000       4.095068       111.4325 
 578   0.0000       4.096296       111.4659 
 579   0.0000       4.110486       111.8520 
 580   0.0000       4.116447       112.0142 
 581   0.0000       4.124276       112.2272 
 582   0.0000       4.127978       112.3280 
 583   0.0000       4.139339       112.6371 
 584   0.0000       4.144332       112.7730 
 585   0.0000       4.152564       112.9970 
 586   0.0000       4.156004       113.0906 
 587   0.0000       4.164304       113.3165 
 588   0.0000       4.167012       113.3902 
 589   0.0000       4.176408       113.6458 
 590   0.0000       4.177328       113.6709 
 591   0.0000       4.193375       114.1075 
 592   0.0000       4.196210       114.1847 
 593   0.0000       4.200010       114.2881 
 594   0.0000       4.209207       114.5383 
 595   0.0000       4.223484       114.9268 
 596   0.0000       4.236178       115.2723 
 597   0.0000       4.239319       115.3577 
 598   0.0000       4.249303       115.6294 
 599   0.0000       4.253505       115.7438 
 600   0.0000       4.265230       116.0628 
 601   0.0000       4.271147       116.2238 
 602   0.0000       4.272841       116.2699 
 603   0.0000       4.288029       116.6832 
 604   0.0000       4.292953       116.8172 
 605   0.0000       4.303202       117.0961 
 606   0.0000       4.309375       117.2641 
 607   0.0000       4.314957       117.4159 
 608   0.0000       4.320195       117.5585 
 609   0.0000       4.335512       117.9753 
 610   0.0000       4.342610       118.1684 
 611   0.0000       4.350865       118.3931 
 612   0.0000       4.357468       118.5727 
 613   0.0000       4.371845       118.9640 
 614   0.0000       4.380786       119.2072 
 615   0.0000       4.387778       119.3975 
 616   0.0000       4.396627       119.6383 
 617   0.0000       4.399821       119.7252 
 618   0.0000       4.406450       119.9056 
 619   0.0000       4.408468       119.9605 
 620   0.0000       4.412862       120.0801 
 621   0.0000       4.420339       120.2835 
 622   0.0000       4.426207       120.4432 
 623   0.0000       4.448248       121.0430 
 624   0.0000       4.450312       121.0991 
 625   0.0000       4.456521       121.2681 
 626   0.0000       4.459909       121.3603 
 627   0.0000       4.479573       121.8954 
 628   0.0000       4.486664       122.0883 
 629   0.0000       4.498460       122.4093 
 630   0.0000       4.506240       122.6210 
 631   0.0000       4.509946       122.7219 
 632   0.0000       4.520267       123.0027 
 633   0.0000       4.528705       123.2323 
 634   0.0000       4.536853       123.4541 
 635   0.0000       4.547260       123.7372 
 636   0.0000       4.553503       123.9071 
 637   0.0000       4.559345       124.0661 
 638   0.0000       4.570073       124.3580 
 639   0.0000       4.579795       124.6226 
 640   0.0000       4.593527       124.9962 
 641   0.0000       4.600643       125.1899 
 642   0.0000       4.613131       125.5297 
 643   0.0000       4.617087       125.6373 
 644   0.0000       4.626815       125.9020 
 645   0.0000       4.630960       126.0148 
 646   0.0000       4.634717       126.1171 
 647   0.0000       4.640566       126.2762 
 648   0.0000       4.646931       126.4494 
 649   0.0000       4.659812       126.7999 
 650   0.0000       4.669829       127.0725 
 651   0.0000       4.678536       127.3094 
 652   0.0000       4.682897       127.4281 
 653   0.0000       4.690369       127.6314 
 654   0.0000       4.696817       127.8069 
 655   0.0000       4.708122       128.1145 
 656   0.0000       4.718332       128.3923 
 657   0.0000       4.736736       128.8931 
 658   0.0000       4.739722       128.9744 
 659   0.0000       4.750699       129.2731 
 660   0.0000       4.770159       129.8026 
 661   0.0000       4.781871       130.1213 
 662   0.0000       4.793314       130.4327 
 663   0.0000       4.802284       130.6768 
 664   0.0000       4.828277       131.3841 
 665   0.0000       4.841574       131.7459 
 666   0.0000       4.856509       132.1523 
 667   0.0000       4.862657       132.3196 
 668   0.0000       4.894031       133.1734 
 669   0.0000       4.898536       133.2960 
 670   0.0000       4.910025       133.6086 
 671   0.0000       4.919276       133.8603 
 672   0.0000       4.930120       134.1554 
 673   0.0000       4.955073       134.8344 
 674   0.0000       4.978241       135.4648 
 675   0.0000       5.001168       136.0887 
 676   0.0000       5.014062       136.4396 
 677   0.0000       5.015990       136.4920 
 678   0.0000       5.028346       136.8283 
 679   0.0000       5.046784       137.3300 
 680   0.0000       5.057329       137.6169 
 681   0.0000       5.059981       137.6891 
 682   0.0000       5.066490       137.8662 
 683   0.0000       5.085480       138.3830 
 684   0.0000       5.097455       138.7088 
 685   0.0000       5.115321       139.1950 
 686   0.0000       5.126280       139.4932 
 687   0.0000       5.135745       139.7507 
 688   0.0000       5.147607       140.0735 
 689   0.0000       5.153113       140.2233 
 690   0.0000       5.172332       140.7463 
 691   0.0000       5.175030       140.8197 
 692   0.0000       5.177865       140.8969 
 693   0.0000       5.196398       141.4012 
 694   0.0000       5.210214       141.7771 
 695   0.0000       5.222650       142.1155 
 696   0.0000       5.224034       142.1532 
 697   0.0000       5.225030       142.1803 
 698   0.0000       5.233096       142.3998 
 699   0.0000       5.245472       142.7366 
 700   0.0000       5.261513       143.1730 
 701   0.0000       5.274541       143.5276 
 702   0.0000       5.294642       144.0745 
 703   0.0000       5.323061       144.8479 
 704   0.0000       5.327050       144.9564 
 705   0.0000       5.334891       145.1698 
 706   0.0000       5.339964       145.3078 
 707   0.0000       5.348627       145.5435 
 708   0.0000       5.370024       146.1258 
 709   0.0000       5.377876       146.3394 
 710   0.0000       5.387353       146.5973 
 711   0.0000       5.396406       146.8437 
 712   0.0000       5.445901       148.1905 
 713   0.0000       5.468511       148.8057 
 714   0.0000       5.471882       148.8975 
 715   0.0000       5.485490       149.2678 
 716   0.0000       5.490729       149.4103 
 717   0.0000       5.511152       149.9661 
 718   0.0000       5.518754       150.1729 
 719   0.0000       5.531635       150.5234 
 720   0.0000       5.535064       150.6167 
 721   0.0000       5.547702       150.9606 
 722   0.0000       5.561069       151.3244 
 723   0.0000       5.571947       151.6204 
 724   0.0000       5.575482       151.7166 
 725   0.0000       5.590967       152.1379 
 726   0.0000       5.626021       153.0918 
 727   0.0000       5.634362       153.3188 
 728   0.0000       5.640793       153.4938 
 729   0.0000       5.652478       153.8118 
 730   0.0000       5.662852       154.0940 
 731   0.0000       5.667107       154.2098 
 732   0.0000       5.678040       154.5073 
 733   0.0000       5.684004       154.6696 
 734   0.0000       5.690803       154.8546 
 735   0.0000       5.707122       155.2987 
 736   0.0000       5.724242       155.7645 
 737   0.0000       5.733943       156.0285 
 738   0.0000       5.745750       156.3498 
 739   0.0000       5.750183       156.4704 
 740   0.0000       5.765219       156.8796 
 741   0.0000       5.775835       157.1685 
 742   0.0000       5.790382       157.5643 
 743   0.0000       5.798633       157.7888 
 744   0.0000       5.818301       158.3240 
 745   0.0000       5.838319       158.8687 
 746   0.0000       5.860301       159.4669 
 747   0.0000       5.876150       159.8982 
 748   0.0000       5.903033       160.6297 
 749   0.0000       5.912494       160.8871 
 750   0.0000       5.933998       161.4723 
 751   0.0000       5.963863       162.2850 
 752   0.0000       5.964980       162.3154 
 753   0.0000       5.972001       162.5064 
 754   0.0000       6.000881       163.2923 
 755   0.0000       6.005781       163.4256 
 756   0.0000       6.039100       164.3323 
 757   0.0000       6.055732       164.7848 
 758   0.0000       6.068594       165.1348 
 759   0.0000       6.074028       165.2827 
 760   0.0000       6.105055       166.1270 
 761   0.0000       6.177791       168.1062 
 762   0.0000       6.225650       169.4086 
 763   0.0000       6.238384       169.7551 
 764   0.0000       6.249485       170.0571 
 765   0.0000       6.290192       171.1648 
 766   0.0000       6.303119       171.5166 
 767   0.0000       6.332178       172.3073 
 768   0.0000       6.345853       172.6794 
 769   0.0000       6.364216       173.1791 
 770   0.0000       6.386997       173.7990 
 771   0.0000       6.396725       174.0637 
 772   0.0000       6.400889       174.1771 
 773   0.0000       6.439498       175.2276 
 774   0.0000       6.456996       175.7038 
 775   0.0000       6.471854       176.1081 
 776   0.0000       6.501051       176.9026 
 777   0.0000       6.524008       177.5273 
 778   0.0000       6.554595       178.3596 
 779   0.0000       6.624264       180.2554 
 780   0.0000       6.677981       181.7171 
 781   0.0000       6.699180       182.2939 
 782   0.0000       6.718224       182.8122 
 783   0.0000       6.778403       184.4497 
 784   0.0000       6.809105       185.2852 
 785   0.0000       6.851686       186.4438 
 786   0.0000       6.908374       187.9864 
 787   0.0000       6.920010       188.3031 
 788   0.0000       6.966418       189.5659 
 789   0.0000       6.980197       189.9408 
 790   0.0000       7.053770       191.9428 
 791   0.0000       7.070117       192.3877 
 792   0.0000       7.080946       192.6823 
 793   0.0000       7.139179       194.2669 
 794   0.0000       7.208332       196.1487 
 795   0.0000       7.256532       197.4603 
 796   0.0000       7.270015       197.8272 
 797   0.0000       7.280067       198.1007 
 798   0.0000       7.342212       199.7917 
 799   0.0000       7.356448       200.1791 
 800   0.0000       7.397108       201.2856 
 801   0.0000       7.506234       204.2550 
 802   0.0000       7.552644       205.5179 
 803   0.0000       7.575796       206.1479 
 804   0.0000       7.584746       206.3914 
 805   0.0000       7.772897       211.5113 
 806   0.0000       7.821076       212.8223 
 807   0.0000       7.931089       215.8159 
 808   0.0000       8.024701       218.3632 
 809   0.0000       9.411886       256.1104 
 810   0.0000       9.714367       264.3414 
 811   0.0000      10.833109       294.7839 
 812   0.0000      11.249957       306.1269 
 813   0.0000      12.158314       330.8445 
 814   0.0000      12.586105       342.4853 
 815   0.0000      12.944419       352.2356 
 816   0.0000      13.097023       356.3881 
 817   0.0000      13.264947       360.9576 
 818   0.0000      13.409090       364.8799 
 819   0.0000      13.470842       366.5602 
 820   0.0000      13.624580       370.7437 
 821   0.0000      13.841878       376.6566 
 822   0.0000      13.971549       380.1852 
 823   0.0000      14.035563       381.9271 
 824   0.0000      14.278982       388.5508 
 825   0.0000      14.538511       395.6130 
 826   0.0000      14.750653       401.3857 
 827   0.0000      16.000090       435.3846 

                    ********************************
                    * MULLIKEN POPULATION ANALYSIS *
                    ********************************

-----------------------
MULLIKEN ATOMIC CHARGES
-----------------------
   0 C :   -0.260856
   1 C :    0.002449
   2 O :   -0.304077
   3 C :    0.389564
   4 O :   -0.379743
   5 C :   -0.172183
   6 C :    0.128062
   7 C :   -0.327644
   8 N :   -0.135832
   9 C :    0.205149
  10 S :   -0.441680
  11 N :   -0.215158
  12 C :    0.068965
  13 C :    0.034924
  14 C :   -0.191105
  15 C :   -0.127157
  16 C :   -0.281426
  17 C :    0.314566
  18 O :   -0.359795
  19 C :   -0.286477
  20 H :    0.109584
  21 H :    0.105193
  22 H :    0.088681
  23 H :    0.102842
  24 H :    0.103010
  25 H :    0.124164
  26 H :    0.138686
  27 H :    0.123142
  28 H :    0.195798
  29 H :    0.198739
  30 H :    0.164918
  31 H :    0.165489
  32 H :    0.163624
  33 H :    0.133112
  34 H :    0.242005
  35 H :    0.180466
Sum of atomic charges:   -0.0000000

--------------------------------
MULLIKEN REDUCED ORBITAL CHARGES
--------------------------------
  0 C s       :     3.261046  s :     3.261046
      pz      :     1.021943  p :     2.923300
      px      :     0.952938
      py      :     0.948419
      dz2     :     0.010769  d :     0.072031
      dxz     :     0.007672
      dyz     :     0.028068
      dx2y2   :     0.008673
      dxy     :     0.016848
      f0      :     0.000292  f :     0.004479
      f+1     :     0.000382
      f-1     :     0.001092
      f+2     :     0.000383
      f-2     :     0.000956
      f+3     :     0.000762
      f-3     :     0.000612
  1 C s       :     3.173053  s :     3.173053
      pz      :     0.983429  p :     2.650178
      px      :     0.691144
      py      :     0.975606
      dz2     :     0.019734  d :     0.162499
      dxz     :     0.033089
      dyz     :     0.035212
      dx2y2   :     0.037208
      dxy     :     0.037254
      f0      :     0.001154  f :     0.011821
      f+1     :     0.001488
      f-1     :     0.001533
      f+2     :     0.001136
      f-2     :     0.001744
      f+3     :     0.002652
      f-3     :     0.002115
  2 O s       :     3.724311  s :     3.724311
      pz      :     1.770897  p :     4.542959
      px      :     1.163724
      py      :     1.608338
      dz2     :     0.004115  d :     0.034513
      dxz     :     0.005477
      dyz     :     0.003240
      dx2y2   :     0.004683
      dxy     :     0.016998
      f0      :     0.000251  f :     0.002294
      f+1     :     0.000479
      f-1     :     0.000136
      f+2     :     0.000162
      f-2     :     0.000212
      f+3     :     0.000412
      f-3     :     0.000643
  3 C s       :     3.096798  s :     3.096798
      pz      :     0.669957  p :     2.199044
      px      :     0.704364
      py      :     0.824723
      dz2     :     0.019160  d :     0.288674
      dxz     :     0.083205
      dyz     :     0.022965
      dx2y2   :     0.093674
      dxy     :     0.069671
      f0      :     0.002729  f :     0.025920
      f+1     :     0.001367
      f-1     :     0.001714
      f+2     :     0.002022
      f-2     :     0.004881
      f+3     :     0.008652
      f-3     :     0.004555
  4 O s       :     3.766816  s :     3.766816
      pz      :     1.453262  p :     4.574374
      px      :     1.494010
      py      :     1.627102
      dz2     :     0.003784  d :     0.036059
      dxz     :     0.008648
      dyz     :     0.003727
      dx2y2   :     0.008495
      dxy     :     0.011405
      f0      :     0.000205  f :     0.002493
      f+1     :     0.000277
      f-1     :     0.000110
      f+2     :     0.000114
      f-2     :     0.000428
      f+3     :     0.000566
      f-3     :     0.000793
  5 C s       :     3.181098  s :     3.181098
      pz      :     0.935613  p :     2.890038
      px      :     1.067882
      py      :     0.886544
      dz2     :     0.017512  d :     0.090163
      dxz     :     0.012093
      dyz     :     0.027871
      dx2y2   :     0.015313
      dxy     :     0.017374
      f0      :     0.001225  f :     0.010884
      f+1     :     0.001281
      f-1     :     0.001863
      f+2     :     0.002071
      f-2     :     0.001097
      f+3     :     0.001367
      f-3     :     0.001981
  6 C s       :     3.190068  s :     3.190068
      pz      :     0.877016  p :     2.496051
      px      :     0.863862
      py      :     0.755172
      dz2     :     0.032182  d :     0.171573
      dxz     :     0.020347
      dyz     :     0.045068
      dx2y2   :     0.030401
      dxy     :     0.043574
      f0      :     0.001626  f :     0.014246
      f+1     :     0.001198
      f-1     :     0.003094
      f+2     :     0.002488
      f-2     :     0.002210
      f+3     :     0.001756
      f-3     :     0.001874
  7 C s       :     3.297814  s :     3.297814
      pz      :     0.894105  p :     2.951802
      px      :     0.998249
      py      :     1.059448
      dz2     :     0.016232  d :     0.073365
      dxz     :     0.012722
      dyz     :     0.018150
      dx2y2   :     0.016907
      dxy     :     0.009353
      f0      :     0.000851  f :     0.004663
      f+1     :     0.001056
      f-1     :     0.000704
      f+2     :     0.000822
      f-2     :     0.000327
      f+3     :     0.000701
      f-3     :     0.000202
  8 N s       :     3.349123  s :     3.349123
      pz      :     1.130877  p :     3.722922
      px      :     1.497440
      py      :     1.094606
      dz2     :     0.014797  d :     0.058816
      dxz     :     0.009138
      dyz     :     0.017419
      dx2y2   :     0.007762
      dxy     :     0.009700
      f0      :     0.000768  f :     0.004970
      f+1     :     0.000945
      f-1     :     0.000846
      f+2     :     0.000867
      f-2     :     0.000691
      f+3     :     0.000454
      f-3     :     0.000399
  9 C s       :     3.165059  s :     3.165059
      pz      :     0.778519  p :     2.350245
      px      :     0.689182
      py      :     0.882543
      dz2     :     0.067740  d :     0.261967
      dxz     :     0.037020
      dyz     :     0.053075
      dx2y2   :     0.043655
      dxy     :     0.060475
      f0      :     0.003268  f :     0.017581
      f+1     :     0.002039
      f-1     :     0.003039
      f+2     :     0.002640
      f-2     :     0.002014
      f+3     :     0.002136
      f-3     :     0.002445
 10 S s       :     5.854832  s :     5.854832
      pz      :     3.575557  p :    10.492114
      px      :     3.693778
      py      :     3.222779
      dz2     :     0.006990  d :     0.084598
      dxz     :     0.005073
      dyz     :     0.038244
      dx2y2   :     0.021342
      dxy     :     0.012948
      f0      :     0.001293  f :     0.010137
      f+1     :     0.000049
      f-1     :     0.001684
      f+2     :     0.003409
      f-2     :     0.001155
      f+3     :     0.001127
      f-3     :     0.001420
 11 N s       :     3.382105  s :     3.382105
      pz      :     1.211778  p :     3.771450
      px      :     1.513581
      py      :     1.046091
      dz2     :     0.012057  d :     0.057168
      dxz     :     0.005582
      dyz     :     0.015657
      dx2y2   :     0.011563
      dxy     :     0.012309
      f0      :     0.000382  f :     0.004434
      f+1     :     0.000508
      f-1     :     0.000571
      f+2     :     0.000748
      f-2     :     0.000591
      f+3     :     0.000800
      f-3     :     0.000834
 12 C s       :     3.110980  s :     3.110980
      pz      :     0.834832  p :     2.624878
      px      :     1.013847
      py      :     0.776200
      dz2     :     0.039561  d :     0.183971
      dxz     :     0.026534
      dyz     :     0.037844
      dx2y2   :     0.038071
      dxy     :     0.041960
      f0      :     0.001426  f :     0.011205
      f+1     :     0.001272
      f-1     :     0.001878
      f+2     :     0.001957
      f-2     :     0.001613
      f+3     :     0.001578
      f-3     :     0.001481
 13 C s       :     3.105171  s :     3.105171
      pz      :     0.917874  p :     2.741960
      px      :     0.892849
      py      :     0.931237
      dz2     :     0.015518  d :     0.106743
      dxz     :     0.013362
      dyz     :     0.028190
      dx2y2   :     0.021208
      dxy     :     0.028465
      f0      :     0.001136  f :     0.011202
      f+1     :     0.001511
      f-1     :     0.001047
[...]
      f-1     :     0.004805
      f+2     :     0.006621
      f-2     :     0.005321
      f+3     :     0.007336
      f-3     :     0.010042
 15 C s       :     2.705756  s :     2.705756
      pz      :     0.874050  p :     2.791314
      px      :     0.949029
      py      :     0.968235
      dz2     :     0.078318  d :     0.415625
      dxz     :     0.071185
      dyz     :     0.048873
      dx2y2   :     0.116045
      dxy     :     0.101203
      f0      :     0.002624  f :     0.041059
      f+1     :     0.004770
      f-1     :     0.005362
      f+2     :     0.006739
      f-2     :     0.006204
      f+3     :     0.007697
      f-3     :     0.007664
 16 C s       :     2.701802  s :     2.701802
      pz      :     0.929005  p :     2.867614
      px      :     0.968687
      py      :     0.969921
      dz2     :     0.036837  d :     0.390595
      dxz     :     0.058074
      dyz     :     0.076763
      dx2y2   :     0.099111
      dxy     :     0.119810
      f0      :     0.003979  f :     0.040328
      f+1     :     0.004369
      f-1     :     0.003108
      f+2     :     0.006011
      f-2     :     0.005139
      f+3     :     0.008911
      f-3     :     0.008810
 17 C s       :     2.701543  s :     2.701543
      pz      :     0.836698  p :     2.683403
      px      :     0.821831
      py      :     1.024874
      dz2     :     0.109281  d :     0.709505
      dxz     :     0.115683
      dyz     :     0.123151
      dx2y2   :     0.180130
      dxy     :     0.181260
      f0      :     0.007646  f :     0.099382
      f+1     :     0.015963
      f-1     :     0.007493
      f+2     :     0.015311
      f-2     :     0.013904
      f+3     :     0.017737
      f-3     :     0.021328
 18 O s       :     3.177218  s :     3.177218
      pz      :     1.483163  p :     4.347364
      px      :     1.375886
      py      :     1.488315
      dz2     :     0.007127  d :     0.075568
      dxz     :     0.017130
      dyz     :     0.014386
      dx2y2   :     0.018994
      dxy     :     0.017930
      f0      :     0.000551  f :     0.005074
      f+1     :     0.000765
      f-1     :     0.000269
      f+2     :     0.000683
      f-2     :     0.000821
      f+3     :     0.000888
      f-3     :     0.001098
 19 C s       :     2.695536  s :     2.695536
      pz      :     0.921790  p :     2.848274
      px      :     0.960569
      py      :     0.965915
      dz2     :     0.063759  d :     0.388342
      dxz     :     0.066577
      dyz     :     0.050645
      dx2y2   :     0.102281
      dxy     :     0.105080
      f0      :     0.002846  f :     0.040767
      f+1     :     0.004644
      f-1     :     0.004836
      f+2     :     0.006780
      f-2     :     0.006654
      f+3     :     0.007838
      f-3     :     0.007169
 20 H s       :     0.843788  s :     0.843788
      pz      :     0.061714  p :     0.150748
      px      :     0.042035
      py      :     0.046998
      dz2     :     0.008331  d :     0.027486
      dxz     :     0.005546
      dyz     :     0.007158
      dx2y2   :     0.003108
      dxy     :     0.003344
 21 H s       :     0.847693  s :     0.847693
      pz      :     0.057555  p :     0.150848
      px      :     0.038496
      py      :     0.054798
      dz2     :     0.007571  d :     0.027462
      dxz     :     0.005024
      dyz     :     0.006999
      dx2y2   :     0.003433
      dxy     :     0.004434
 22 H s       :     0.846949  s :     0.846949
      pz      :     0.042236  p :     0.150894
      px      :     0.066727
      py      :     0.041931
      dz2     :     0.002792  d :     0.027419
      dxz     :     0.007695
      dyz     :     0.002063
      dx2y2   :     0.007283
      dxy     :     0.007586
 23 H s       :     0.863292  s :     0.863292
      pz      :     0.063013  p :     0.147327
      px      :     0.034922
      py      :     0.049393
      dz2     :     0.007146  d :     0.026975
      dxz     :     0.005793
      dyz     :     0.007739
      dx2y2   :     0.003336
      dxy     :     0.002961
 24 H s       :     0.852678  s :     0.852678
      pz      :     0.067649  p :     0.157378
      px      :     0.030299
      py      :     0.059429
      dz2     :     0.008909  d :     0.027944
      dxz     :     0.003840
      dyz     :     0.008163
      dx2y2   :     0.003511
      dxy     :     0.003521
 25 H s       :     0.832769  s :     0.832769
      pz      :     0.050433  p :     0.148697
      px      :     0.039278
      py      :     0.058986
      dz2     :     0.006698  d :     0.027545
      dxz     :     0.003669
      dyz     :     0.006952
      dx2y2   :     0.004912
      dxy     :     0.005313
 26 H s       :     0.831738  s :     0.831738
      pz      :     0.042988  p :     0.150396
      px      :     0.045388
      py      :     0.062019
      dz2     :     0.004340  d :     0.027610
      dxz     :     0.002914
      dyz     :     0.006834
      dx2y2   :     0.007725
      dxy     :     0.005797
 27 H s       :     0.836614  s :     0.836614
      pz      :     0.037217  p :     0.152397
      px      :     0.073402
      py      :     0.041778
      dz2     :     0.002342  d :     0.027660
      dxz     :     0.008384
      dyz     :     0.000576
      dx2y2   :     0.007120
      dxy     :     0.009237
 28 H s       :     0.742994  s :     0.742994
      pz      :     0.056341  p :     0.253722
      px      :     0.091586
      py      :     0.105795
      dz2     :     0.007570  d :     0.061641
      dxz     :     0.003849
      dyz     :     0.015555
      dx2y2   :     0.016426
      dxy     :     0.018242
 29 H s       :     0.747676  s :     0.747676
      pz      :     0.117921  p :     0.254590
      px      :     0.092562
      py      :     0.044107
      dz2     :     0.022299  d :     0.061380
      dxz     :     0.018699
      dyz     :     0.012893
      dx2y2   :     0.004494
      dxy     :     0.002994
 30 H s       :     0.825461  s :     0.825461
      pz      :     0.036808  p :     0.148449
      px      :     0.075010
      py      :     0.036631
      dz2     :     0.002690  d :     0.028311
      dxz     :     0.008151
      dyz     :     0.001508
      dx2y2   :     0.008230
      dxy     :     0.007732
 31 H s       :     0.837926  s :     0.837926
      pz      :     0.052585  p :     0.156560
      px      :     0.068765
      py      :     0.035211
      dz2     :     0.004654  d :     0.027396
      dxz     :     0.007163
      dyz     :     0.002667
      dx2y2   :     0.006270
      dxy     :     0.006642
 32 H s       :     0.841144  s :     0.841144
      pz      :     0.037323  p :     0.150820
      px      :     0.039435
      py      :     0.074062
      dz2     :     0.002585  d :     0.026423
      dxz     :     0.000909
      dyz     :     0.006887
      dx2y2   :     0.007976
      dxy     :     0.008066
 33 H s       :     0.848013  s :     0.848013
      pz      :     0.055571  p :     0.159020
      px      :     0.048460
      py      :     0.054988
      dz2     :     0.005239  d :     0.027752
      dxz     :     0.004318
      dyz     :     0.005802
      dx2y2   :     0.006510
      dxy     :     0.005882
 34 H s       :     0.705968  s :     0.705968
      pz      :     0.112706  p :     0.347406
      px      :     0.082197
      py      :     0.152503
      dz2     :     0.021240  d :     0.099478
      dxz     :     0.010042
      dyz     :     0.024744
      dx2y2   :     0.022567
      dxy     :     0.020887
 35 H s       :     0.838036  s :     0.838036
      pz      :     0.042517  p :     0.158929
      px      :     0.041100
      py      :     0.075312
      dz2     :     0.002563  d :     0.028098
      dxz     :     0.001169
      dyz     :     0.007704
      dx2y2   :     0.008202
      dxy     :     0.008460


                      *****************************
                      * MAYER POPULATION ANALYSIS *
                      *****************************

  NA   - Mulliken gross atomic population
  ZA   - Total nuclear charge
  QA   - Mulliken gross atomic charge
  VA   - Mayer's total valence
  BVA  - Mayer's bonded valence
  FA   - Mayer's free valence

  ATOM       NA         ZA         QA         VA         BVA        FA
  0 C      6.2609     6.0000    -0.2609     3.9051     3.9051    -0.0000
  1 C      5.9976     6.0000     0.0024     3.8596     3.8596     0.0000
  2 O      8.3041     8.0000    -0.3041     2.0621     2.0621     0.0000
  3 C      5.6104     6.0000     0.3896     4.2388     4.2388    -0.0000
  4 O      8.3797     8.0000    -0.3797     2.1295     2.1295    -0.0000
  5 C      6.1722     6.0000    -0.1722     3.5684     3.5684    -0.0000
  6 C      5.8719     6.0000     0.1281     3.7872     3.7872    -0.0000
  7 C      6.3276     6.0000    -0.3276     3.8737     3.8737    -0.0000
  8 N      7.1358     7.0000    -0.1358     3.2569     3.2569     0.0000
  9 C      5.7949     6.0000     0.2051     4.1466     4.1466     0.0000
 10 S     16.4417    16.0000    -0.4417     1.7512     1.7512    -0.0000
 11 N      7.2152     7.0000    -0.2152     3.2536     3.2536    -0.0000
 12 C      5.9310     6.0000     0.0690     3.9557     3.9557    -0.0000
 13 C      5.9651     6.0000     0.0349     3.7156     3.7156    -0.0000
 14 C      6.1911     6.0000    -0.1911     3.8853     3.8853    -0.0000
 15 C      6.1272     6.0000    -0.1272     3.8104     3.8104    -0.0000
 16 C      6.2814     6.0000    -0.2814     3.7905     3.7905    -0.0000
 17 C      5.6854     6.0000     0.3146     3.8603     3.8603    -0.0000
 18 O      8.3598     8.0000    -0.3598     2.1138     2.1138    -0.0000
 19 C      6.2865     6.0000    -0.2865     3.8240     3.8240     0.0000
 20 H      0.8904     1.0000     0.1096     0.9828     0.9828     0.0000
 21 H      0.8948     1.0000     0.1052     0.9848     0.9848    -0.0000
 22 H      0.9113     1.0000     0.0887     0.9818     0.9818    -0.0000
 23 H      0.8972     1.0000     0.1028     0.9699     0.9699    -0.0000
 24 H      0.8970     1.0000     0.1030     0.9618     0.9618     0.0000
 25 H      0.8758     1.0000     0.1242     0.9822     0.9822    -0.0000
 26 H      0.8613     1.0000     0.1387     0.9786     0.9786     0.0000
 27 H      0.8769     1.0000     0.1231     0.9702     0.9702    -0.0000
 28 H      0.8042     1.0000     0.1958     1.0223     1.0223    -0.0000
 29 H      0.8013     1.0000     0.1987     1.0157     1.0157    -0.0000
 30 H      0.8351     1.0000     0.1649     0.9914     0.9914    -0.0000
 31 H      0.8345     1.0000     0.1655     0.9881     0.9881     0.0000
 32 H      0.8364     1.0000     0.1636     0.9768     0.9768     0.0000
 33 H      0.8669     1.0000     0.1331     0.9909     0.9909    -0.0000
 34 H      0.7580     1.0000     0.2420     1.0097     1.0097    -0.0000
 35 H      0.8195     1.0000     0.1805     0.9827     0.9827     0.0000

  Mayer bond orders larger than 0.100000
B(  0-C ,  1-C ) :   0.9831 B(  0-C , 20-H ) :   0.9742 B(  0-C , 21-H ) :   0.9803 
B(  0-C , 22-H ) :   0.9764 B(  1-C ,  2-O ) :   0.9153 B(  1-C , 23-H ) :   0.9748 
B(  1-C , 24-H ) :   0.9589 B(  2-O ,  3-C ) :   1.1725 B(  3-C ,  4-O ) :   2.0931 
B(  3-C ,  5-C ) :   0.9198 B(  5-C ,  6-C ) :   1.6933 B(  5-C , 12-C ) :   0.9627 
B(  6-C ,  7-C ) :   0.9415 B(  6-C ,  8-N ) :   1.1124 B(  7-C , 25-H ) :   0.9821 
B(  7-C , 26-H ) :   0.9705 B(  7-C , 27-H ) :   0.9659 B(  8-N ,  9-C ) :   1.1968 
B(  8-N , 28-H ) :   0.9528 B(  9-C , 10-S ) :   1.6107 B(  9-C , 11-N ) :   1.2862 
B( 11-N , 12-C ) :   0.9976 B( 11-N , 29-H ) :   0.9487 B( 12-C , 13-C ) :   0.9438 
B( 12-C , 30-H ) :   0.9971 B( 13-C , 14-C ) :   1.3877 B( 13-C , 19-C ) :   1.3397 
B( 14-C , 15-C ) :   1.3975 B( 14-C , 31-H ) :   0.9622 B( 15-C , 16-C ) :   1.3613 
B( 15-C , 32-H ) :   0.9702 B( 16-C , 17-C ) :   1.3297 B( 16-C , 33-H ) :   0.9846 
B( 17-C , 18-O ) :   1.1069 B( 17-C , 19-C ) :   1.3683 B( 18-O , 34-H ) :   0.9790 
B( 19-C , 35-H ) :   0.9556 

-------
TIMINGS
-------

Total SCF time: 0 days 1 hours 37 min 38 sec 

Total time                  ....    5858.771 sec
Sum of individual times     ....    5851.036 sec  ( 99.9%)

Fock matrix formation       ....    5828.551 sec  ( 99.5%)
Diagonalization             ....       5.413 sec  (  0.1%)
Density matrix formation    ....       0.203 sec  (  0.0%)
Population analysis         ....       0.621 sec  (  0.0%)
Initial guess               ....       5.004 sec  (  0.1%)
Orbital Transformation      ....       0.000 sec  (  0.0%)
Orbital Orthonormalization  ....       0.000 sec  (  0.0%)
DIIS solution               ....       5.026 sec  (  0.1%)
SOSCF solution              ....       5.075 sec  (  0.1%)

------------------------------------------------------------------------------
                                ORCA  MP2 
------------------------------------------------------------------------------

Freezing NCore=48 chemical core electrons

-------------
RI-MP2 ENERGY
-------------
Dimension of the basis                    ...  828
Memory devoted to MP2                     ...  256 MB   
Data format for buffers                   ... DOUBLE
Compression type for matrix containers    ... UNCOMPRESSED
Overall scaling of the MP2 energy         ...   1.000e+00
Calculating two index integrals           ... done (    0.033 sec)
Cholesky decomposition of V**-1           ... done (    1.589 sec)

-----------------
RI-TRANSFORMATION (AUX index driven)
-----------------

Dimension of the orbital-basis         ... 828
Dimension of the aux-basis             ... 2141
Transformation of internal/external MOs...   24-  76 to   77- 827
Number Format for Storage              ... Double (8 Byte)
Integral mode                          ... Direct

First Phase: integral generation and transformation of MO indices
  Aux angular momentum 0               ... done (    8.002 sec)
  Aux angular momentum 1               ... done (   17.651 sec)
  Aux angular momentum 2               ... done (   20.790 sec)
  Aux angular momentum 3               ... done (   17.601 sec)
  Aux angular momentum 4               ... done (    6.330 sec)
Closing buffer VIA ( 0.63 GB; CompressionRatio= 1.00)
  Phase 1 completed in    70.741 sec
Second Phase: sorting and transformation of aux index

IA-Transformation
Memory available                       ... 167 MB 
Max. # MO pairs treated in a batch     ... 12    
# of internal orbitals                 ... 53
# batches for internal orbitals        ... 5
Closing buffer IAV ( 0.63 GB; CompressionRatio= 1.00)
(ia|v) transformation done in    95.314 sec

  Phase 2 completed in    95.319 sec
RI-Integral transformation completed in   166.077 sec
Opening buffers                              ... done

Starting loop over batches of integrals:

Operator 0  - window                       ... ( 24- 76)x( 77-827)
Operator 0  - Memory available             ...   256 MB
Operator 0  - Memory needed per MO         ...  12.3 MB
Operator 0  - Number of orbitals per batch ... 13
Operator 0  - Number of batches            ... 5

OPERATOR  0   PASS   0:  MOs    24 ...   36
  Reading integrals       ... ok
  Internal MO  26
  Internal MO  29
  Internal MO  32
  Internal MO  35
OPERATOR  0   PASS   1:  MOs    37 ...   49
  Reading integrals       ... ok
  Internal MO  38
  Internal MO  41
  Internal MO  44
  Internal MO  47
OPERATOR  0   PASS   2:  MOs    50 ...   62
  Reading integrals       ... ok
  Internal MO  50
  Internal MO  53
  Internal MO  56
  Internal MO  59
  Internal MO  62
OPERATOR  0   PASS   3:  MOs    63 ...   75
  Reading integrals       ... ok
  Internal MO  65
  Internal MO  68
  Internal MO  71
  Internal MO  74
OPERATOR  0   PASS   4:  MOs    76 ...   76
  Reading integrals       ... ok
Time spent in pair loops =   465.228 sec
Deleting buffer (Ka|jb)[aa] ...done

-----------------------------------------------
 RI-MP2 CORRELATION ENERGY:     -3.541507864 Eh
-----------------------------------------------


-------
TIMINGS
-------

Total time                :  633.016 sec
Integral trafo            :  166.086 sec ( 26.2%)
I/O of integrals          :    7.833 sec (  1.2%)
K(i,j) Operators          :  397.269 sec ( 62.8%)
T(i,j) pair energies      :    3.945 sec (  0.6%)
V-calculation             :    0.033 sec (  0.0%)
V**(-1/2)                 :    1.589 sec (  0.3%)
Gamma(ia|P)               :    0.000 sec (  0.0%)
Gamma-Trafo               :    0.000 sec (  0.0%)
D(virtual)                :    0.000 sec (  0.0%)
D(internal)               :    0.000 sec (  0.0%)
W(virtual)                :    0.000 sec (  0.0%)
W(internal)               :    0.000 sec (  0.0%)
L(virtual)                :    0.000 sec (  0.0%)
L(internal)               :    0.000 sec (  0.0%)
G(D)                      :    0.000 sec (  0.0%)
G(Z)                      :    0.000 sec (  0.0%)
Z-Vector Solution         :    0.000 sec (  0.0%)
3-Index Derivative        :    0.000 sec (  0.0%)
2-Index Derivative        :    0.000 sec (  0.0%)
Separable Gradient        :    0.000 sec (  0.0%)


---------------------------------------
MP2 TOTAL ENERGY:    -1274.330662231 Eh
---------------------------------------

-------------------------   --------------------
FINAL SINGLE POINT ENERGY     -1274.330662231426
-------------------------   --------------------


                            ***************************************
                            *     ORCA property calculations      *
                            ***************************************


  WARNING: The energy has been calculated at the MP2 level but the densities
           used in the property calculations are still SCF densities
           MP2 response densities have not been calculated 
           use %mp2 Density relaxed end
           or  %mp2 Density unrelaxed end

                                    ---------------------
                                    Active property flags
                                    ---------------------
   (+) Dipole Moment


------------------------------------------------------------------------------
                       ORCA ELECTRIC PROPERTIES CALCULATION
------------------------------------------------------------------------------

Dipole Moment Calculation                       ... on
Quadrupole Moment Calculation                   ... off
Polarizability Calculation                      ... off
GBWName                                         ... CONFS/Conf80.orca.gbw
Electron density file                           ... CONFS/Conf80.orca.scfp
The origin for moment calculation is the CENTER OF MASS  = (32.827661, 31.414049 35.221862)

-------------
DIPOLE MOMENT
-------------
                                X             Y             Z
Electronic contribution:     10.51553       8.12042       6.28088
Nuclear contribution   :    -12.05675      -9.12535      -6.78292
                        -----------------------------------------
Total Dipole Moment    :     -1.54123      -1.00493      -0.50204
                        -----------------------------------------
Magnitude (a.u.)       :      1.90717
Magnitude (Debye)      :      4.84765



--------------------
Rotational spectrum 
--------------------
 
Rotational constants in cm-1:     0.012564     0.009004     0.006916 
Rotational constants in MHz :   376.656539   269.940229   207.329577 

 Dipole components along the rotational axes: 
x,y,z [a.u.] :    -1.349864    -0.642704     1.184104 
x,y,z [Debye]:    -3.431083    -1.633625     3.009753 

 

Timings for individual modules:

Sum of individual times         ...     6494.460 sec (= 108.241 min)
GTO integral calculation        ...        1.887 sec (=   0.031 min)   0.0 %
SCF iterations                  ...     5858.838 sec (=  97.647 min)  90.2 %
MP2 module                      ...      633.736 sec (=  10.562 min)   9.8 %
                             ****ORCA TERMINATED NORMALLY****
TOTAL RUN TIME: 0 days 1 hours 48 minutes 15 seconds 429 msec
