
                                 *****************
                                 * O   R   C   A *
                                 *****************

           --- An Ab Initio, DFT and Semiempirical electronic structure package ---

                  #######################################################
                  #                        -***-                        #
                  #          Department of theory and spectroscopy      #
                  #               Directorship: Frank Neese             #
                  #        Max Planck Institute fuer Kohlenforschung    #
                  #                Kaiser Wilhelm Platz 1               #
                  #                 D-45470 Muelheim/Ruhr               #
                  #                      Germany                        #
                  #                                                     #
                  #                  All rights reserved                #
                  #                        -***-                        #
                  #######################################################


                         Program Version 4.2.0 -  RELEASE  -


 With contributions from (in alphabetic order):
   Daniel Aravena         : Magnetic Suceptibility
   Michael Atanasov       : Ab Initio Ligand Field Theory (pilot matlab implementation)
   Alexander A. Auer      : GIAO ZORA, VPT2
   Ute Becker             : Parallelization
   Giovanni Bistoni       : ED, misc. LED, open-shell LED, HFLED
   Martin Brehm           : Molecular dynamics
   Dmytro Bykov           : SCF Hessian
   Vijay G. Chilkuri      : MRCI spin determinant printing, contributions to CSF-ICE
   Dipayan Datta          : RHF DLPNO-CCSD density
   Achintya Kumar Dutta   : EOM-CC, STEOM-CC
   Dmitry Ganyushin       : Spin-Orbit,Spin-Spin,Magnetic field MRCI
   Miquel Garcia          : C-PCM Hessian, Gaussian charge scheme
   Yang Guo               : DLPNO-NEVPT2, CIM, IAO-localization
   Andreas Hansen         : Spin unrestricted coupled pair/coupled cluster methods
   Benjamin Helmich-Paris : CASSCF linear response (MC-RPA)
   Lee Huntington         : MR-EOM, pCC
   Robert Izsak           : Overlap fitted RIJCOSX, COSX-SCS-MP3, EOM
   Christian Kollmar      : KDIIS, OOCD, Brueckner-CCSD(T), CCSD density
   Simone Kossmann        : Meta GGA functionals, TD-DFT gradient, OOMP2, MP2 Hessian
   Martin Krupicka        : AUTO-CI
   Lucas Lang             : DCDCAS
   Dagmar Lenk            : GEPOL surface, SMD
   Dimitrios Liakos       : Extrapolation schemes; Compound Job, initial MDCI parallelization
   Dimitrios Manganas     : Further ROCIS development; embedding schemes
   Dimitrios Pantazis     : SARC Basis sets
   Taras Petrenko         : DFT Hessian,TD-DFT gradient, ASA, ECA, R-Raman, ABS, FL, XAS/XES, NRVS
   Peter Pinski           : DLPNO-MP2, DLPNO-MP2 Gradient
   Christoph Reimann      : Effective Core Potentials
   Marius Retegan         : Local ZFS, SOC
   Christoph Riplinger    : Optimizer, TS searches, QM/MM, DLPNO-CCSD(T), (RO)-DLPNO pert. Triples
   Tobias Risthaus        : Range-separated hybrids, TD-DFT gradient, RPA, STAB
   Michael Roemelt        : Original ROCIS implementation
   Masaaki Saitow         : Open-shell DLPNO-CCSD energy and density
   Barbara Sandhoefer     : DKH picture change effects
   Avijit Sen             : IP-ROCIS
   Kantharuban Sivalingam : CASSCF convergence, NEVPT2, FIC-MRCI
   Bernardo de Souza      : ESD, SOC TD-DFT
   Georgi Stoychev        : AutoAux, RI-MP2 NMR
   Willem Van den Heuvel  : Paramagnetic NMR
   Boris Wezisla          : Elementary symmetry handling
   Frank Wennmohs         : Technical directorship


 We gratefully acknowledge several colleagues who have allowed us to
 interface, adapt or use parts of their codes:
   Stefan Grimme, W. Hujo, H. Kruse,             : VdW corrections, initial TS optimization,
                  C. Bannwarth                     DFT functionals, gCP, sTDA/sTD-DF
   Ed Valeev, F. Pavosevic, A. Kumar             : LibInt (2-el integral package), F12 methods
   Garnet Chan, S. Sharma, J. Yang, R. Olivares  : DMRG
   Ulf Ekstrom                                   : XCFun DFT Library
   Mihaly Kallay                                 : mrcc  (arbitrary order and MRCC methods)
   Andreas Klamt, Michael Diedenhofen            : otool_cosmo (COSMO solvation model)
   Jiri Pittner, Ondrej Demel                    : Mk-CCSD
   Frank Weinhold                                : gennbo (NPA and NBO analysis)
   Christopher J. Cramer and Donald G. Truhlar   : smd solvation model
   Lars Goerigk                                  : TD-DFT with DH, B97 family of functionals
   V. Asgeirsson, H. Jonsson                     : NEB implementation
   FAccTs GmbH                                   : IRC, NEB, NEB-TS, Multilevel, MM, QM/MM, CI optimization
   S Lehtola, MJT Oliveira, MAL Marques          : LibXC Library


 Your calculation uses the libint2 library for the computation of 2-el integrals
 For citations please refer to: http://libint.valeyev.net

 Your ORCA version has been built with support for libXC version: 4.2.3
 For citations please refer to: https://tddft.org/programs/libxc/

 This ORCA versions uses:
   CBLAS   interface :  Fast vector & matrix operations
   LAPACKE interface :  Fast linear algebra routines
   SCALAPACK package :  Parallel linear algebra routines


----- Orbital basis set information -----
Your calculation utilizes the basis: cc-pVTZ 
       H, B-Ne : Obtained from the ccRepo (grant-hill.group.shef.ac.uk/ccrepo) Feb. 2017
                 T. H. Dunning, Jr., J. Chem. Phys. 90, 1007 (1989)
            He : Obtained from the ccRepo (grant-hill.group.shef.ac.uk/ccrepo) Feb. 2017
                 D. E. Woon, T. H. Dunning, Jr., J. Chem. Phys. 100, 2975 (1994)
  Li-Be, Na-Mg : Obtained from the ccRepo (grant-hill.group.shef.ac.uk/ccrepo) Feb. 2017
                 B. P. Prascher, D. E. Woon, K. A. Peterson, T. H. Dunning, Jr., A. K. Wilson, Theor. Chem. Acc. 128, 69 (2011)
         Al-Ar : Obtained from the ccRepo (grant-hill.group.shef.ac.uk/ccrepo) Feb. 2017
                 D. E. Woon, T. H. Dunning, Jr., J. Chem. Phys. 98, 1358 (1993)
            Ca : Obtained from the Peterson Research Group Website (tyr0.chem.wsu.edu/~kipeters) Feb. 2017
                 J. Koput, K. A. Peterson, J. Phys. Chem. 106, 9595 (2002)
         Sc-Zn : Obtained from the ccRepo (grant-hill.group.shef.ac.uk/ccrepo) Feb. 2017
                 N. B. Balabanov, K. A. Peterson, J. Chem. Phys. 123, 064107 (2005)
                 N. B. Balabanov, K. A. Peterson, J. Chem. Phys. 125, 074110 (2006)
         Ga-Kr : Obtained from the ccRepo (grant-hill.group.shef.ac.uk/ccrepo) Feb. 2017
                 A. K. Wilson, D. E. Woon, K. A. Peterson, T. H. Dunning, Jr., J. Chem. Phys. 110, 7667 (1999)
             Y : Obtained from the ccRepo (grant-hill.group.shef.ac.uk/ccrepo) Feb. 2017
                 K. A. Peterson, D. Figgen, M. Dolg, H. Stoll, J. Chem. Phys. 126, 124101 (2007)
        Ag, Au : Obtained from the Peterson Research Group Website (tyr0.chem.wsu.edu/~kipeters) Feb. 2017
                 K. A. Peterson, C. Puzzarini, Theor. Chem. Acc. 114, 283 (2005)

----- AuxC basis set information -----
Your calculation utilizes the auxiliary basis: cc-pVTZ/C 
  Obtained from the EMSL Basis Set Exchange (bse.pnl.gov) Feb. 2017
  H-He, B-F, Al-Ar, Ga-Kr : F. Weigend, A. Kohn, C. Hattig, J. Chem. Phys. 116, 3175 (2002)
             Li-Be, Na-Mg : C. Haettig, Phys. Chem. Chem. Phys. 7, 59 (2005)
                       Ne : C. Haettig, Phys. Chem. Chem. Phys. 7, 59 (2005)
                            F. Weigend, A. Kohn, C. Hattig, J. Chem. Phys. 116, 3175 (2002)
                    Sc-Zn : J. G. Hill, J. A. Platts, J. Chem. Phys. 128, 044104 (2008)

================================================================================
                                        WARNINGS
                       Please study these warnings very carefully!
================================================================================


WARNING: No MP2 level density has been requested!
         To caclulate MP2 level properties use
         %mp2 Density relaxed end
         or
         %mp2 Density unrelaxed end

WARNING: Post HF methods need fully converged wavefunctions
  ===> : Setting SCFConvForced true
         You can overwrite this default with %scf ConvForced false 


INFO   : the flag for use of LIBINT has been found!

================================================================================
                                       INPUT FILE
================================================================================
NAME = CONFS/Conf326.orca
|  1> ! ri-mp2 cc-pvtz cc-pvtz/c TightSCF  NoKeepInts
|  2> 
|  3> %scf
|  4>   MaxCore 4096
|  5> end
|  6> *xyz  0  1
|  7>     C       15.1264352   15.2718734   17.5444305
|  8>     C       15.5666955   15.4263850   16.0769244
|  9>     O       16.9547972   15.0630951   15.9020036
| 10>     C       18.0734415   15.6148455   16.4849308
| 11>     O       19.1044846   14.9681928   16.5063939
| 12>     C       17.9142427   16.8110653   17.3704522
| 13>     C       17.4140770   17.9922462   16.9335369
| 14>     C       16.9893427   18.3497561   15.5248325
| 15>     N       17.3978572   19.1004129   17.7834196
| 16>     C       18.0050905   19.1527552   19.0100975
| 17>     S       18.0137269   20.5352263   19.9170553
| 18>     N       18.6139144   18.0019774   19.4438880
| 19>     C       18.5478385   16.6930815   18.7635594
| 20>     C       17.8519901   15.6451094   19.6318770
| 21>     C       18.2915978   14.3082461   19.6048765
| 22>     C       17.6608208   13.3274623   20.3878725
| 23>     C       16.5799878   13.6840013   21.2112236
| 24>     C       16.1397597   15.0135035   21.2463845
| 25>     O       15.0909840   15.3601994   22.0340130
| 26>     C       16.7698613   15.9883252   20.4661850
| 27>     H       15.5855354   14.3864554   18.0031401
| 28>     H       14.0374453   15.1564634   17.6038238
| 29>     H       15.3910230   16.1562975   18.1323563
| 30>     H       14.9663215   14.7366714   15.4693812
| 31>     H       15.3445794   16.4337527   15.7181129
| 32>     H       17.1832154   17.5411487   14.8096722
| 33>     H       17.5515071   19.2206159   15.1633331
| 34>     H       15.9229214   18.6022758   15.4805554
| 35>     H       16.9811470   19.9637116   17.4718739
| 36>     H       19.0464575   18.0655471   20.3569199
| 37>     H       19.5845889   16.3543275   18.6187774
| 38>     H       19.1234373   14.0245474   18.9634222
| 39>     H       18.0097504   12.2968083   20.3507629
| 40>     H       16.0885769   12.9288409   21.8157502
| 41>     H       14.8207224   14.5683787   22.5230971
| 42>     H       16.4028256   17.0083976   20.5090645
| 43> *
| 44> 
| 45>                          ****END OF INPUT****
================================================================================

                       ****************************
                       * Single Point Calculation *
                       ****************************

---------------------------------
CARTESIAN COORDINATES (ANGSTROEM)
---------------------------------
  C     15.126435   15.271873   17.544430
  C     15.566695   15.426385   16.076924
  O     16.954797   15.063095   15.902004
  C     18.073442   15.614845   16.484931
  O     19.104485   14.968193   16.506394
  C     17.914243   16.811065   17.370452
  C     17.414077   17.992246   16.933537
  C     16.989343   18.349756   15.524833
  N     17.397857   19.100413   17.783420
  C     18.005091   19.152755   19.010097
  S     18.013727   20.535226   19.917055
  N     18.613914   18.001977   19.443888
  C     18.547838   16.693082   18.763559
  C     17.851990   15.645109   19.631877
  C     18.291598   14.308246   19.604876
  C     17.660821   13.327462   20.387872
  C     16.579988   13.684001   21.211224
  C     16.139760   15.013504   21.246385
  O     15.090984   15.360199   22.034013
  C     16.769861   15.988325   20.466185
  H     15.585535   14.386455   18.003140
  H     14.037445   15.156463   17.603824
  H     15.391023   16.156298   18.132356
  H     14.966321   14.736671   15.469381
  H     15.344579   16.433753   15.718113
  H     17.183215   17.541149   14.809672
  H     17.551507   19.220616   15.163333
  H     15.922921   18.602276   15.480555
  H     16.981147   19.963712   17.471874
  H     19.046457   18.065547   20.356920
  H     19.584589   16.354328   18.618777
  H     19.123437   14.024547   18.963422
  H     18.009750   12.296808   20.350763
  H     16.088577   12.928841   21.815750
  H     14.820722   14.568379   22.523097
  H     16.402826   17.008398   20.509064

----------------------------
CARTESIAN COORDINATES (A.U.)
----------------------------
  NO LB      ZA    FRAG     MASS         X           Y           Z
   0 C     6.0000    0    12.011   28.584820   28.859658   33.154169
   1 C     6.0000    0    12.011   29.416791   29.151643   30.380984
   2 O     8.0000    0    15.999   32.039923   28.465124   30.050432
   3 C     6.0000    0    12.011   34.153855   29.507782   31.152005
   4 O     8.0000    0    15.999   36.102244   28.285785   31.192564
   5 C     6.0000    0    12.011   33.853013   31.768309   32.825397
   6 C     6.0000    0    12.011   32.907836   34.000418   31.999747
   7 C     6.0000    0    12.011   32.105205   34.676014   29.337682
   8 N     7.0000    0    14.007   32.877185   36.094549   33.605793
   9 C     6.0000    0    12.011   34.024690   36.193462   35.923878
  10 S    16.0000    0    32.060   34.041010   38.805954   37.637780
  11 N     7.0000    0    14.007   35.175200   34.018807   36.743623
  12 C     6.0000    0    12.011   35.050335   31.545352   35.457989
  13 C     6.0000    0    12.011   33.735372   29.564972   37.098871
  14 C     6.0000    0    12.011   34.566110   27.038667   37.047847
  15 C     6.0000    0    12.011   33.374115   25.185254   38.527495
  16 C     6.0000    0    12.011   31.331636   25.859015   40.083404
  17 C     6.0000    0    12.011   30.499726   28.371410   40.149848
  18 O     8.0000    0    15.999   28.517827   29.026570   41.638250
  19 C     6.0000    0    12.011   31.690445   30.213556   38.675485
  20 H     1.0000    0     1.008   29.452394   27.186461   34.021004
  21 H     1.0000    0     1.008   26.526927   28.641565   33.266406
  22 H     1.0000    0     1.008   29.084818   30.530978   34.265188
  23 H     1.0000    0     1.008   28.282249   27.848273   29.232894
  24 H     1.0000    0     1.008   28.997053   31.055292   29.702929
  25 H     1.0000    0     1.008   32.471571   33.147967   27.986225
  26 H     1.0000    0     1.008   33.167542   36.321700   28.654547
  27 H     1.0000    0     1.008   30.089961   35.153207   29.254010
  28 H     1.0000    0     1.008   32.089717   37.725948   33.017057
  29 H     1.0000    0     1.008   35.992588   34.138936   38.469004
  30 H     1.0000    0     1.008   37.009509   30.905200   35.184390
  31 H     1.0000    0     1.008   36.138059   26.502554   35.835675
  32 H     1.0000    0     1.008   34.033496   23.237600   38.457368
  33 H     1.0000    0     1.008   30.403004   24.431969   41.225793
  34 H     1.0000    0     1.008   28.007106   27.530246   42.562485
  35 H     1.0000    0     1.008   30.996848   32.141213   38.756515

--------------------------------
INTERNAL COORDINATES (ANGSTROEM)
--------------------------------
 C      0   0   0     0.000000000000     0.00000000     0.00000000
 C      1   0   0     1.539895165207     0.00000000     0.00000000
 O      2   1   0     1.445476795821   111.38667418     0.00000000
 C      3   2   1     1.376807065032   128.92384773   299.80742265
 O      4   3   2     1.217238782301   118.86707139   160.30955305
 C      4   3   2     1.496808009630   118.96882337   355.88257853
 C      6   4   3     1.355082663661   123.03332893   298.60087452
 C      7   6   4     1.514153440301   127.54039473   357.33534522
 N      7   6   4     1.396637791505   119.98082210   185.40515172
 C      9   7   6     1.369748395636   124.75944714     8.40986028
 S     10   9   7     1.653442887045   121.70185934   176.33709378
 N     10   9   7     1.372271942464   116.59818972   356.77387992
 C     12  10   9     1.476625038923   125.29891878   353.46766726
 C     13  12  10     1.528537200277   111.49188787   243.33139785
 C     14  13  12     1.407546603060   119.87420044   215.81438109
 C     15  14  13     1.404599310155   120.81381552   180.43066545
 C     16  15  14     1.404716009121   119.67280125   359.83532571
 C     17  16  15     1.400932963679   119.82619754   359.96015957
 O     18  17  16     1.356645557985   120.00147880   179.59352872
 C     18  17  16     1.398576645348   120.39079743     0.00000000
 H      1   2   3     1.097794391267   111.07357365   322.02031944
 H      1   2   3     1.096697786305   110.24670494   202.43815683
 H      1   2   3     1.094472219326   111.20624682    83.65338261
 H      2   1   3     1.097844492525   107.93837239   117.75965789
 H      2   1   3     1.092186310761   110.33358781   233.93022555
 H      8   7   6     1.096761964072   112.51906927   356.39860593
 H      8   7   6     1.097773847422   110.48904371   237.83919725
 H      8   7   6     1.096804927763   111.38648191   118.33140752
 H      9   7   6     1.007964661778   119.75497009   183.20811387
 H     12  10   9     1.012305235852   114.96218675   180.59320200
 H     13  12  10     1.100257920644   106.94033331   126.67174609
 H     15  14  13     1.088074227767   119.84941216   359.80346248
 H     16  15  14     1.088750042886   119.87317187   179.64195948
 H     17  16  15     1.084990466536   119.89478446   179.85387482
 H     19  18  17     0.969136012258   107.44422614     3.09804258
 H     20  18  17     1.084943112719   118.74239872   179.60031293

---------------------------
INTERNAL COORDINATES (A.U.)
---------------------------
 C      0   0   0     0.000000000000     0.00000000     0.00000000
 C      1   0   0     2.909980137191     0.00000000     0.00000000
 O      2   1   0     2.731555277040   111.38667418     0.00000000
 C      3   2   1     2.601788292159   128.92384773   299.80742265
 O      4   3   2     2.300247938136   118.86707139   160.30955305
 C      4   3   2     2.828557213260   118.96882337   355.88257853
 C      6   4   3     2.560735123144   123.03332893   298.60087452
 C      7   6   4     2.861335326903   127.54039473   357.33534522
 N      7   6   4     2.639262934229   119.98082210   185.40515172
 C      9   7   6     2.588449340130   124.75944714     8.40986028
 S     10   9   7     3.124554234596   121.70185934   176.33709378
 N     10   9   7     2.593218152521   116.59818972   356.77387992
 C     12  10   9     2.790416926056   125.29891878   353.46766726
 C     13  12  10     2.888516694034   111.49188787   243.33139785
 C     14  13  12     2.659877600515   119.87420044   215.81438109
 C     15  14  13     2.654308024087   120.81381552   180.43066545
 C     16  15  14     2.654528553174   119.67280125   359.83532571
 C     17  16  15     2.647379633337   119.82619754   359.96015957
 O     18  17  16     2.563688565392   120.00147880   179.59352872
 C     18  17  16     2.642926837007   120.39079743     0.00000000
 H      1   2   3     2.074530750848   111.07357365   322.02031944
 H      1   2   3     2.072458467795   110.24670494   202.43815683
 H      1   2   3     2.068252755710   111.20624682    83.65338261
 H      2   1   3     2.074625428506   107.93837239   117.75965789
 H      2   1   3     2.063933014557   110.33358781   233.93022555
 H      8   7   6     2.072579746199   112.51906927   356.39860593
 H      8   7   6     2.074491928609   110.48904371   237.83919725
 H      8   7   6     2.072660935808   111.38648191   118.33140752
 H      9   7   6     1.904777163432   119.75497009   183.20811387
 H     12  10   9     1.912979659695   114.96218675   180.59320200
 H     13  12  10     2.079186146695   106.94033331   126.67174609
 H     15  14  13     2.056162303857   119.84941216   359.80346248
 H     16  15  14     2.057439409350   119.87317187   179.64195948
 H     17  16  15     2.050334839669   119.89478446   179.85387482
 H     19  18  17     1.831401649689   107.44422614     3.09804258
 H     20  18  17     2.050245353923   118.74239872   179.60031293

---------------------
BASIS SET INFORMATION
---------------------
There are 5 groups of distinct atoms

 Group   1 Type C   : 18s5p2d1f contracted to 4s3p2d1f pattern {8811/311/11/1}
 Group   2 Type O   : 18s5p2d1f contracted to 4s3p2d1f pattern {8811/311/11/1}
 Group   3 Type N   : 18s5p2d1f contracted to 4s3p2d1f pattern {8811/311/11/1}
 Group   4 Type S   : 41s16p2d1f contracted to 5s4p2d1f pattern {13131311/7711/11/1}
 Group   5 Type H   : 5s2p1d contracted to 3s2p1d pattern {311/11/1}

Atom   0C    basis set group =>   1
Atom   1C    basis set group =>   1
Atom   2O    basis set group =>   2
Atom   3C    basis set group =>   1
Atom   4O    basis set group =>   2
Atom   5C    basis set group =>   1
Atom   6C    basis set group =>   1
Atom   7C    basis set group =>   1
Atom   8N    basis set group =>   3
Atom   9C    basis set group =>   1
Atom  10S    basis set group =>   4
Atom  11N    basis set group =>   3
Atom  12C    basis set group =>   1
Atom  13C    basis set group =>   1
Atom  14C    basis set group =>   1
Atom  15C    basis set group =>   1
Atom  16C    basis set group =>   1
Atom  17C    basis set group =>   1
Atom  18O    basis set group =>   2
Atom  19C    basis set group =>   1
Atom  20H    basis set group =>   5
Atom  21H    basis set group =>   5
Atom  22H    basis set group =>   5
Atom  23H    basis set group =>   5
Atom  24H    basis set group =>   5
Atom  25H    basis set group =>   5
Atom  26H    basis set group =>   5
Atom  27H    basis set group =>   5
Atom  28H    basis set group =>   5
Atom  29H    basis set group =>   5
Atom  30H    basis set group =>   5
Atom  31H    basis set group =>   5
Atom  32H    basis set group =>   5
Atom  33H    basis set group =>   5
Atom  34H    basis set group =>   5
Atom  35H    basis set group =>   5
---------------------------------
AUXILIARY/C BASIS SET INFORMATION
---------------------------------
There are 5 groups of distinct atoms

 Group   1 Type C   : 8s6p5d3f1g contracted to 8s6p5d3f1g pattern {11111111/111111/11111/111/1}
 Group   2 Type O   : 8s6p5d3f1g contracted to 8s6p5d3f1g pattern {11111111/111111/11111/111/1}
 Group   3 Type N   : 8s6p5d3f1g contracted to 8s6p5d3f1g pattern {11111111/111111/11111/111/1}
 Group   4 Type S   : 10s8p7d5f2g contracted to 10s8p7d5f2g pattern {1111111111/11111111/1111111/11111/11}
 Group   5 Type H   : 4s3p2d1f contracted to 4s3p2d1f pattern {1111/111/11/1}

Atom   0C    basis set group =>   1
Atom   1C    basis set group =>   1
Atom   2O    basis set group =>   2
Atom   3C    basis set group =>   1
Atom   4O    basis set group =>   2
Atom   5C    basis set group =>   1
Atom   6C    basis set group =>   1
Atom   7C    basis set group =>   1
Atom   8N    basis set group =>   3
Atom   9C    basis set group =>   1
Atom  10S    basis set group =>   4
Atom  11N    basis set group =>   3
Atom  12C    basis set group =>   1
Atom  13C    basis set group =>   1
Atom  14C    basis set group =>   1
Atom  15C    basis set group =>   1
Atom  16C    basis set group =>   1
Atom  17C    basis set group =>   1
Atom  18O    basis set group =>   2
Atom  19C    basis set group =>   1
Atom  20H    basis set group =>   5
Atom  21H    basis set group =>   5
Atom  22H    basis set group =>   5
Atom  23H    basis set group =>   5
Atom  24H    basis set group =>   5
Atom  25H    basis set group =>   5
Atom  26H    basis set group =>   5
Atom  27H    basis set group =>   5
Atom  28H    basis set group =>   5
Atom  29H    basis set group =>   5
Atom  30H    basis set group =>   5
Atom  31H    basis set group =>   5
Atom  32H    basis set group =>   5
Atom  33H    basis set group =>   5
Atom  34H    basis set group =>   5
Atom  35H    basis set group =>   5
------------------------------------------------------------------------------
                           ORCA GTO INTEGRAL CALCULATION
------------------------------------------------------------------------------

                         BASIS SET STATISTICS AND STARTUP INFO

 # of primitive gaussian shells          ...  682
 # of primitive gaussian functions       ... 1312
 # of contracted shells                  ...  298
 # of contracted basis functions         ...  828
 Highest angular momentum                ...    3
 Maximum contraction depth               ...   13
 Integral package used                   ... LIBINT
 Integral threshhold            Thresh   ...  2.500e-11
 Primitive cut-off              TCut     ...  2.500e-12


------------------------------ INTEGRAL EVALUATION ----------------------------


 * One electron integrals 
 Pre-screening matrix                    ... done
 Shell pair data                         ... done (   0.013 sec)

-------------------------------------------------------------------------------
                                 ORCA SCF
-------------------------------------------------------------------------------

------------
SCF SETTINGS
------------
Hamiltonian:
 Ab initio Hamiltonian  Method          .... Hartree-Fock(GTOs)


General Settings:
 Integral files         IntName         .... CONFS/Conf326.orca
 Hartree-Fock type      HFTyp           .... RHF
 Total Charge           Charge          ....    0
 Multiplicity           Mult            ....    1
 Number of Electrons    NEL             ....  154
 Basis Dimension        Dim             ....  828
 Nuclear Repulsion      ENuc            ....   1734.9063944488 Eh

Convergence Acceleration:
 DIIS                   CNVDIIS         .... on
   Start iteration      DIISMaxIt       ....    12
   Startup error        DIISStart       ....  0.200000
   # of expansion vecs  DIISMaxEq       ....     5
   Bias factor          DIISBfac        ....   1.050
   Max. coefficient     DIISMaxC        ....  10.000
 Newton-Raphson         CNVNR           .... off
 SOSCF                  CNVSOSCF        .... on
   Start iteration      SOSCFMaxIt      ....   150
   Startup grad/error   SOSCFStart      ....  0.003300
 Level Shifting         CNVShift        .... on
   Level shift para.    LevelShift      ....    0.2500
   Turn off err/grad.   ShiftErr        ....    0.0010
 Zerner damping         CNVZerner       .... off
 Static damping         CNVDamp         .... on
   Fraction old density DampFac         ....    0.7000
   Max. Damping (<1)    DampMax         ....    0.9800
   Min. Damping (>=0)   DampMin         ....    0.0000
   Turn off err/grad.   DampErr         ....    0.1000
 Fernandez-Rico         CNVRico         .... off

SCF Procedure:
 Maximum # iterations   MaxIter         ....   125
 SCF integral mode      SCFMode         .... Direct
   Integral package                     .... LIBINT
 Reset frequency        DirectResetFreq ....    20
 Integral Threshold     Thresh          ....  2.500e-11 Eh
 Primitive CutOff       TCut            ....  2.500e-12 Eh

Convergence Tolerance:
 Convergence Check Mode ConvCheckMode   .... Total+1el-Energy
 Convergence forced     ConvForced      .... 1
 Energy Change          TolE            ....  1.000e-08 Eh
 1-El. energy change                    ....  1.000e-05 Eh
 Orbital Gradient       TolG            ....  1.000e-05
 Orbital Rotation angle TolX            ....  1.000e-05
 DIIS Error             TolErr          ....  5.000e-07


Diagonalization of the overlap matrix:
Smallest eigenvalue                        ... 3.208e-05
Time for diagonalization                   ...    0.278 sec
Threshold for overlap eigenvalues          ... 1.000e-08
Number of eigenvalues below threshold      ... 0
Time for construction of square roots      ...    0.478 sec
Total time needed                          ...    0.757 sec

-------------------
DFT GRID GENERATION
-------------------

General Integration Accuracy     IntAcc      ...  4.340
Radial Grid Type                 RadialGrid  ... Gauss-Chebyshev
Angular Grid (max. acc.)         AngularGrid ... Lebedev-110
Angular grid pruning method      GridPruning ... 3 (G Style)
Weight generation scheme         WeightScheme... Becke
Basis function cutoff            BFCut       ...    1.0000e-11
Integration weight cutoff        WCut        ...    1.0000e-14
Grids for H and He will be reduced by one unit

# of grid points (after initial pruning)     ...  46246 (   0.0 sec)
# of grid points (after weights+screening)   ...  41097 (   0.3 sec)
nearest neighbour list constructed           ...    0.0 sec
Grid point re-assignment to atoms done       ...    0.0 sec
Grid point division into batches done        ...    0.0 sec
Reduced shell lists constructed in    0.9 sec

Total number of grid points                  ...    41097
Total number of batches                      ...      662
Average number of points per batch           ...       62
Average number of grid points per atom       ...     1142
Average number of shells per batch           ...   156.34 (52.46%)
Average number of basis functions per batch  ...   398.52 (48.13%)
Average number of large shells per batch     ...   100.73 (64.43%)
Average number of large basis fcns per batch ...   257.31 (64.57%)
Maximum spatial batch extension              ...  24.96, 20.73, 20.47 au
Average spatial batch extension              ...   3.54,  3.34,  3.36 au

Time for grid setup =    1.158 sec

------------------------------
INITIAL GUESS: MODEL POTENTIAL
------------------------------
Loading Hartree-Fock densities                     ... done
Calculating cut-offs                               ... done
Setting up the integral package                    ... done
Initializing the effective Hamiltonian             ... done
Starting the Coulomb interaction                   ... done (   3.0 sec)
Reading the grid                                   ... done
Mapping shells                                     ... done
Starting the XC term evaluation                    ... done (   1.1 sec)
Transforming the Hamiltonian                       ... done (   0.2 sec)
Diagonalizing the Hamiltonian                      ... done (   0.3 sec)
Back transforming the eigenvectors                 ... done (   0.1 sec)
Now organizing SCF variables                       ... done
                      ------------------
                      INITIAL GUESS DONE (   6.3 sec)
                      ------------------
--------------
SCF ITERATIONS
--------------
ITER       Energy         Delta-E        Max-DP      RMS-DP      [F,P]     Damp
               ***  Starting incremental Fock matrix formation  ***
  0  -1269.9966867280   0.000000000000 0.04932490  0.00045122  0.3157582 0.7000
  1  -1270.2621910302  -0.265504302169 0.03610210  0.00036819  0.1855916 0.7000
                               ***Turning on DIIS***
  2  -1270.4277398161  -0.165548785964 0.02586393  0.00024549  0.1098117 0.7000
  3  -1272.5486567412  -2.120916925106 0.06325301  0.00052681  0.0830065 0.0000
  4  -1270.7397965729   1.808860168377 0.01208791  0.00010392  0.0073693 0.0000
  5  -1270.7932447011  -0.053448128197 0.00607668  0.00005462  0.0038303 0.0000
                      *** Initiating the SOSCF procedure ***
                           *** Shutting down DIIS ***
                      *** Re-Reading the Fockian *** 
                      *** Removing any level shift *** 
ITER      Energy       Delta-E        Grad      Rot      Max-DP    RMS-DP
  6  -1270.77268887   0.0205558302  0.001458  0.001458  0.002822  0.000028
               *** Restarting incremental Fock matrix formation ***
  7  -1270.78789568  -0.0152068044  0.000737  0.001837  0.001527  0.000018
  8  -1270.78794171  -0.0000460330  0.000395  0.002134  0.001631  0.000019
  9  -1270.78795965  -0.0000179451  0.000158  0.000297  0.000395  0.000005
 10  -1270.78796195  -0.0000022976  0.000041  0.000108  0.000128  0.000001
 11  -1270.78796217  -0.0000002169  0.000020  0.000107  0.000092  0.000001
 12  -1270.78796223  -0.0000000588  0.000009  0.000029  0.000029  0.000000
 13  -1270.78796223  -0.0000000082  0.000003  0.000008  0.000006  0.000000
                  ***Gradient check signals convergence***
              ***Rediagonalizing the Fockian in SOSCF/NRSCF***

               *****************************************************
               *                     SUCCESS                       *
               *           SCF CONVERGED AFTER  14 CYCLES          *
               *****************************************************


----------------
TOTAL SCF ENERGY
----------------

Total Energy       :        -1270.78796223 Eh          -34579.89846 eV

Components:
Nuclear Repulsion  :         1734.90639445 Eh           47209.20306 eV
Electronic Energy  :        -3005.69435668 Eh          -81789.10152 eV
One Electron Energy:        -5190.50943087 Eh         -141240.94216 eV
Two Electron Energy:         2184.81507419 Eh           59451.84064 eV

Virial components:
Potential Energy   :        -2539.74497274 Eh          -69109.97419 eV
Kinetic Energy     :         1268.95701052 Eh           34530.07573 eV
Virial Ratio       :            2.00144288


---------------
SCF CONVERGENCE
---------------

  Last Energy change         ...    8.1932e-09  Tolerance :   1.0000e-08
  Last MAX-Density change    ...    3.4922e-06  Tolerance :   1.0000e-07
  Last RMS-Density change    ...    3.8701e-08  Tolerance :   5.0000e-09
  Last Orbital Gradient      ...    1.5034e-06  Tolerance :   1.0000e-05
  Last Orbital Rotation      ...    4.3320e-06  Tolerance :   1.0000e-05

             **** THE GBW FILE WAS UPDATED (CONFS/Conf326.orca.gbw) ****
             **** DENSITY FILE WAS UPDATED (CONFS/Conf326.orca.scfp) ****
             **** ENERGY FILE WAS UPDATED (CONFS/Conf326.orca.en.tmp) ****
             **** THE GBW FILE WAS UPDATED (CONFS/Conf326.orca.gbw) ****
             **** DENSITY FILE WAS UPDATED (CONFS/Conf326.orca.scfp) ****
----------------
ORBITAL ENERGIES
----------------

  NO   OCC          E(Eh)            E(eV) 
   0   2.0000     -91.890884     -2500.4781 
   1   2.0000     -20.600172      -560.5592 
   2   2.0000     -20.597468      -560.4856 
   3   2.0000     -20.548870      -559.1632 
   4   2.0000     -15.628605      -425.2759 
   5   2.0000     -15.611550      -424.8119 
   6   2.0000     -11.401007      -310.2372 
   7   2.0000     -11.387253      -309.8629 
   8   2.0000     -11.333530      -308.4010 
   9   2.0000     -11.314540      -307.8843 
  10   2.0000     -11.314066      -307.8714 
  11   2.0000     -11.308155      -307.7105 
  12   2.0000     -11.271249      -306.7063 
  13   2.0000     -11.268776      -306.6390 
  14   2.0000     -11.261902      -306.4519 
  15   2.0000     -11.254413      -306.2481 
  16   2.0000     -11.243777      -305.9587 
  17   2.0000     -11.239366      -305.8387 
  18   2.0000     -11.235885      -305.7440 
  19   2.0000     -11.228014      -305.5298 
  20   2.0000      -8.895989      -242.0722 
  21   2.0000      -6.577577      -178.9850 
  22   2.0000      -6.575550      -178.9298 
  23   2.0000      -6.574973      -178.9141 
  24   2.0000      -1.445576       -39.3361 
  25   2.0000      -1.417287       -38.5664 
  26   2.0000      -1.358029       -36.9538 
  27   2.0000      -1.342125       -36.5211 
  28   2.0000      -1.241090       -33.7718 
  29   2.0000      -1.158849       -31.5339 
  30   2.0000      -1.125517       -30.6269 
  31   2.0000      -1.047776       -28.5114 
  32   2.0000      -1.038388       -28.2560 
  33   2.0000      -1.017350       -27.6835 
  34   2.0000      -1.006144       -27.3786 
  35   2.0000      -0.990368       -26.9493 
  36   2.0000      -0.928163       -25.2566 
  37   2.0000      -0.896105       -24.3843 
  38   2.0000      -0.855709       -23.2850 
  39   2.0000      -0.840993       -22.8846 
  40   2.0000      -0.834292       -22.7022 
  41   2.0000      -0.830254       -22.5924 
  42   2.0000      -0.747495       -20.3404 
  43   2.0000      -0.740729       -20.1563 
  44   2.0000      -0.730431       -19.8760 
  45   2.0000      -0.695407       -18.9230 
  46   2.0000      -0.687395       -18.7050 
  47   2.0000      -0.680025       -18.5044 
  48   2.0000      -0.675568       -18.3831 
  49   2.0000      -0.662343       -18.0233 
  50   2.0000      -0.653183       -17.7740 
  51   2.0000      -0.648763       -17.6537 
  52   2.0000      -0.639478       -17.4011 
  53   2.0000      -0.620809       -16.8931 
  54   2.0000      -0.610970       -16.6253 
  55   2.0000      -0.605868       -16.4865 
  56   2.0000      -0.601660       -16.3720 
  57   2.0000      -0.590058       -16.0563 
  58   2.0000      -0.577706       -15.7202 
  59   2.0000      -0.569363       -15.4932 
  60   2.0000      -0.565987       -15.4013 
  61   2.0000      -0.554605       -15.0916 
  62   2.0000      -0.538443       -14.6518 
  63   2.0000      -0.534494       -14.5443 
  64   2.0000      -0.519776       -14.1438 
  65   2.0000      -0.512898       -13.9567 
  66   2.0000      -0.501870       -13.6566 
  67   2.0000      -0.501166       -13.6374 
  68   2.0000      -0.482745       -13.1362 
  69   2.0000      -0.467138       -12.7115 
  70   2.0000      -0.455352       -12.3907 
  71   2.0000      -0.450443       -12.2572 
  72   2.0000      -0.358692        -9.7605 
  73   2.0000      -0.348151        -9.4737 
  74   2.0000      -0.330465        -8.9924 
  75   2.0000      -0.322982        -8.7888 
  76   2.0000      -0.319572        -8.6960 
  77   0.0000       0.082266         2.2386 
  78   0.0000       0.107482         2.9247 
  79   0.0000       0.112788         3.0691 
  80   0.0000       0.130183         3.5425 
  81   0.0000       0.131111         3.5677 
  82   0.0000       0.144637         3.9358 
  83   0.0000       0.150593         4.0978 
  84   0.0000       0.153492         4.1767 
  85   0.0000       0.159386         4.3371 
  86   0.0000       0.168922         4.5966 
  87   0.0000       0.173835         4.7303 
  88   0.0000       0.186024         5.0620 
  89   0.0000       0.192428         5.2362 
  90   0.0000       0.198911         5.4126 
  91   0.0000       0.204390         5.5617 
  92   0.0000       0.209115         5.6903 
  93   0.0000       0.218952         5.9580 
  94   0.0000       0.225802         6.1444 
  95   0.0000       0.235832         6.4173 
  96   0.0000       0.242708         6.6044 
  97   0.0000       0.249335         6.7848 
  98   0.0000       0.263556         7.1717 
  99   0.0000       0.280412         7.6304 
 100   0.0000       0.284314         7.7366 
 101   0.0000       0.293479         7.9860 
 102   0.0000       0.309897         8.4327 
 103   0.0000       0.316039         8.5999 
 104   0.0000       0.328132         8.9289 
 105   0.0000       0.337234         9.1766 
 106   0.0000       0.344058         9.3623 
 107   0.0000       0.351351         9.5608 
 108   0.0000       0.352812         9.6005 
 109   0.0000       0.360239         9.8026 
 110   0.0000       0.371542        10.1102 
 111   0.0000       0.375108        10.2072 
 112   0.0000       0.380286        10.3481 
 113   0.0000       0.393277        10.7016 
 114   0.0000       0.403503        10.9799 
 115   0.0000       0.410633        11.1739 
 116   0.0000       0.419026        11.4023 
 117   0.0000       0.430627        11.7180 
 118   0.0000       0.431702        11.7472 
 119   0.0000       0.441626        12.0172 
 120   0.0000       0.444002        12.0819 
 121   0.0000       0.446938        12.1618 
 122   0.0000       0.452813        12.3217 
 123   0.0000       0.458301        12.4710 
 124   0.0000       0.468930        12.7602 
 125   0.0000       0.471949        12.8424 
 126   0.0000       0.481742        13.1089 
 127   0.0000       0.488563        13.2945 
 128   0.0000       0.492697        13.4070 
 129   0.0000       0.503757        13.7079 
 130   0.0000       0.506393        13.7796 
 131   0.0000       0.513412        13.9707 
 132   0.0000       0.516278        14.0486 
 133   0.0000       0.517730        14.0881 
 134   0.0000       0.527096        14.3430 
 135   0.0000       0.528817        14.3899 
 136   0.0000       0.532251        14.4833 
 137   0.0000       0.537097        14.6152 
 138   0.0000       0.538811        14.6618 
 139   0.0000       0.549467        14.9517 
 140   0.0000       0.553719        15.0674 
 141   0.0000       0.559309        15.2196 
 142   0.0000       0.560709        15.2577 
 143   0.0000       0.570088        15.5129 
 144   0.0000       0.577621        15.7179 
 145   0.0000       0.582912        15.8618 
 146   0.0000       0.584502        15.9051 
 147   0.0000       0.593175        16.1411 
 148   0.0000       0.595111        16.1938 
 149   0.0000       0.601707        16.3733 
 150   0.0000       0.602556        16.3964 
 151   0.0000       0.604558        16.4509 
 152   0.0000       0.610476        16.6119 
 153   0.0000       0.615326        16.7439 
 154   0.0000       0.617989        16.8163 
 155   0.0000       0.624217        16.9858 
 156   0.0000       0.631360        17.1802 
 157   0.0000       0.632430        17.2093 
 158   0.0000       0.635353        17.2888 
 159   0.0000       0.647934        17.6312 
 160   0.0000       0.653096        17.7717 
 161   0.0000       0.653799        17.7908 
 162   0.0000       0.657619        17.8947 
 163   0.0000       0.665242        18.1021 
 164   0.0000       0.671180        18.2637 
 165   0.0000       0.679804        18.4984 
 166   0.0000       0.682806        18.5801 
 167   0.0000       0.689995        18.7757 
 168   0.0000       0.700322        19.0567 
 169   0.0000       0.703503        19.1433 
 170   0.0000       0.705288        19.1919 
 171   0.0000       0.708954        19.2916 
 172   0.0000       0.718817        19.5600 
 173   0.0000       0.727292        19.7906 
 174   0.0000       0.732685        19.9374 
 175   0.0000       0.739888        20.1334 
 176   0.0000       0.749434        20.3931 
 177   0.0000       0.753804        20.5121 
 178   0.0000       0.756667        20.5899 
 179   0.0000       0.769102        20.9283 
 180   0.0000       0.775155        21.0930 
 181   0.0000       0.777175        21.1480 
 182   0.0000       0.786097        21.3908 
 183   0.0000       0.792391        21.5620 
 184   0.0000       0.801171        21.8010 
 185   0.0000       0.813640        22.1403 
 186   0.0000       0.822759        22.3884 
 187   0.0000       0.829073        22.5602 
 188   0.0000       0.840979        22.8842 
 189   0.0000       0.848378        23.0855 
 190   0.0000       0.854252        23.2454 
 191   0.0000       0.858725        23.3671 
 192   0.0000       0.861078        23.4311 
 193   0.0000       0.868105        23.6223 
 194   0.0000       0.879385        23.9293 
 195   0.0000       0.886269        24.1166 
 196   0.0000       0.892698        24.2916 
 197   0.0000       0.899723        24.4827 
 198   0.0000       0.909011        24.7354 
 199   0.0000       0.911595        24.8058 
 200   0.0000       0.918455        24.9924 
 201   0.0000       0.928957        25.2782 
 202   0.0000       0.937381        25.5074 
 203   0.0000       0.944258        25.6946 
 204   0.0000       0.947769        25.7901 
 205   0.0000       0.958396        26.0793 
 206   0.0000       0.969548        26.3827 
 207   0.0000       0.975541        26.5458 
 208   0.0000       0.978094        26.6153 
 209   0.0000       0.982796        26.7432 
 210   0.0000       0.988727        26.9046 
 211   0.0000       0.997718        27.1493 
 212   0.0000       1.003518        27.3071 
 213   0.0000       1.006342        27.3840 
 214   0.0000       1.017833        27.6966 
 215   0.0000       1.021804        27.8047 
 216   0.0000       1.026267        27.9262 
 217   0.0000       1.032952        28.1080 
 218   0.0000       1.042624        28.3712 
 219   0.0000       1.051504        28.6129 
 220   0.0000       1.057444        28.7745 
 221   0.0000       1.066395        29.0181 
 222   0.0000       1.069861        29.1124 
 223   0.0000       1.080932        29.4136 
 224   0.0000       1.091249        29.6944 
 225   0.0000       1.100748        29.9529 
 226   0.0000       1.105925        30.0937 
 227   0.0000       1.108503        30.1639 
 228   0.0000       1.114117        30.3167 
 229   0.0000       1.119730        30.4694 
 230   0.0000       1.125790        30.6343 
 231   0.0000       1.128684        30.7131 
 232   0.0000       1.138757        30.9872 
 233   0.0000       1.147387        31.2220 
 234   0.0000       1.157826        31.5060 
 235   0.0000       1.163412        31.6581 
 236   0.0000       1.172341        31.9010 
 237   0.0000       1.180308        32.1178 
 238   0.0000       1.189641        32.3718 
 239   0.0000       1.199845        32.6494 
 240   0.0000       1.206136        32.8206 
 241   0.0000       1.216443        33.1011 
 242   0.0000       1.218984        33.1702 
 243   0.0000       1.221481        33.2382 
 244   0.0000       1.231115        33.5003 
 245   0.0000       1.235853        33.6293 
 246   0.0000       1.243262        33.8309 
 247   0.0000       1.253143        34.0998 
 248   0.0000       1.260905        34.3110 
 249   0.0000       1.269090        34.5337 
 250   0.0000       1.271950        34.6115 
 251   0.0000       1.277292        34.7569 
 252   0.0000       1.281956        34.8838 
 253   0.0000       1.295528        35.2531 
 254   0.0000       1.303443        35.4685 
 255   0.0000       1.310384        35.6574 
 256   0.0000       1.320563        35.9344 
 257   0.0000       1.327878        36.1334 
 258   0.0000       1.336894        36.3787 
 259   0.0000       1.338966        36.4351 
 260   0.0000       1.346702        36.6456 
 261   0.0000       1.353888        36.8412 
 262   0.0000       1.365186        37.1486 
 263   0.0000       1.374914        37.4133 
 264   0.0000       1.380473        37.5646 
 265   0.0000       1.384897        37.6850 
 266   0.0000       1.393434        37.9173 
 267   0.0000       1.403468        38.1903 
 268   0.0000       1.413500        38.4633 
 269   0.0000       1.417615        38.5753 
 270   0.0000       1.432039        38.9678 
 271   0.0000       1.434199        39.0265 
 272   0.0000       1.449580        39.4451 
 273   0.0000       1.452141        39.5148 
 274   0.0000       1.457542        39.6617 
 275   0.0000       1.466263        39.8990 
 276   0.0000       1.472573        40.0708 
 277   0.0000       1.483598        40.3707 
 278   0.0000       1.489382        40.5281 
 279   0.0000       1.500393        40.8278 
 280   0.0000       1.501701        40.8634 
 281   0.0000       1.509396        41.0728 
 282   0.0000       1.516859        41.2758 
 283   0.0000       1.532083        41.6901 
 284   0.0000       1.534217        41.7482 
 285   0.0000       1.538061        41.8528 
 286   0.0000       1.541903        41.9573 
 287   0.0000       1.546571        42.0843 
 288   0.0000       1.550027        42.1784 
 289   0.0000       1.556490        42.3542 
 290   0.0000       1.568982        42.6942 
 291   0.0000       1.575324        42.8668 
 292   0.0000       1.584327        43.1117 
 293   0.0000       1.597328        43.4655 
 294   0.0000       1.604345        43.6564 
 295   0.0000       1.608973        43.7824 
 296   0.0000       1.616885        43.9977 
 297   0.0000       1.624029        44.1921 
 298   0.0000       1.628922        44.3252 
 299   0.0000       1.644774        44.7566 
 300   0.0000       1.647636        44.8344 
 301   0.0000       1.650753        44.9193 
 302   0.0000       1.669180        45.4207 
 303   0.0000       1.670691        45.4618 
 304   0.0000       1.680914        45.7400 
 305   0.0000       1.695055        46.1248 
 306   0.0000       1.704894        46.3925 
 307   0.0000       1.707804        46.4717 
 308   0.0000       1.710920        46.5565 
 309   0.0000       1.724782        46.9337 
 310   0.0000       1.734537        47.1991 
 311   0.0000       1.739094        47.3232 
 312   0.0000       1.745443        47.4959 
 313   0.0000       1.748548        47.5804 
 314   0.0000       1.760048        47.8933 
 315   0.0000       1.768772        48.1307 
 316   0.0000       1.782623        48.5076 
 317   0.0000       1.788420        48.6654 
 318   0.0000       1.794787        48.8386 
 319   0.0000       1.812790        49.3285 
 320   0.0000       1.826353        49.6976 
 321   0.0000       1.832246        49.8580 
 322   0.0000       1.841960        50.1223 
 323   0.0000       1.859330        50.5949 
 324   0.0000       1.864793        50.7436 
 325   0.0000       1.872517        50.9538 
 326   0.0000       1.892596        51.5002 
 327   0.0000       1.896369        51.6028 
 328   0.0000       1.909438        51.9585 
 329   0.0000       1.912672        52.0464 
 330   0.0000       1.933094        52.6022 
 331   0.0000       1.937519        52.7226 
 332   0.0000       1.943904        52.8963 
 333   0.0000       1.951020        53.0900 
 334   0.0000       1.975017        53.7430 
 335   0.0000       1.984714        54.0068 
 336   0.0000       1.997102        54.3439 
 337   0.0000       2.005367        54.5688 
 338   0.0000       2.013435        54.7883 
 339   0.0000       2.028535        55.1993 
 340   0.0000       2.030923        55.2642 
 341   0.0000       2.049814        55.7783 
 342   0.0000       2.059157        56.0325 
 343   0.0000       2.076908        56.5155 
 344   0.0000       2.080639        56.6171 
 345   0.0000       2.102952        57.2242 
 346   0.0000       2.120612        57.7048 
 347   0.0000       2.131925        58.0126 
 348   0.0000       2.151889        58.5559 
 349   0.0000       2.153205        58.5917 
 350   0.0000       2.185501        59.4705 
 351   0.0000       2.197912        59.8082 
 352   0.0000       2.212296        60.1996 
 353   0.0000       2.223159        60.4952 
 354   0.0000       2.231372        60.7187 
 355   0.0000       2.274571        61.8942 
 356   0.0000       2.287349        62.2419 
 357   0.0000       2.295934        62.4755 
 358   0.0000       2.300839        62.6090 
 359   0.0000       2.316490        63.0349 
 360   0.0000       2.324763        63.2600 
 361   0.0000       2.331116        63.4329 
 362   0.0000       2.356149        64.1141 
 363   0.0000       2.357656        64.1551 
 364   0.0000       2.376304        64.6625 
 365   0.0000       2.381582        64.8061 
 366   0.0000       2.386288        64.9342 
 367   0.0000       2.400435        65.3192 
 368   0.0000       2.415202        65.7210 
 369   0.0000       2.431529        66.1653 
 370   0.0000       2.453598        66.7658 
 371   0.0000       2.462632        67.0116 
 372   0.0000       2.470940        67.2377 
 373   0.0000       2.486928        67.6728 
 374   0.0000       2.498171        67.9787 
 375   0.0000       2.505692        68.1833 
 376   0.0000       2.527968        68.7895 
 377   0.0000       2.532569        68.9147 
 378   0.0000       2.546681        69.2987 
 379   0.0000       2.582288        70.2676 
 380   0.0000       2.587530        70.4103 
 381   0.0000       2.595691        70.6324 
 382   0.0000       2.596669        70.6590 
 383   0.0000       2.619324        71.2754 
 384   0.0000       2.624523        71.4169 
 385   0.0000       2.629979        71.5654 
 386   0.0000       2.646922        72.0264 
 387   0.0000       2.657281        72.3083 
 388   0.0000       2.662218        72.4426 
 389   0.0000       2.677330        72.8539 
 390   0.0000       2.685331        73.0716 
 391   0.0000       2.692631        73.2702 
 392   0.0000       2.708544        73.7032 
 393   0.0000       2.728399        74.2435 
 394   0.0000       2.734027        74.3967 
 395   0.0000       2.746564        74.7378 
 396   0.0000       2.754697        74.9591 
 397   0.0000       2.764049        75.2136 
 398   0.0000       2.773447        75.4693 
 399   0.0000       2.788661        75.8833 
 400   0.0000       2.789506        75.9063 
 401   0.0000       2.804201        76.3062 
 402   0.0000       2.809949        76.4626 
 403   0.0000       2.817850        76.6776 
 404   0.0000       2.841700        77.3266 
 405   0.0000       2.844824        77.4116 
 406   0.0000       2.849559        77.5404 
 407   0.0000       2.852793        77.6285 
 408   0.0000       2.864700        77.9524 
 409   0.0000       2.877984        78.3139 
 410   0.0000       2.884930        78.5029 
 411   0.0000       2.887406        78.5703 
 412   0.0000       2.906804        79.0982 
 413   0.0000       2.914805        79.3159 
 414   0.0000       2.917850        79.3987 
 415   0.0000       2.927423        79.6592 
 416   0.0000       2.935610        79.8820 
 417   0.0000       2.942208        80.0615 
 418   0.0000       2.946678        80.1832 
 419   0.0000       2.954524        80.3967 
 420   0.0000       2.960993        80.5727 
 421   0.0000       2.985221        81.2320 
 422   0.0000       2.988482        81.3207 
 423   0.0000       2.998610        81.5963 
 424   0.0000       3.011591        81.9496 
 425   0.0000       3.014883        82.0391 
 426   0.0000       3.022089        82.2352 
 427   0.0000       3.031381        82.4881 
 428   0.0000       3.038388        82.6788 
 429   0.0000       3.041276        82.7573 
 430   0.0000       3.042120        82.7803 
 431   0.0000       3.051446        83.0341 
 432   0.0000       3.057568        83.2007 
 433   0.0000       3.067440        83.4693 
 434   0.0000       3.083246        83.8994 
 435   0.0000       3.088264        84.0359 
 436   0.0000       3.090717        84.1027 
 437   0.0000       3.107192        84.5510 
 438   0.0000       3.111351        84.6642 
 439   0.0000       3.119478        84.8853 
 440   0.0000       3.126159        85.0671 
 441   0.0000       3.127996        85.1171 
 442   0.0000       3.134887        85.3046 
 443   0.0000       3.139179        85.4214 
 444   0.0000       3.156523        85.8934 
 445   0.0000       3.161137        86.0189 
 446   0.0000       3.164345        86.1062 
 447   0.0000       3.177269        86.4579 
 448   0.0000       3.186319        86.7042 
 449   0.0000       3.188864        86.7734 
 450   0.0000       3.195262        86.9475 
 451   0.0000       3.218114        87.5693 
 452   0.0000       3.223497        87.7158 
 453   0.0000       3.225577        87.7724 
 454   0.0000       3.236637        88.0734 
 455   0.0000       3.241929        88.2174 
 456   0.0000       3.253352        88.5282 
 457   0.0000       3.256378        88.6105 
 458   0.0000       3.268354        88.9364 
 459   0.0000       3.270102        88.9840 
 460   0.0000       3.273758        89.0835 
 461   0.0000       3.279448        89.2383 
 462   0.0000       3.288062        89.4727 
 463   0.0000       3.302672        89.8703 
 464   0.0000       3.307640        90.0055 
 465   0.0000       3.313211        90.1571 
 466   0.0000       3.319199        90.3200 
 467   0.0000       3.325653        90.4956 
 468   0.0000       3.326792        90.5266 
 469   0.0000       3.333047        90.6968 
 470   0.0000       3.337897        90.8288 
 471   0.0000       3.347507        91.0903 
 472   0.0000       3.353505        91.2535 
 473   0.0000       3.363600        91.5282 
 474   0.0000       3.363876        91.5357 
 475   0.0000       3.367507        91.6345 
 476   0.0000       3.380936        91.9999 
 477   0.0000       3.381437        92.0136 
 478   0.0000       3.385970        92.1369 
 479   0.0000       3.391711        92.2931 
 480   0.0000       3.394034        92.3564 
 481   0.0000       3.401609        92.5625 
 482   0.0000       3.402495        92.5866 
 483   0.0000       3.409133        92.7672 
 484   0.0000       3.414883        92.9237 
 485   0.0000       3.422526        93.1317 
 486   0.0000       3.435143        93.4750 
 487   0.0000       3.437828        93.5481 
 488   0.0000       3.441936        93.6598 
 489   0.0000       3.451638        93.9239 
 490   0.0000       3.453629        93.9780 
 491   0.0000       3.458714        94.1164 
 492   0.0000       3.461643        94.1961 
 493   0.0000       3.467186        94.3469 
 494   0.0000       3.475406        94.5706 
 495   0.0000       3.486876        94.8827 
 496   0.0000       3.492481        95.0352 
 497   0.0000       3.499398        95.2235 
 498   0.0000       3.511463        95.5518 
 499   0.0000       3.519246        95.7636 
 500   0.0000       3.523249        95.8725 
 501   0.0000       3.526240        95.9539 
 502   0.0000       3.534854        96.1883 
 503   0.0000       3.541415        96.3668 
 504   0.0000       3.546404        96.5026 
 505   0.0000       3.549633        96.5904 
 506   0.0000       3.566264        97.0430 
 507   0.0000       3.578871        97.3860 
 508   0.0000       3.585826        97.5753 
 509   0.0000       3.592906        97.7679 
 510   0.0000       3.600163        97.9654 
 511   0.0000       3.603669        98.0608 
 512   0.0000       3.611762        98.2810 
 513   0.0000       3.621130        98.5360 
 514   0.0000       3.624980        98.6407 
 515   0.0000       3.632370        98.8418 
 516   0.0000       3.639321        99.0310 
 517   0.0000       3.642417        99.1152 
 518   0.0000       3.646837        99.2355 
 519   0.0000       3.653830        99.4258 
 520   0.0000       3.658792        99.5608 
 521   0.0000       3.665288        99.7376 
 522   0.0000       3.670451        99.8781 
 523   0.0000       3.674557        99.9898 
 524   0.0000       3.681872       100.1888 
 525   0.0000       3.698808       100.6497 
 526   0.0000       3.701401       100.7203 
 527   0.0000       3.705359       100.8279 
 528   0.0000       3.714708       101.0824 
 529   0.0000       3.716643       101.1350 
 530   0.0000       3.726388       101.4002 
 531   0.0000       3.729534       101.4858 
 532   0.0000       3.736647       101.6793 
 533   0.0000       3.737677       101.7074 
 534   0.0000       3.751859       102.0933 
 535   0.0000       3.756548       102.2209 
 536   0.0000       3.759665       102.3057 
 537   0.0000       3.765573       102.4664 
 538   0.0000       3.774279       102.7034 
 539   0.0000       3.780627       102.8761 
 540   0.0000       3.788604       103.0932 
 541   0.0000       3.794919       103.2650 
 542   0.0000       3.804283       103.5198 
 543   0.0000       3.808981       103.6476 
 544   0.0000       3.826857       104.1341 
 545   0.0000       3.832702       104.2931 
 546   0.0000       3.834960       104.3546 
 547   0.0000       3.841856       104.5422 
 548   0.0000       3.843894       104.5977 
 549   0.0000       3.865162       105.1764 
 550   0.0000       3.867989       105.2533 
 551   0.0000       3.875247       105.4508 
 552   0.0000       3.883284       105.6695 
 553   0.0000       3.887088       105.7730 
 554   0.0000       3.899140       106.1010 
 555   0.0000       3.901295       106.1596 
 556   0.0000       3.913579       106.4939 
 557   0.0000       3.918692       106.6330 
 558   0.0000       3.928359       106.8961 
 559   0.0000       3.936337       107.1132 
 560   0.0000       3.950834       107.5076 
 561   0.0000       3.954138       107.5976 
 562   0.0000       3.957343       107.6848 
 563   0.0000       3.965453       107.9054 
 564   0.0000       3.976832       108.2151 
 565   0.0000       3.987205       108.4974 
 566   0.0000       3.999631       108.8355 
 567   0.0000       4.005635       108.9989 
 568   0.0000       4.014916       109.2514 
 569   0.0000       4.026421       109.5645 
 570   0.0000       4.028670       109.6257 
 571   0.0000       4.033620       109.7604 
 572   0.0000       4.044126       110.0463 
 573   0.0000       4.050429       110.2178 
 574   0.0000       4.064094       110.5896 
 575   0.0000       4.074072       110.8611 
 576   0.0000       4.079241       111.0018 
 577   0.0000       4.089637       111.2847 
 578   0.0000       4.096998       111.4850 
 579   0.0000       4.098193       111.5175 
 580   0.0000       4.106762       111.7507 
 581   0.0000       4.121781       112.1594 
 582   0.0000       4.130029       112.3838 
 583   0.0000       4.141387       112.6929 
 584   0.0000       4.146736       112.8384 
 585   0.0000       4.158151       113.1491 
 586   0.0000       4.163318       113.2896 
 587   0.0000       4.175411       113.6187 
 588   0.0000       4.178333       113.6982 
 589   0.0000       4.181005       113.7709 
 590   0.0000       4.184994       113.8795 
 591   0.0000       4.190430       114.0274 
 592   0.0000       4.197164       114.2106 
 593   0.0000       4.213056       114.6431 
 594   0.0000       4.222904       114.9111 
 595   0.0000       4.233742       115.2060 
 596   0.0000       4.239219       115.3550 
 597   0.0000       4.246353       115.5491 
 598   0.0000       4.255101       115.7872 
 599   0.0000       4.262880       115.9989 
 600   0.0000       4.269596       116.1816 
 601   0.0000       4.270972       116.2191 
 602   0.0000       4.280257       116.4717 
 603   0.0000       4.292479       116.8043 
 604   0.0000       4.298170       116.9592 
 605   0.0000       4.303299       117.0987 
 606   0.0000       4.315820       117.4394 
 607   0.0000       4.318982       117.5255 
 608   0.0000       4.323271       117.6422 
 609   0.0000       4.334604       117.9506 
 610   0.0000       4.338834       118.0657 
 611   0.0000       4.356146       118.5368 
 612   0.0000       4.365411       118.7889 
 613   0.0000       4.380106       119.1888 
 614   0.0000       4.383013       119.2678 
 615   0.0000       4.394832       119.5895 
 616   0.0000       4.405533       119.8806 
 617   0.0000       4.411915       120.0543 
 618   0.0000       4.420188       120.2794 
 619   0.0000       4.427652       120.4825 
 620   0.0000       4.429620       120.5361 
 621   0.0000       4.434987       120.6821 
 622   0.0000       4.444412       120.9386 
 623   0.0000       4.451240       121.1244 
 624   0.0000       4.457177       121.2860 
 625   0.0000       4.465873       121.5226 
 626   0.0000       4.476468       121.8109 
 627   0.0000       4.484700       122.0349 
 628   0.0000       4.500470       122.4640 
 629   0.0000       4.505188       122.5924 
 630   0.0000       4.516249       122.8934 
 631   0.0000       4.521132       123.0263 
 632   0.0000       4.530402       123.2785 
 633   0.0000       4.535072       123.4056 
 634   0.0000       4.545968       123.7021 
 635   0.0000       4.555092       123.9504 
 636   0.0000       4.557115       124.0054 
 637   0.0000       4.566195       124.2525 
 638   0.0000       4.573967       124.4640 
 639   0.0000       4.580135       124.6318 
 640   0.0000       4.594855       125.0323 
 641   0.0000       4.607190       125.3680 
 642   0.0000       4.618862       125.6856 
 643   0.0000       4.621519       125.7579 
 644   0.0000       4.632839       126.0660 
 645   0.0000       4.636764       126.1728 
 646   0.0000       4.642335       126.3243 
 647   0.0000       4.647694       126.4702 
 648   0.0000       4.652819       126.6096 
 649   0.0000       4.659370       126.7879 
 650   0.0000       4.669026       127.0506 
 651   0.0000       4.675745       127.2335 
 652   0.0000       4.678235       127.3012 
 653   0.0000       4.695338       127.7666 
 654   0.0000       4.703675       127.9935 
 655   0.0000       4.711605       128.2093 
 656   0.0000       4.726670       128.6192 
 657   0.0000       4.731203       128.7426 
 658   0.0000       4.742540       129.0511 
 659   0.0000       4.762781       129.6019 
 660   0.0000       4.767939       129.7422 
 661   0.0000       4.771478       129.8385 
 662   0.0000       4.787998       130.2881 
 663   0.0000       4.808878       130.8562 
 664   0.0000       4.821986       131.2129 
 665   0.0000       4.830781       131.4522 
 666   0.0000       4.845304       131.8474 
 667   0.0000       4.870072       132.5214 
 668   0.0000       4.893227       133.1515 
 669   0.0000       4.911744       133.6554 
 670   0.0000       4.913404       133.7005 
 671   0.0000       4.921360       133.9170 
 672   0.0000       4.930645       134.1697 
 673   0.0000       4.950288       134.7042 
 674   0.0000       4.966390       135.1423 
 675   0.0000       4.983790       135.6158 
 676   0.0000       5.006829       136.2427 
 677   0.0000       5.016629       136.5094 
 678   0.0000       5.030602       136.8896 
 679   0.0000       5.047872       137.3596 
 680   0.0000       5.051518       137.4588 
 681   0.0000       5.063413       137.7825 
 682   0.0000       5.079881       138.2306 
 683   0.0000       5.092463       138.5730 
 684   0.0000       5.111581       139.0932 
 685   0.0000       5.116014       139.2138 
 686   0.0000       5.125598       139.4746 
 687   0.0000       5.132852       139.6720 
 688   0.0000       5.143292       139.9561 
 689   0.0000       5.151889       140.1900 
 690   0.0000       5.164833       140.5423 
 691   0.0000       5.180037       140.9560 
 692   0.0000       5.197422       141.4290 
 693   0.0000       5.202080       141.5558 
 694   0.0000       5.208026       141.7176 
 695   0.0000       5.221204       142.0762 
 696   0.0000       5.227580       142.2497 
 697   0.0000       5.235813       142.4737 
 698   0.0000       5.243686       142.6880 
 699   0.0000       5.258529       143.0918 
 700   0.0000       5.268715       143.3690 
 701   0.0000       5.281836       143.7261 
 702   0.0000       5.291319       143.9841 
 703   0.0000       5.304777       144.3503 
 704   0.0000       5.320866       144.7881 
 705   0.0000       5.334853       145.1687 
 706   0.0000       5.339892       145.3059 
 707   0.0000       5.345839       145.4677 
 708   0.0000       5.360862       145.8765 
 709   0.0000       5.385396       146.5441 
 710   0.0000       5.393723       146.7707 
 711   0.0000       5.405291       147.0854 
 712   0.0000       5.441190       148.0623 
 713   0.0000       5.469692       148.8379 
 714   0.0000       5.480922       149.1435 
 715   0.0000       5.483787       149.2214 
 716   0.0000       5.491880       149.4417 
 717   0.0000       5.497668       149.5992 
 718   0.0000       5.513668       150.0345 
 719   0.0000       5.525838       150.3657 
 720   0.0000       5.538957       150.7227 
 721   0.0000       5.554595       151.1482 
 722   0.0000       5.563946       151.4027 
 723   0.0000       5.571046       151.5959 
 724   0.0000       5.581297       151.8748 
 725   0.0000       5.595849       152.2708 
 726   0.0000       5.615883       152.8159 
 727   0.0000       5.631641       153.2447 
 728   0.0000       5.645390       153.6189 
 729   0.0000       5.653765       153.8468 
 730   0.0000       5.657615       153.9515 
 731   0.0000       5.673662       154.3882 
 732   0.0000       5.680128       154.5642 
 733   0.0000       5.682908       154.6398 
 734   0.0000       5.698474       155.0634 
 735   0.0000       5.704438       155.2257 
 736   0.0000       5.718579       155.6104 
 737   0.0000       5.735092       156.0598 
 738   0.0000       5.745803       156.3512 
 739   0.0000       5.750667       156.4836 
 740   0.0000       5.757601       156.6723 
 741   0.0000       5.784197       157.3960 
 742   0.0000       5.802749       157.9008 
 743   0.0000       5.816279       158.2690 
 744   0.0000       5.820943       158.3959 
 745   0.0000       5.852941       159.2666 
 746   0.0000       5.862846       159.5362 
 747   0.0000       5.873025       159.8131 
 748   0.0000       5.888020       160.2212 
 749   0.0000       5.909276       160.7996 
 750   0.0000       5.942847       161.7131 
 751   0.0000       5.956750       162.0914 
 752   0.0000       5.972670       162.5246 
 753   0.0000       5.975671       162.6063 
 754   0.0000       5.997008       163.1869 
 755   0.0000       6.002421       163.3342 
 756   0.0000       6.041694       164.4028 
 757   0.0000       6.053127       164.7139 
 758   0.0000       6.064567       165.0253 
 759   0.0000       6.078011       165.3911 
 760   0.0000       6.109923       166.2595 
 761   0.0000       6.176120       168.0608 
 762   0.0000       6.232242       169.5879 
 763   0.0000       6.237979       169.7440 
 764   0.0000       6.282704       170.9611 
 765   0.0000       6.304566       171.5560 
 766   0.0000       6.319303       171.9570 
 767   0.0000       6.349615       172.7818 
 768   0.0000       6.364783       173.1946 
 769   0.0000       6.381967       173.6621 
 770   0.0000       6.390638       173.8981 
 771   0.0000       6.401809       174.2021 
 772   0.0000       6.410406       174.4360 
 773   0.0000       6.438346       175.1963 
 774   0.0000       6.456134       175.6803 
 775   0.0000       6.467306       175.9843 
 776   0.0000       6.504607       176.9994 
 777   0.0000       6.527840       177.6316 
 778   0.0000       6.555920       178.3957 
 779   0.0000       6.612616       179.9384 
 780   0.0000       6.667333       181.4274 
 781   0.0000       6.695389       182.1908 
 782   0.0000       6.721829       182.9103 
 783   0.0000       6.747191       183.6004 
 784   0.0000       6.817036       185.5010 
 785   0.0000       6.847692       186.3352 
 786   0.0000       6.909488       188.0167 
 787   0.0000       6.921168       188.3345 
 788   0.0000       6.961216       189.4243 
 789   0.0000       7.003274       190.5688 
 790   0.0000       7.052105       191.8975 
 791   0.0000       7.065617       192.2652 
 792   0.0000       7.082664       192.7291 
 793   0.0000       7.133846       194.1218 
 794   0.0000       7.197137       195.8441 
 795   0.0000       7.252178       197.3418 
 796   0.0000       7.260184       197.5596 
 797   0.0000       7.282220       198.1593 
 798   0.0000       7.343879       199.8371 
 799   0.0000       7.386235       200.9897 
 800   0.0000       7.412064       201.6925 
 801   0.0000       7.498095       204.0335 
 802   0.0000       7.572391       206.0552 
 803   0.0000       7.583609       206.3605 
 804   0.0000       7.589200       206.5126 
 805   0.0000       7.762487       211.2280 
 806   0.0000       7.822027       212.8482 
 807   0.0000       7.933982       215.8946 
 808   0.0000       8.065596       219.4760 
 809   0.0000       9.499272       258.4883 
 810   0.0000       9.731411       264.8052 
 811   0.0000      10.792780       293.6865 
 812   0.0000      11.069328       301.2117 
 813   0.0000      12.049554       327.8850 
 814   0.0000      12.567508       341.9793 
 815   0.0000      12.948434       352.3448 
 816   0.0000      12.955171       352.5281 
 817   0.0000      13.110917       356.7662 
 818   0.0000      13.281724       361.4141 
 819   0.0000      13.440850       365.7441 
 820   0.0000      13.483455       366.9035 
 821   0.0000      13.744204       373.9988 
 822   0.0000      13.964995       380.0068 
 823   0.0000      14.115126       384.0921 
 824   0.0000      14.180995       385.8845 
 825   0.0000      14.473564       393.8457 
 826   0.0000      14.721045       400.5800 
 827   0.0000      15.980933       434.8633 

                    ********************************
                    * MULLIKEN POPULATION ANALYSIS *
                    ********************************

-----------------------
MULLIKEN ATOMIC CHARGES
-----------------------
   0 C :   -0.325712
   1 C :    0.019673
   2 O :   -0.322362
   3 C :    0.424716
   4 O :   -0.386627
   5 C :   -0.238536
   6 C :    0.167613
   7 C :   -0.332730
   8 N :   -0.138445
   9 C :    0.203095
  10 S :   -0.440077
  11 N :   -0.227013
  12 C :    0.095618
  13 C :    0.017672
  14 C :   -0.216188
  15 C :   -0.136633
  16 C :   -0.277665
  17 C :    0.323962
  18 O :   -0.358121
  19 C :   -0.273243
  20 H :    0.128108
  21 H :    0.113921
  22 H :    0.107426
  23 H :    0.130374
  24 H :    0.087688
  25 H :    0.129088
  26 H :    0.142725
  27 H :    0.119959
  28 H :    0.196508
  29 H :    0.202953
  30 H :    0.167206
  31 H :    0.177858
  32 H :    0.164342
  33 H :    0.131842
  34 H :    0.241020
  35 H :    0.179986
Sum of atomic charges:   -0.0000000

--------------------------------
MULLIKEN REDUCED ORBITAL CHARGES
--------------------------------
  0 C s       :     3.269242  s :     3.269242
      pz      :     0.914184  p :     2.977654
      px      :     1.033465
      py      :     1.030005
      dz2     :     0.019327  d :     0.074346
      dxz     :     0.007164
      dyz     :     0.023042
      dx2y2   :     0.018075
      dxy     :     0.006737
      f0      :     0.001293  f :     0.004470
      f+1     :     0.000923
      f-1     :     0.000562
      f+2     :     0.000504
      f-2     :     0.000158
      f+3     :     0.000956
      f-3     :     0.000075
  1 C s       :     3.172274  s :     3.172274
      pz      :     0.974760  p :     2.640872
      px      :     0.669419
      py      :     0.996693
      dz2     :     0.024778  d :     0.155721
      dxz     :     0.039105
      dyz     :     0.025473
      dx2y2   :     0.035337
      dxy     :     0.031028
      f0      :     0.002192  f :     0.011461
      f+1     :     0.001755
      f-1     :     0.000876
      f+2     :     0.001569
      f-2     :     0.000638
      f+3     :     0.002254
      f-3     :     0.002176
  2 O s       :     3.721050  s :     3.721050
      pz      :     1.719997  p :     4.566715
      px      :     1.163203
      py      :     1.683514
      dz2     :     0.004182  d :     0.032314
      dxz     :     0.008480
      dyz     :     0.003331
      dx2y2   :     0.004614
      dxy     :     0.011707
      f0      :     0.000227  f :     0.002282
      f+1     :     0.000409
      f-1     :     0.000077
      f+2     :     0.000308
      f-2     :     0.000302
      f+3     :     0.000459
      f-3     :     0.000499
  3 C s       :     3.071207  s :     3.071207
      pz      :     0.681354  p :     2.187393
      px      :     0.699088
      py      :     0.806951
      dz2     :     0.027883  d :     0.290587
      dxz     :     0.084673
      dyz     :     0.022707
      dx2y2   :     0.086573
      dxy     :     0.068751
      f0      :     0.002216  f :     0.026097
      f+1     :     0.002989
      f-1     :     0.001814
      f+2     :     0.002563
      f-2     :     0.004687
      f+3     :     0.007728
      f-3     :     0.004099
  4 O s       :     3.769118  s :     3.769118
      pz      :     1.534579  p :     4.579118
      px      :     1.458768
      py      :     1.585770
      dz2     :     0.003736  d :     0.035905
      dxz     :     0.007763
      dyz     :     0.003478
      dx2y2   :     0.009730
      dxy     :     0.011197
      f0      :     0.000242  f :     0.002487
      f+1     :     0.000289
      f-1     :     0.000123
      f+2     :     0.000084
      f-2     :     0.000383
      f+3     :     0.000600
      f-3     :     0.000766
  5 C s       :     3.189821  s :     3.189821
      pz      :     0.955423  p :     2.950629
      px      :     1.067665
      py      :     0.927542
      dz2     :     0.016666  d :     0.087494
      dxz     :     0.014392
      dyz     :     0.027182
      dx2y2   :     0.015618
      dxy     :     0.013634
      f0      :     0.001273  f :     0.010592
      f+1     :     0.001166
      f-1     :     0.001880
      f+2     :     0.001942
      f-2     :     0.001023
      f+3     :     0.001324
      f-3     :     0.001984
  6 C s       :     3.171607  s :     3.171607
      pz      :     0.859706  p :     2.473608
      px      :     0.853520
      py      :     0.760382
      dz2     :     0.033721  d :     0.172941
      dxz     :     0.022004
      dyz     :     0.044759
      dx2y2   :     0.031430
      dxy     :     0.041026
      f0      :     0.001859  f :     0.014231
      f+1     :     0.001040
      f-1     :     0.003228
      f+2     :     0.002394
      f-2     :     0.002179
      f+3     :     0.001641
      f-3     :     0.001889
  7 C s       :     3.301606  s :     3.301606
      pz      :     0.883754  p :     2.952800
      px      :     1.009219
      py      :     1.059828
      dz2     :     0.018208  d :     0.073634
      dxz     :     0.011464
      dyz     :     0.016867
      dx2y2   :     0.013541
      dxy     :     0.013555
      f0      :     0.001188  f :     0.004689
      f+1     :     0.000776
      f-1     :     0.001005
      f+2     :     0.000417
      f-2     :     0.000259
      f+3     :     0.000746
      f-3     :     0.000299
  8 N s       :     3.352952  s :     3.352952
      pz      :     1.118369  p :     3.721586
      px      :     1.489924
      py      :     1.113294
      dz2     :     0.015454  d :     0.058921
      dxz     :     0.009299
      dyz     :     0.017475
      dx2y2   :     0.007249
      dxy     :     0.009444
      f0      :     0.000789  f :     0.004985
      f+1     :     0.000933
      f-1     :     0.000898
      f+2     :     0.000837
      f-2     :     0.000689
      f+3     :     0.000478
      f-3     :     0.000362
  9 C s       :     3.166539  s :     3.166539
      pz      :     0.779085  p :     2.350536
      px      :     0.689198
      py      :     0.882252
      dz2     :     0.067429  d :     0.262210
      dxz     :     0.038494
      dyz     :     0.053165
      dx2y2   :     0.044540
      dxy     :     0.058582
      f0      :     0.003276  f :     0.017620
      f+1     :     0.002128
      f-1     :     0.003047
      f+2     :     0.002494
      f-2     :     0.002082
      f+3     :     0.002039
      f-3     :     0.002554
 10 S s       :     5.856336  s :     5.856336
      pz      :     3.566767  p :    10.489043
      px      :     3.698426
      py      :     3.223849
      dz2     :     0.006945  d :     0.084571
      dxz     :     0.005496
      dyz     :     0.038614
      dx2y2   :     0.021382
      dxy     :     0.012133
      f0      :     0.001275  f :     0.010127
      f+1     :     0.000062
      f-1     :     0.001739
      f+2     :     0.003419
      f-2     :     0.001176
      f+3     :     0.001030
      f-3     :     0.001426
 11 N s       :     3.391908  s :     3.391908
      pz      :     1.221093  p :     3.772886
      px      :     1.493660
      py      :     1.058132
      dz2     :     0.012157  d :     0.057767
      dxz     :     0.005860
      dyz     :     0.015350
      dx2y2   :     0.011866
      dxy     :     0.012535
      f0      :     0.000384  f :     0.004452
      f+1     :     0.000521
      f-1     :     0.000570
      f+2     :     0.000717
      f-2     :     0.000621
      f+3     :     0.000814
      f-3     :     0.000825
 12 C s       :     3.098798  s :     3.098798
      pz      :     0.834079  p :     2.612284
      px      :     1.017846
      py      :     0.760359
      dz2     :     0.038121  d :     0.182201
      dxz     :     0.025715
      dyz     :     0.039449
      dx2y2   :     0.040093
      dxy     :     0.038822
      f0      :     0.001396  f :     0.011100
      f+1     :     0.001238
      f-1     :     0.001964
      f+2     :     0.001935
      f-2     :     0.001570
      f+3     :     0.001568
      f-3     :     0.001429
 13 C s       :     3.117824  s :     3.117824
      pz      :     0.918800  p :     2.747776
      px      :     0.896277
      py      :     0.932699
      dz2     :     0.018852  d :     0.105570
      dxz     :     0.008521
      dyz     :     0.031307
      dx2y2   :     0.020303
      dxy     :     0.026586
      f0      :     0.001179  f :     0.011159
      f+1     :     0.001568
      f-1     :     0.001087
[...]
      f-1     :     0.005729
      f+2     :     0.006441
      f-2     :     0.005424
      f+3     :     0.006673
      f-3     :     0.009467
 15 C s       :     2.705477  s :     2.705477
      pz      :     0.897584  p :     2.794122
      px      :     0.924481
      py      :     0.972057
      dz2     :     0.094320  d :     0.416531
      dxz     :     0.066271
      dyz     :     0.061205
      dx2y2   :     0.105668
      dxy     :     0.089068
      f0      :     0.003106  f :     0.041105
      f+1     :     0.005103
      f-1     :     0.006362
      f+2     :     0.006677
      f-2     :     0.006860
      f+3     :     0.006371
      f-3     :     0.006627
 16 C s       :     2.701592  s :     2.701592
      pz      :     0.938879  p :     2.868221
      px      :     0.958095
      py      :     0.971248
      dz2     :     0.047161  d :     0.391323
      dxz     :     0.053720
      dyz     :     0.091723
      dx2y2   :     0.091570
      dxy     :     0.107148
      f0      :     0.004880  f :     0.040408
      f+1     :     0.004579
      f-1     :     0.003379
      f+2     :     0.005861
      f-2     :     0.006050
      f+3     :     0.008051
      f-3     :     0.007608
 17 C s       :     2.701240  s :     2.701240
      pz      :     0.833330  p :     2.683298
      px      :     0.818394
      py      :     1.031573
      dz2     :     0.129681  d :     0.709066
      dxz     :     0.108752
      dyz     :     0.142575
      dx2y2   :     0.163702
      dxy     :     0.164357
      f0      :     0.010308  f :     0.099364
      f+1     :     0.015918
      f-1     :     0.009552
      f+2     :     0.015089
      f-2     :     0.016198
      f+3     :     0.014745
      f-3     :     0.017554
 18 O s       :     3.177110  s :     3.177110
      pz      :     1.439379  p :     4.346903
      px      :     1.428887
      py      :     1.478637
      dz2     :     0.009103  d :     0.075588
      dxz     :     0.017785
      dyz     :     0.017308
      dx2y2   :     0.016822
      dxy     :     0.014571
      f0      :     0.000607  f :     0.005073
      f+1     :     0.000788
      f-1     :     0.000330
      f+2     :     0.000850
      f-2     :     0.000941
      f+3     :     0.000685
      f-3     :     0.000871
 19 C s       :     2.696107  s :     2.696107
      pz      :     0.932980  p :     2.846395
      px      :     0.944586
      py      :     0.968829
      dz2     :     0.076345  d :     0.388555
      dxz     :     0.063717
      dyz     :     0.064373
      dx2y2   :     0.092532
      dxy     :     0.091588
      f0      :     0.003219  f :     0.040694
      f+1     :     0.005204
      f-1     :     0.005800
      f+2     :     0.006735
      f-2     :     0.007349
      f+3     :     0.006401
      f-3     :     0.005985
 20 H s       :     0.839196  s :     0.839196
      pz      :     0.043737  p :     0.150984
      px      :     0.044898
      py      :     0.062349
      dz2     :     0.004698  d :     0.027747
      dxz     :     0.002695
      dyz     :     0.006676
      dx2y2   :     0.007814
      dxy     :     0.005864
 21 H s       :     0.845520  s :     0.845520
      pz      :     0.038661  p :     0.152183
      px      :     0.071756
      py      :     0.041766
      dz2     :     0.002442  d :     0.027530
      dxz     :     0.008757
      dyz     :     0.000154
      dx2y2   :     0.006762
      dxy     :     0.009415
 22 H s       :     0.847059  s :     0.847059
      pz      :     0.052132  p :     0.160110
      px      :     0.044978
      py      :     0.063000
      dz2     :     0.006104  d :     0.028279
      dxz     :     0.002874
      dyz     :     0.007076
      dx2y2   :     0.006229
      dxy     :     0.005997
 23 H s       :     0.847735  s :     0.847735
      pz      :     0.053455  p :     0.144013
      px      :     0.036589
      py      :     0.053969
      dz2     :     0.006734  d :     0.027020
      dxz     :     0.004744
      dyz     :     0.004861
      dx2y2   :     0.005471
      dxy     :     0.005210
 24 H s       :     0.858561  s :     0.858561
      pz      :     0.046718  p :     0.153638
      px      :     0.028593
      py      :     0.078327
      dz2     :     0.004427  d :     0.027701
      dxz     :     0.000951
      dyz     :     0.008802
      dx2y2   :     0.007102
      dxy     :     0.006420
 25 H s       :     0.830763  s :     0.830763
      pz      :     0.050999  p :     0.149684
      px      :     0.039769
      py      :     0.058915
      dz2     :     0.006996  d :     0.027661
      dxz     :     0.003724
      dyz     :     0.006854
      dx2y2   :     0.004765
      dxy     :     0.005322
 26 H s       :     0.830031  s :     0.830031
      pz      :     0.039969  p :     0.150523
      px      :     0.048469
      py      :     0.062085
      dz2     :     0.003698  d :     0.027680
      dxz     :     0.002851
      dyz     :     0.006540
      dx2y2   :     0.008503
      dxy     :     0.006088
 27 H s       :     0.838025  s :     0.838025
      pz      :     0.037264  p :     0.153010
      px      :     0.072794
      py      :     0.042953
      dz2     :     0.002437  d :     0.027736
      dxz     :     0.008118
      dyz     :     0.000677
      dx2y2   :     0.007154
      dxy     :     0.009350
 28 H s       :     0.742269  s :     0.742269
      pz      :     0.054872  p :     0.253260
      px      :     0.092742
      py      :     0.105646
      dz2     :     0.007542  d :     0.061713
      dxz     :     0.004156
      dyz     :     0.015062
      dx2y2   :     0.017167
      dxy     :     0.017785
 29 H s       :     0.747370  s :     0.747370
      pz      :     0.118255  p :     0.254327
      px      :     0.091134
      py      :     0.044938
      dz2     :     0.022315  d :     0.061423
      dxz     :     0.018514
      dyz     :     0.013004
      dx2y2   :     0.004483
      dxy     :     0.003107
 30 H s       :     0.822767  s :     0.822767
      pz      :     0.037508  p :     0.150531
      px      :     0.076912
      py      :     0.036111
      dz2     :     0.002732  d :     0.028549
      dxz     :     0.008386
      dyz     :     0.001334
      dx2y2   :     0.008369
      dxy     :     0.007728
 31 H s       :     0.836413  s :     0.836413
      pz      :     0.058347  p :     0.158288
      px      :     0.065199
      py      :     0.034742
      dz2     :     0.005755  d :     0.027493
      dxz     :     0.007095
      dyz     :     0.003675
      dx2y2   :     0.005347
      dxy     :     0.005621
 32 H s       :     0.841465  s :     0.841465
      pz      :     0.036552  p :     0.150822
      px      :     0.040083
      py      :     0.074187
      dz2     :     0.002612  d :     0.026424
      dxz     :     0.000876
      dyz     :     0.007083
      dx2y2   :     0.007928
      dxy     :     0.007925
 33 H s       :     0.848440  s :     0.848440
      pz      :     0.055272  p :     0.158836
      px      :     0.047806
      py      :     0.055758
      dz2     :     0.005611  d :     0.027736
      dxz     :     0.004157
      dyz     :     0.006254
      dx2y2   :     0.006092
      dxy     :     0.005623
 34 H s       :     0.706361  s :     0.706361
      pz      :     0.106208  p :     0.347643
      px      :     0.085819
      py      :     0.155616
      dz2     :     0.020428  d :     0.099530
      dxz     :     0.009446
      dyz     :     0.025117
      dx2y2   :     0.022310
      dxy     :     0.022228
 35 H s       :     0.837709  s :     0.837709
      pz      :     0.040977  p :     0.160065
      px      :     0.042969
      py      :     0.076119
      dz2     :     0.002594  d :     0.028151
      dxz     :     0.001073
      dyz     :     0.007777
      dx2y2   :     0.008169
      dxy     :     0.008538


                      *****************************
                      * MAYER POPULATION ANALYSIS *
                      *****************************

  NA   - Mulliken gross atomic population
  ZA   - Total nuclear charge
  QA   - Mulliken gross atomic charge
  VA   - Mayer's total valence
  BVA  - Mayer's bonded valence
  FA   - Mayer's free valence

  ATOM       NA         ZA         QA         VA         BVA        FA
  0 C      6.3257     6.0000    -0.3257     3.8501     3.8501     0.0000
  1 C      5.9803     6.0000     0.0197     3.8663     3.8663     0.0000
  2 O      8.3224     8.0000    -0.3224     2.0642     2.0642    -0.0000
  3 C      5.5753     6.0000     0.4247     4.2507     4.2507     0.0000
  4 O      8.3866     8.0000    -0.3866     2.1275     2.1275    -0.0000
  5 C      6.2385     6.0000    -0.2385     3.5761     3.5761    -0.0000
  6 C      5.8324     6.0000     0.1676     3.7792     3.7792    -0.0000
  7 C      6.3327     6.0000    -0.3327     3.8765     3.8765    -0.0000
  8 N      7.1384     7.0000    -0.1384     3.2604     3.2604     0.0000
  9 C      5.7969     6.0000     0.2031     4.1463     4.1463    -0.0000
 10 S     16.4401    16.0000    -0.4401     1.7507     1.7507    -0.0000
 11 N      7.2270     7.0000    -0.2270     3.2540     3.2540     0.0000
 12 C      5.9044     6.0000     0.0956     3.9234     3.9234     0.0000
 13 C      5.9823     6.0000     0.0177     3.7273     3.7273     0.0000
 14 C      6.2162     6.0000    -0.2162     3.8756     3.8756    -0.0000
 15 C      6.1366     6.0000    -0.1366     3.8127     3.8127     0.0000
 16 C      6.2777     6.0000    -0.2777     3.7886     3.7886     0.0000
 17 C      5.6760     6.0000     0.3240     3.8633     3.8633    -0.0000
 18 O      8.3581     8.0000    -0.3581     2.1171     2.1171     0.0000
 19 C      6.2732     6.0000    -0.2732     3.8088     3.8088    -0.0000
 20 H      0.8719     1.0000     0.1281     0.9774     0.9774     0.0000
 21 H      0.8861     1.0000     0.1139     0.9820     0.9820    -0.0000
 22 H      0.8926     1.0000     0.1074     0.9747     0.9747    -0.0000
 23 H      0.8696     1.0000     0.1304     0.9733     0.9733    -0.0000
 24 H      0.9123     1.0000     0.0877     0.9577     0.9577    -0.0000
 25 H      0.8709     1.0000     0.1291     0.9833     0.9833     0.0000
 26 H      0.8573     1.0000     0.1427     0.9772     0.9772    -0.0000
 27 H      0.8800     1.0000     0.1200     0.9692     0.9692    -0.0000
 28 H      0.8035     1.0000     0.1965     1.0218     1.0218    -0.0000
 29 H      0.7970     1.0000     0.2030     1.0125     1.0125     0.0000
 30 H      0.8328     1.0000     0.1672     0.9901     0.9901     0.0000
 31 H      0.8221     1.0000     0.1779     0.9855     0.9855    -0.0000
 32 H      0.8357     1.0000     0.1643     0.9765     0.9765     0.0000
 33 H      0.8682     1.0000     0.1318     0.9910     0.9910     0.0000
 34 H      0.7590     1.0000     0.2410     1.0104     1.0104     0.0000
 35 H      0.8200     1.0000     0.1800     0.9846     0.9846     0.0000

  Mayer bond orders larger than 0.100000
B(  0-C ,  1-C ) :   0.9536 B(  0-C , 20-H ) :   0.9677 B(  0-C , 21-H ) :   0.9771 
B(  0-C , 22-H ) :   0.9725 B(  1-C ,  2-O ) :   0.9045 B(  1-C , 23-H ) :   0.9840 
B(  1-C , 24-H ) :   0.9732 B(  2-O ,  3-C ) :   1.1844 B(  3-C ,  4-O ) :   2.0776 
B(  3-C ,  5-C ) :   0.9287 B(  5-C ,  6-C ) :   1.6869 B(  5-C , 12-C ) :   0.9457 
B(  6-C ,  7-C ) :   0.9442 B(  6-C ,  8-N ) :   1.1108 B(  7-C , 25-H ) :   0.9801 
B(  7-C , 26-H ) :   0.9680 B(  7-C , 27-H ) :   0.9670 B(  8-N ,  9-C ) :   1.1955 
B(  8-N , 28-H ) :   0.9524 B(  9-C , 10-S ) :   1.6090 B(  9-C , 11-N ) :   1.2898 
B( 11-N , 12-C ) :   0.9879 B( 11-N , 29-H ) :   0.9476 B( 12-C , 13-C ) :   0.9545 
B( 12-C , 30-H ) :   0.9945 B( 13-C , 14-C ) :   1.3903 B( 13-C , 19-C ) :   1.3360 
B( 14-C , 15-C ) :   1.4018 B( 14-C , 31-H ) :   0.9570 B( 15-C , 16-C ) :   1.3578 
B( 15-C , 32-H ) :   0.9701 B( 16-C , 17-C ) :   1.3317 B( 16-C , 33-H ) :   0.9848 
B( 17-C , 18-O ) :   1.1089 B( 17-C , 19-C ) :   1.3661 B( 18-O , 34-H ) :   0.9796 
B( 19-C , 35-H ) :   0.9568 

-------
TIMINGS
-------

Total SCF time: 0 days 1 hours 39 min 30 sec 

Total time                  ....    5970.439 sec
Sum of individual times     ....    5962.058 sec  ( 99.9%)

Fock matrix formation       ....    5935.563 sec  ( 99.4%)
Diagonalization             ....       4.494 sec  (  0.1%)
Density matrix formation    ....       0.195 sec  (  0.0%)
Population analysis         ....       0.634 sec  (  0.0%)
Initial guess               ....       5.117 sec  (  0.1%)
Orbital Transformation      ....       0.000 sec  (  0.0%)
Orbital Orthonormalization  ....       0.000 sec  (  0.0%)
DIIS solution               ....       9.033 sec  (  0.2%)
SOSCF solution              ....       5.865 sec  (  0.1%)

------------------------------------------------------------------------------
                                ORCA  MP2 
------------------------------------------------------------------------------

Freezing NCore=48 chemical core electrons

-------------
RI-MP2 ENERGY
-------------
Dimension of the basis                    ...  828
Memory devoted to MP2                     ...  256 MB   
Data format for buffers                   ... DOUBLE
Compression type for matrix containers    ... UNCOMPRESSED
Overall scaling of the MP2 energy         ...   1.000e+00
Calculating two index integrals           ... done (    0.035 sec)
Cholesky decomposition of V**-1           ... done (    1.631 sec)

-----------------
RI-TRANSFORMATION (AUX index driven)
-----------------

Dimension of the orbital-basis         ... 828
Dimension of the aux-basis             ... 2141
Transformation of internal/external MOs...   24-  76 to   77- 827
Number Format for Storage              ... Double (8 Byte)
Integral mode                          ... Direct

First Phase: integral generation and transformation of MO indices
  Aux angular momentum 0               ... done (    8.543 sec)
  Aux angular momentum 1               ... done (   17.301 sec)
  Aux angular momentum 2               ... done (   23.597 sec)
  Aux angular momentum 3               ... done (   19.325 sec)
  Aux angular momentum 4               ... done (    6.710 sec)
Closing buffer VIA ( 0.63 GB; CompressionRatio= 1.00)
  Phase 1 completed in    75.918 sec
Second Phase: sorting and transformation of aux index

IA-Transformation
Memory available                       ... 167 MB 
Max. # MO pairs treated in a batch     ... 12    
# of internal orbitals                 ... 53
# batches for internal orbitals        ... 5
Closing buffer IAV ( 0.63 GB; CompressionRatio= 1.00)
(ia|v) transformation done in    92.993 sec

  Phase 2 completed in    92.998 sec
RI-Integral transformation completed in   168.975 sec
Opening buffers                              ... done

Starting loop over batches of integrals:

Operator 0  - window                       ... ( 24- 76)x( 77-827)
Operator 0  - Memory available             ...   256 MB
Operator 0  - Memory needed per MO         ...  12.3 MB
Operator 0  - Number of orbitals per batch ... 13
Operator 0  - Number of batches            ... 5

OPERATOR  0   PASS   0:  MOs    24 ...   36
  Reading integrals       ... ok
  Internal MO  26
  Internal MO  29
  Internal MO  32
  Internal MO  35
OPERATOR  0   PASS   1:  MOs    37 ...   49
  Reading integrals       ... ok
  Internal MO  38
  Internal MO  41
  Internal MO  44
  Internal MO  47
OPERATOR  0   PASS   2:  MOs    50 ...   62
  Reading integrals       ... ok
  Internal MO  50
  Internal MO  53
  Internal MO  56
  Internal MO  59
  Internal MO  62
OPERATOR  0   PASS   3:  MOs    63 ...   75
  Reading integrals       ... ok
  Internal MO  65
  Internal MO  68
  Internal MO  71
  Internal MO  74
OPERATOR  0   PASS   4:  MOs    76 ...   76
  Reading integrals       ... ok
Time spent in pair loops =   493.718 sec
Deleting buffer (Ka|jb)[aa] ...done

-----------------------------------------------
 RI-MP2 CORRELATION ENERGY:     -3.542481740 Eh
-----------------------------------------------


-------
TIMINGS
-------

Total time                :  664.517 sec
Integral trafo            :  168.998 sec ( 25.4%)
I/O of integrals          :    7.850 sec (  1.2%)
K(i,j) Operators          :  392.542 sec ( 59.1%)
T(i,j) pair energies      :    3.899 sec (  0.6%)
V-calculation             :    0.035 sec (  0.0%)
V**(-1/2)                 :    1.631 sec (  0.2%)
Gamma(ia|P)               :    0.000 sec (  0.0%)
Gamma-Trafo               :    0.000 sec (  0.0%)
D(virtual)                :    0.000 sec (  0.0%)
D(internal)               :    0.000 sec (  0.0%)
W(virtual)                :    0.000 sec (  0.0%)
W(internal)               :    0.000 sec (  0.0%)
L(virtual)                :    0.000 sec (  0.0%)
L(internal)               :    0.000 sec (  0.0%)
G(D)                      :    0.000 sec (  0.0%)
G(Z)                      :    0.000 sec (  0.0%)
Z-Vector Solution         :    0.000 sec (  0.0%)
3-Index Derivative        :    0.000 sec (  0.0%)
2-Index Derivative        :    0.000 sec (  0.0%)
Separable Gradient        :    0.000 sec (  0.0%)


---------------------------------------
MP2 TOTAL ENERGY:    -1274.330443966 Eh
---------------------------------------

-------------------------   --------------------
FINAL SINGLE POINT ENERGY     -1274.330443966357
-------------------------   --------------------


                            ***************************************
                            *     ORCA property calculations      *
                            ***************************************


  WARNING: The energy has been calculated at the MP2 level but the densities
           used in the property calculations are still SCF densities
           MP2 response densities have not been calculated 
           use %mp2 Density relaxed end
           or  %mp2 Density unrelaxed end

                                    ---------------------
                                    Active property flags
                                    ---------------------
   (+) Dipole Moment


------------------------------------------------------------------------------
                       ORCA ELECTRIC PROPERTIES CALCULATION
------------------------------------------------------------------------------

Dipole Moment Calculation                       ... on
Quadrupole Moment Calculation                   ... off
Polarizability Calculation                      ... off
GBWName                                         ... CONFS/Conf326.orca.gbw
Electron density file                           ... CONFS/Conf326.orca.scfp
The origin for moment calculation is the CENTER OF MASS  = (32.721840, 31.321071 35.229762)

-------------
DIPOLE MOMENT
-------------
                                X             Y             Z
Electronic contribution:      8.85531       6.45784       6.23150
Nuclear contribution   :    -10.35407      -7.42417      -6.90277
                        -----------------------------------------
Total Dipole Moment    :     -1.49876      -0.96633      -0.67126
                        -----------------------------------------
Magnitude (a.u.)       :      1.90543
Magnitude (Debye)      :      4.84322



--------------------
Rotational spectrum 
--------------------
 
Rotational constants in cm-1:     0.011823     0.009566     0.006742 
Rotational constants in MHz :   354.445763   286.777735   202.109348 

 Dipole components along the rotational axes: 
x,y,z [a.u.] :    -0.943209    -0.994890     1.323338 
x,y,z [Debye]:    -2.397447    -2.528809     3.363658 

 

Timings for individual modules:

Sum of individual times         ...     6637.689 sec (= 110.628 min)
GTO integral calculation        ...        1.952 sec (=   0.033 min)   0.0 %
SCF iterations                  ...     5970.493 sec (=  99.508 min)  89.9 %
MP2 module                      ...      665.244 sec (=  11.087 min)  10.0 %
                             ****ORCA TERMINATED NORMALLY****
TOTAL RUN TIME: 0 days 1 hours 50 minutes 39 seconds 126 msec
