
                                 *****************
                                 * O   R   C   A *
                                 *****************

           --- An Ab Initio, DFT and Semiempirical electronic structure package ---

                  #######################################################
                  #                        -***-                        #
                  #          Department of theory and spectroscopy      #
                  #               Directorship: Frank Neese             #
                  #        Max Planck Institute fuer Kohlenforschung    #
                  #                Kaiser Wilhelm Platz 1               #
                  #                 D-45470 Muelheim/Ruhr               #
                  #                      Germany                        #
                  #                                                     #
                  #                  All rights reserved                #
                  #                        -***-                        #
                  #######################################################


                         Program Version 4.2.0 -  RELEASE  -


 With contributions from (in alphabetic order):
   Daniel Aravena         : Magnetic Suceptibility
   Michael Atanasov       : Ab Initio Ligand Field Theory (pilot matlab implementation)
   Alexander A. Auer      : GIAO ZORA, VPT2
   Ute Becker             : Parallelization
   Giovanni Bistoni       : ED, misc. LED, open-shell LED, HFLED
   Martin Brehm           : Molecular dynamics
   Dmytro Bykov           : SCF Hessian
   Vijay G. Chilkuri      : MRCI spin determinant printing, contributions to CSF-ICE
   Dipayan Datta          : RHF DLPNO-CCSD density
   Achintya Kumar Dutta   : EOM-CC, STEOM-CC
   Dmitry Ganyushin       : Spin-Orbit,Spin-Spin,Magnetic field MRCI
   Miquel Garcia          : C-PCM Hessian, Gaussian charge scheme
   Yang Guo               : DLPNO-NEVPT2, CIM, IAO-localization
   Andreas Hansen         : Spin unrestricted coupled pair/coupled cluster methods
   Benjamin Helmich-Paris : CASSCF linear response (MC-RPA)
   Lee Huntington         : MR-EOM, pCC
   Robert Izsak           : Overlap fitted RIJCOSX, COSX-SCS-MP3, EOM
   Christian Kollmar      : KDIIS, OOCD, Brueckner-CCSD(T), CCSD density
   Simone Kossmann        : Meta GGA functionals, TD-DFT gradient, OOMP2, MP2 Hessian
   Martin Krupicka        : AUTO-CI
   Lucas Lang             : DCDCAS
   Dagmar Lenk            : GEPOL surface, SMD
   Dimitrios Liakos       : Extrapolation schemes; Compound Job, initial MDCI parallelization
   Dimitrios Manganas     : Further ROCIS development; embedding schemes
   Dimitrios Pantazis     : SARC Basis sets
   Taras Petrenko         : DFT Hessian,TD-DFT gradient, ASA, ECA, R-Raman, ABS, FL, XAS/XES, NRVS
   Peter Pinski           : DLPNO-MP2, DLPNO-MP2 Gradient
   Christoph Reimann      : Effective Core Potentials
   Marius Retegan         : Local ZFS, SOC
   Christoph Riplinger    : Optimizer, TS searches, QM/MM, DLPNO-CCSD(T), (RO)-DLPNO pert. Triples
   Tobias Risthaus        : Range-separated hybrids, TD-DFT gradient, RPA, STAB
   Michael Roemelt        : Original ROCIS implementation
   Masaaki Saitow         : Open-shell DLPNO-CCSD energy and density
   Barbara Sandhoefer     : DKH picture change effects
   Avijit Sen             : IP-ROCIS
   Kantharuban Sivalingam : CASSCF convergence, NEVPT2, FIC-MRCI
   Bernardo de Souza      : ESD, SOC TD-DFT
   Georgi Stoychev        : AutoAux, RI-MP2 NMR
   Willem Van den Heuvel  : Paramagnetic NMR
   Boris Wezisla          : Elementary symmetry handling
   Frank Wennmohs         : Technical directorship


 We gratefully acknowledge several colleagues who have allowed us to
 interface, adapt or use parts of their codes:
   Stefan Grimme, W. Hujo, H. Kruse,             : VdW corrections, initial TS optimization,
                  C. Bannwarth                     DFT functionals, gCP, sTDA/sTD-DF
   Ed Valeev, F. Pavosevic, A. Kumar             : LibInt (2-el integral package), F12 methods
   Garnet Chan, S. Sharma, J. Yang, R. Olivares  : DMRG
   Ulf Ekstrom                                   : XCFun DFT Library
   Mihaly Kallay                                 : mrcc  (arbitrary order and MRCC methods)
   Andreas Klamt, Michael Diedenhofen            : otool_cosmo (COSMO solvation model)
   Jiri Pittner, Ondrej Demel                    : Mk-CCSD
   Frank Weinhold                                : gennbo (NPA and NBO analysis)
   Christopher J. Cramer and Donald G. Truhlar   : smd solvation model
   Lars Goerigk                                  : TD-DFT with DH, B97 family of functionals
   V. Asgeirsson, H. Jonsson                     : NEB implementation
   FAccTs GmbH                                   : IRC, NEB, NEB-TS, Multilevel, MM, QM/MM, CI optimization
   S Lehtola, MJT Oliveira, MAL Marques          : LibXC Library


 Your calculation uses the libint2 library for the computation of 2-el integrals
 For citations please refer to: http://libint.valeyev.net

 Your ORCA version has been built with support for libXC version: 4.2.3
 For citations please refer to: https://tddft.org/programs/libxc/

 This ORCA versions uses:
   CBLAS   interface :  Fast vector & matrix operations
   LAPACKE interface :  Fast linear algebra routines
   SCALAPACK package :  Parallel linear algebra routines


----- Orbital basis set information -----
Your calculation utilizes the basis: cc-pVTZ 
       H, B-Ne : Obtained from the ccRepo (grant-hill.group.shef.ac.uk/ccrepo) Feb. 2017
                 T. H. Dunning, Jr., J. Chem. Phys. 90, 1007 (1989)
            He : Obtained from the ccRepo (grant-hill.group.shef.ac.uk/ccrepo) Feb. 2017
                 D. E. Woon, T. H. Dunning, Jr., J. Chem. Phys. 100, 2975 (1994)
  Li-Be, Na-Mg : Obtained from the ccRepo (grant-hill.group.shef.ac.uk/ccrepo) Feb. 2017
                 B. P. Prascher, D. E. Woon, K. A. Peterson, T. H. Dunning, Jr., A. K. Wilson, Theor. Chem. Acc. 128, 69 (2011)
         Al-Ar : Obtained from the ccRepo (grant-hill.group.shef.ac.uk/ccrepo) Feb. 2017
                 D. E. Woon, T. H. Dunning, Jr., J. Chem. Phys. 98, 1358 (1993)
            Ca : Obtained from the Peterson Research Group Website (tyr0.chem.wsu.edu/~kipeters) Feb. 2017
                 J. Koput, K. A. Peterson, J. Phys. Chem. 106, 9595 (2002)
         Sc-Zn : Obtained from the ccRepo (grant-hill.group.shef.ac.uk/ccrepo) Feb. 2017
                 N. B. Balabanov, K. A. Peterson, J. Chem. Phys. 123, 064107 (2005)
                 N. B. Balabanov, K. A. Peterson, J. Chem. Phys. 125, 074110 (2006)
         Ga-Kr : Obtained from the ccRepo (grant-hill.group.shef.ac.uk/ccrepo) Feb. 2017
                 A. K. Wilson, D. E. Woon, K. A. Peterson, T. H. Dunning, Jr., J. Chem. Phys. 110, 7667 (1999)
             Y : Obtained from the ccRepo (grant-hill.group.shef.ac.uk/ccrepo) Feb. 2017
                 K. A. Peterson, D. Figgen, M. Dolg, H. Stoll, J. Chem. Phys. 126, 124101 (2007)
        Ag, Au : Obtained from the Peterson Research Group Website (tyr0.chem.wsu.edu/~kipeters) Feb. 2017
                 K. A. Peterson, C. Puzzarini, Theor. Chem. Acc. 114, 283 (2005)

----- AuxC basis set information -----
Your calculation utilizes the auxiliary basis: cc-pVTZ/C 
  Obtained from the EMSL Basis Set Exchange (bse.pnl.gov) Feb. 2017
  H-He, B-F, Al-Ar, Ga-Kr : F. Weigend, A. Kohn, C. Hattig, J. Chem. Phys. 116, 3175 (2002)
             Li-Be, Na-Mg : C. Haettig, Phys. Chem. Chem. Phys. 7, 59 (2005)
                       Ne : C. Haettig, Phys. Chem. Chem. Phys. 7, 59 (2005)
                            F. Weigend, A. Kohn, C. Hattig, J. Chem. Phys. 116, 3175 (2002)
                    Sc-Zn : J. G. Hill, J. A. Platts, J. Chem. Phys. 128, 044104 (2008)

================================================================================
                                        WARNINGS
                       Please study these warnings very carefully!
================================================================================


WARNING: No MP2 level density has been requested!
         To caclulate MP2 level properties use
         %mp2 Density relaxed end
         or
         %mp2 Density unrelaxed end

WARNING: Post HF methods need fully converged wavefunctions
  ===> : Setting SCFConvForced true
         You can overwrite this default with %scf ConvForced false 


INFO   : the flag for use of LIBINT has been found!

================================================================================
                                       INPUT FILE
================================================================================
NAME = CONFS/Conf839.orca
|  1> ! ri-mp2 cc-pvtz cc-pvtz/c TightSCF  NoKeepInts
|  2> 
|  3> %scf
|  4>   MaxCore 4096
|  5> end
|  6> *xyz  0  1
|  7>     C       14.2540814   14.8783646   15.2634895
|  8>     C       15.7734178   14.6486443   15.3280349
|  9>     O       16.3538839   15.8109054   15.9459314
| 10>     C       17.4161389   15.6707380   16.7911354
| 11>     O       18.0271430   14.6199803   16.9009034
| 12>     C       17.7245428   16.8774643   17.6336332
| 13>     C       17.1860521   18.1152565   17.4670432
| 14>     C       16.1769921   18.5699992   16.4319603
| 15>     N       17.6098262   19.1711680   18.2815303
| 16>     C       18.6565748   19.1116454   19.1629623
| 17>     S       19.1798440   20.4466719   19.9873197
| 18>     N       19.2476909   17.8850145   19.3255720
| 19>     C       18.7376567   16.6237670   18.7566343
| 20>     C       18.1359836   15.7487371   19.8535090
| 21>     C       18.5864215   14.4284973   20.0386235
| 22>     C       18.0354546   13.6175918   21.0450087
| 23>     C       17.0243047   14.1302299   21.8752721
| 24>     C       16.5700834   15.4433193   21.6922120
| 25>     O       15.5895808   15.9393604   22.4884425
| 26>     C       17.1201347   16.2478883   20.6894138
| 27>     H       13.8408415   15.0155220   16.2706318
| 28>     H       13.7547042   14.0175493   14.8023226
| 29>     H       14.0221489   15.7699938   14.6679404
| 30>     H       15.9610539   13.7446540   15.9240733
| 31>     H       16.1919974   14.4978873   14.3244751
| 32>     H       16.5308031   18.3441142   15.4183042
| 33>     H       15.9827797   19.6485706   16.4726750
| 34>     H       15.2166472   18.0596051   16.5773464
| 35>     H       17.1885401   20.0802449   18.1769345
| 36>     H       19.9964480   17.8593453   20.0057156
| 37>     H       19.5934561   16.0881329   18.3208116
| 38>     H       19.3562766   14.0237699   19.3861213
| 39>     H       18.3885239   12.5959772   21.1731393
| 40>     H       16.5946361   13.5067648   22.6521551
| 41>     H       15.3660314   15.2523444   23.1340114
| 42>     H       16.7563043   17.2622807   20.5687109
| 43> *
| 44> 
| 45>                          ****END OF INPUT****
================================================================================

                       ****************************
                       * Single Point Calculation *
                       ****************************

---------------------------------
CARTESIAN COORDINATES (ANGSTROEM)
---------------------------------
  C     14.254081   14.878365   15.263490
  C     15.773418   14.648644   15.328035
  O     16.353884   15.810905   15.945931
  C     17.416139   15.670738   16.791135
  O     18.027143   14.619980   16.900903
  C     17.724543   16.877464   17.633633
  C     17.186052   18.115257   17.467043
  C     16.176992   18.569999   16.431960
  N     17.609826   19.171168   18.281530
  C     18.656575   19.111645   19.162962
  S     19.179844   20.446672   19.987320
  N     19.247691   17.885015   19.325572
  C     18.737657   16.623767   18.756634
  C     18.135984   15.748737   19.853509
  C     18.586422   14.428497   20.038623
  C     18.035455   13.617592   21.045009
  C     17.024305   14.130230   21.875272
  C     16.570083   15.443319   21.692212
  O     15.589581   15.939360   22.488443
  C     17.120135   16.247888   20.689414
  H     13.840841   15.015522   16.270632
  H     13.754704   14.017549   14.802323
  H     14.022149   15.769994   14.667940
  H     15.961054   13.744654   15.924073
  H     16.191997   14.497887   14.324475
  H     16.530803   18.344114   15.418304
  H     15.982780   19.648571   16.472675
  H     15.216647   18.059605   16.577346
  H     17.188540   20.080245   18.176935
  H     19.996448   17.859345   20.005716
  H     19.593456   16.088133   18.320812
  H     19.356277   14.023770   19.386121
  H     18.388524   12.595977   21.173139
  H     16.594636   13.506765   22.652155
  H     15.366031   15.252344   23.134011
  H     16.756304   17.262281   20.568711

----------------------------
CARTESIAN COORDINATES (A.U.)
----------------------------
  NO LB      ZA    FRAG     MASS         X           Y           Z
   0 C     6.0000    0    12.011   26.936310   28.116034   28.843815
   1 C     6.0000    0    12.011   29.807440   27.681926   28.965788
   2 O     8.0000    0    15.999   30.904362   29.878281   30.133443
   3 C     6.0000    0    12.011   32.911733   29.613403   31.730647
   4 O     8.0000    0    15.999   34.066363   27.627759   31.938079
   5 C     6.0000    0    12.011   33.494532   31.893785   33.322737
   6 C     6.0000    0    12.011   32.476932   34.232874   33.007928
   7 C     6.0000    0    12.011   30.570085   35.092213   31.051905
   8 N     7.0000    0    14.007   33.277749   36.228257   34.547086
   9 C     6.0000    0    12.011   35.255817   36.115776   36.212751
  10 S    16.0000    0    32.060   36.244652   38.638610   37.770560
  11 N     7.0000    0    14.007   36.372865   33.797779   36.520038
  12 C     6.0000    0    12.011   35.409040   31.414367   35.444902
  13 C     6.0000    0    12.011   34.272042   29.760800   37.517695
  14 C     6.0000    0    12.011   35.123246   27.265908   37.867511
  15 C     6.0000    0    12.011   34.082070   25.733519   39.769303
  16 C     6.0000    0    12.011   32.171274   26.702265   41.338273
  17 C     6.0000    0    12.011   31.312920   29.183644   40.992340
  18 O     8.0000    0    15.999   29.460038   30.121026   42.496998
  19 C     6.0000    0    12.011   32.352366   30.704059   39.097326
  20 H     1.0000    0     1.008   26.155400   28.375224   30.747038
  21 H     1.0000    0     1.008   25.992624   26.489329   27.972336
  22 H     1.0000    0     1.008   26.498021   29.800969   27.718390
  23 H     1.0000    0     1.008   30.162021   25.973632   30.092137
  24 H     1.0000    0     1.008   30.598441   27.397037   27.069335
  25 H     1.0000    0     1.008   31.238691   34.665352   29.136372
  26 H     1.0000    0     1.008   30.203076   37.130417   31.128844
  27 H     1.0000    0     1.008   28.755296   34.127708   31.326645
  28 H     1.0000    0     1.008   32.481633   37.946164   34.349428
  29 H     1.0000    0     1.008   37.787810   33.749272   37.805324
  30 H     1.0000    0     1.008   37.026266   30.402165   34.621316
  31 H     1.0000    0     1.008   36.578062   26.501084   36.634460
  32 H     1.0000    0     1.008   34.749274   23.802947   40.011435
  33 H     1.0000    0     1.008   31.359318   25.524086   42.806369
  34 H     1.0000    0     1.008   29.037591   28.822754   43.716946
  35 H     1.0000    0     1.008   31.664826   32.620983   38.869231

--------------------------------
INTERNAL COORDINATES (ANGSTROEM)
--------------------------------
 C      0   0   0     0.000000000000     0.00000000     0.00000000
 C      1   0   0     1.537959889353     0.00000000     0.00000000
 O      2   1   0     1.438606215243   107.21494026     0.00000000
 C      3   2   1     1.364698643168   119.80838904   143.14292656
 O      4   3   2     1.220437121752   122.26424178    10.96928521
 C      4   3   2     1.503696735267   115.10141169   194.45487039
 C      6   4   3     1.360093376378   125.48682054   348.98971085
 C      7   6   4     1.515384313194   128.34523152     0.12886654
 N      7   6   4     1.399257953249   119.70683400   183.16453754
 C      9   7   6     1.369725498827   124.97566716     7.86870115
 S     10   9   7     1.653986558079   121.83153933   174.27941622
 N     10   9   7     1.371307231458   116.39751083   354.26950589
 C     12  10   9     1.474642413573   124.76518939   352.14659155
 C     13  12  10     1.526702968052   110.44603699   252.70754804
 C     14  13  12     1.407193948740   120.40414389   234.94361224
 C     15  14  13     1.404970969666   120.67750406   180.08972753
 C     16  15  14     1.405190113551   119.66038082     0.00000000
 C     17  16  15     1.401439175269   119.85876826     0.17628099
 O     18  17  16     1.356991205066   120.00289181   179.70581157
 C     18  17  16     1.398389051128   120.34900035   359.84165313
 H      1   2   3     1.097230595534   110.62249987   300.03814478
 H      1   2   3     1.096838857011   110.49922479   180.22082356
 H      1   2   3     1.097029646527   110.67351573    60.31018644
 H      2   1   3     1.098939280758   108.31901325   120.17251861
 H      2   1   3     1.097756269288   111.02855873   239.24323745
 H      8   7   6     1.097134880502   110.76638064   305.11753029
 H      8   7   6     1.096673336964   112.81108292   185.08627967
 H      8   7   6     1.097224490405   110.65331285    64.85265634
 H      9   7   6     1.007394197692   119.59626424   181.97717234
 H     12  10   9     1.011875199444   114.92099363   182.08080984
 H     13  12  10     1.099653549059   107.47825142   134.88130327
 H     15  14  13     1.087308725391   119.79673733   359.00411464
 H     16  15  14     1.088472219302   119.92285930   179.60027385
 H     17  16  15     1.084836869042   119.89866417   179.86646350
 H     19  18  17     0.968877971235   107.36610347     2.25413536
 H     20  18  17     1.084404763550   119.08163982   180.26477997

---------------------------
INTERNAL COORDINATES (A.U.)
---------------------------
 C      0   0   0     0.000000000000     0.00000000     0.00000000
 C      1   0   0     2.906322995833     0.00000000     0.00000000
 O      2   1   0     2.718571761365   107.21494026     0.00000000
 C      3   2   1     2.578906690921   119.80838904   143.14292656
 O      4   3   2     2.306291923782   122.26424178    10.96928521
 C      4   3   2     2.841575018126   115.10141169   194.45487039
 C      6   4   3     2.570203997915   125.48682054   348.98971085
 C      7   6   4     2.863661339578   128.34523152     0.12886654
 N      7   6   4     2.644214322351   119.70683400   183.16453754
 C      9   7   6     2.588406071432   124.97566716     7.86870115
 S     10   9   7     3.125581623956   121.83153933   174.27941622
 N     10   9   7     2.591395112921   116.39751083   354.26950589
 C     12  10   9     2.786670307117   124.76518939   352.14659155
 C     13  12  10     2.885050497462   110.44603699   252.70754804
 C     14  13  12     2.659211180430   120.40414389   234.94361224
 C     15  14  13     2.655010358779   120.67750406   180.08972753
 C     16  15  14     2.655424480705   119.66038082     0.00000000
 C     17  16  15     2.648336234606   119.85876826     0.17628099
 O     18  17  16     2.564341743714   120.00289181   179.70581157
 C     18  17  16     2.642572335307   120.34900035   359.84165313
 H      1   2   3     2.073465331319   110.62249987   300.03814478
 H      1   2   3     2.072725052794   110.49922479   180.22082356
 H      1   2   3     2.073085592729   110.67351573    60.31018644
 H      2   1   3     2.076694278440   108.31901325   120.17251861
 H      2   1   3     2.074458710750   111.02855873   239.24323745
 H      8   7   6     2.073284456120   110.76638064   305.11753029
 H      8   7   6     2.072412265236   112.81108292   185.08627967
 H      8   7   6     2.073453794296   110.65331285    64.85265634
 H      9   7   6     1.903699142540   119.59626424   181.97717234
 H     12  10   9     1.912167008656   114.92099363   182.08080984
 H     13  12  10     2.078044049916   107.47825142   134.88130327
 H     15  14  13     2.054715714012   119.79673733   359.00411464
 H     16  15  14     2.056914398862   119.92285930   179.60027385
 H     17  16  15     2.050044582470   119.89866417   179.86646350
 H     19  18  17     1.830914022823   107.36610347     2.25413536
 H     20  18  17     2.049228021429   119.08163982   180.26477997

---------------------
BASIS SET INFORMATION
---------------------
There are 5 groups of distinct atoms

 Group   1 Type C   : 18s5p2d1f contracted to 4s3p2d1f pattern {8811/311/11/1}
 Group   2 Type O   : 18s5p2d1f contracted to 4s3p2d1f pattern {8811/311/11/1}
 Group   3 Type N   : 18s5p2d1f contracted to 4s3p2d1f pattern {8811/311/11/1}
 Group   4 Type S   : 41s16p2d1f contracted to 5s4p2d1f pattern {13131311/7711/11/1}
 Group   5 Type H   : 5s2p1d contracted to 3s2p1d pattern {311/11/1}

Atom   0C    basis set group =>   1
Atom   1C    basis set group =>   1
Atom   2O    basis set group =>   2
Atom   3C    basis set group =>   1
Atom   4O    basis set group =>   2
Atom   5C    basis set group =>   1
Atom   6C    basis set group =>   1
Atom   7C    basis set group =>   1
Atom   8N    basis set group =>   3
Atom   9C    basis set group =>   1
Atom  10S    basis set group =>   4
Atom  11N    basis set group =>   3
Atom  12C    basis set group =>   1
Atom  13C    basis set group =>   1
Atom  14C    basis set group =>   1
Atom  15C    basis set group =>   1
Atom  16C    basis set group =>   1
Atom  17C    basis set group =>   1
Atom  18O    basis set group =>   2
Atom  19C    basis set group =>   1
Atom  20H    basis set group =>   5
Atom  21H    basis set group =>   5
Atom  22H    basis set group =>   5
Atom  23H    basis set group =>   5
Atom  24H    basis set group =>   5
Atom  25H    basis set group =>   5
Atom  26H    basis set group =>   5
Atom  27H    basis set group =>   5
Atom  28H    basis set group =>   5
Atom  29H    basis set group =>   5
Atom  30H    basis set group =>   5
Atom  31H    basis set group =>   5
Atom  32H    basis set group =>   5
Atom  33H    basis set group =>   5
Atom  34H    basis set group =>   5
Atom  35H    basis set group =>   5
---------------------------------
AUXILIARY/C BASIS SET INFORMATION
---------------------------------
There are 5 groups of distinct atoms

 Group   1 Type C   : 8s6p5d3f1g contracted to 8s6p5d3f1g pattern {11111111/111111/11111/111/1}
 Group   2 Type O   : 8s6p5d3f1g contracted to 8s6p5d3f1g pattern {11111111/111111/11111/111/1}
 Group   3 Type N   : 8s6p5d3f1g contracted to 8s6p5d3f1g pattern {11111111/111111/11111/111/1}
 Group   4 Type S   : 10s8p7d5f2g contracted to 10s8p7d5f2g pattern {1111111111/11111111/1111111/11111/11}
 Group   5 Type H   : 4s3p2d1f contracted to 4s3p2d1f pattern {1111/111/11/1}

Atom   0C    basis set group =>   1
Atom   1C    basis set group =>   1
Atom   2O    basis set group =>   2
Atom   3C    basis set group =>   1
Atom   4O    basis set group =>   2
Atom   5C    basis set group =>   1
Atom   6C    basis set group =>   1
Atom   7C    basis set group =>   1
Atom   8N    basis set group =>   3
Atom   9C    basis set group =>   1
Atom  10S    basis set group =>   4
Atom  11N    basis set group =>   3
Atom  12C    basis set group =>   1
Atom  13C    basis set group =>   1
Atom  14C    basis set group =>   1
Atom  15C    basis set group =>   1
Atom  16C    basis set group =>   1
Atom  17C    basis set group =>   1
Atom  18O    basis set group =>   2
Atom  19C    basis set group =>   1
Atom  20H    basis set group =>   5
Atom  21H    basis set group =>   5
Atom  22H    basis set group =>   5
Atom  23H    basis set group =>   5
Atom  24H    basis set group =>   5
Atom  25H    basis set group =>   5
Atom  26H    basis set group =>   5
Atom  27H    basis set group =>   5
Atom  28H    basis set group =>   5
Atom  29H    basis set group =>   5
Atom  30H    basis set group =>   5
Atom  31H    basis set group =>   5
Atom  32H    basis set group =>   5
Atom  33H    basis set group =>   5
Atom  34H    basis set group =>   5
Atom  35H    basis set group =>   5
------------------------------------------------------------------------------
                           ORCA GTO INTEGRAL CALCULATION
------------------------------------------------------------------------------

                         BASIS SET STATISTICS AND STARTUP INFO

 # of primitive gaussian shells          ...  682
 # of primitive gaussian functions       ... 1312
 # of contracted shells                  ...  298
 # of contracted basis functions         ...  828
 Highest angular momentum                ...    3
 Maximum contraction depth               ...   13
 Integral package used                   ... LIBINT
 Integral threshhold            Thresh   ...  2.500e-11
 Primitive cut-off              TCut     ...  2.500e-12


------------------------------ INTEGRAL EVALUATION ----------------------------


 * One electron integrals 
 Pre-screening matrix                    ... done
 Shell pair data                         ... done (   0.014 sec)

-------------------------------------------------------------------------------
                                 ORCA SCF
-------------------------------------------------------------------------------

------------
SCF SETTINGS
------------
Hamiltonian:
 Ab initio Hamiltonian  Method          .... Hartree-Fock(GTOs)


General Settings:
 Integral files         IntName         .... CONFS/Conf839.orca
 Hartree-Fock type      HFTyp           .... RHF
 Total Charge           Charge          ....    0
 Multiplicity           Mult            ....    1
 Number of Electrons    NEL             ....  154
 Basis Dimension        Dim             ....  828
 Nuclear Repulsion      ENuc            ....   1684.3731106872 Eh

Convergence Acceleration:
 DIIS                   CNVDIIS         .... on
   Start iteration      DIISMaxIt       ....    12
   Startup error        DIISStart       ....  0.200000
   # of expansion vecs  DIISMaxEq       ....     5
   Bias factor          DIISBfac        ....   1.050
   Max. coefficient     DIISMaxC        ....  10.000
 Newton-Raphson         CNVNR           .... off
 SOSCF                  CNVSOSCF        .... on
   Start iteration      SOSCFMaxIt      ....   150
   Startup grad/error   SOSCFStart      ....  0.003300
 Level Shifting         CNVShift        .... on
   Level shift para.    LevelShift      ....    0.2500
   Turn off err/grad.   ShiftErr        ....    0.0010
 Zerner damping         CNVZerner       .... off
 Static damping         CNVDamp         .... on
   Fraction old density DampFac         ....    0.7000
   Max. Damping (<1)    DampMax         ....    0.9800
   Min. Damping (>=0)   DampMin         ....    0.0000
   Turn off err/grad.   DampErr         ....    0.1000
 Fernandez-Rico         CNVRico         .... off

SCF Procedure:
 Maximum # iterations   MaxIter         ....   125
 SCF integral mode      SCFMode         .... Direct
   Integral package                     .... LIBINT
 Reset frequency        DirectResetFreq ....    20
 Integral Threshold     Thresh          ....  2.500e-11 Eh
 Primitive CutOff       TCut            ....  2.500e-12 Eh

Convergence Tolerance:
 Convergence Check Mode ConvCheckMode   .... Total+1el-Energy
 Convergence forced     ConvForced      .... 1
 Energy Change          TolE            ....  1.000e-08 Eh
 1-El. energy change                    ....  1.000e-05 Eh
 Orbital Gradient       TolG            ....  1.000e-05
 Orbital Rotation angle TolX            ....  1.000e-05
 DIIS Error             TolErr          ....  5.000e-07


Diagonalization of the overlap matrix:
Smallest eigenvalue                        ... 3.490e-05
Time for diagonalization                   ...    0.138 sec
Threshold for overlap eigenvalues          ... 1.000e-08
Number of eigenvalues below threshold      ... 0
Time for construction of square roots      ...    0.154 sec
Total time needed                          ...    0.295 sec

-------------------
DFT GRID GENERATION
-------------------

General Integration Accuracy     IntAcc      ...  4.340
Radial Grid Type                 RadialGrid  ... Gauss-Chebyshev
Angular Grid (max. acc.)         AngularGrid ... Lebedev-110
Angular grid pruning method      GridPruning ... 3 (G Style)
Weight generation scheme         WeightScheme... Becke
Basis function cutoff            BFCut       ...    1.0000e-11
Integration weight cutoff        WCut        ...    1.0000e-14
Grids for H and He will be reduced by one unit

# of grid points (after initial pruning)     ...  46246 (   0.0 sec)
# of grid points (after weights+screening)   ...  41464 (   0.3 sec)
nearest neighbour list constructed           ...    0.0 sec
Grid point re-assignment to atoms done       ...    0.0 sec
Grid point division into batches done        ...    0.0 sec
Reduced shell lists constructed in    1.1 sec

Total number of grid points                  ...    41464
Total number of batches                      ...      666
Average number of points per batch           ...       62
Average number of grid points per atom       ...     1152
Average number of shells per batch           ...   144.26 (48.41%)
Average number of basis functions per batch  ...   365.93 (44.19%)
Average number of large shells per batch     ...    92.06 (63.82%)
Average number of large basis fcns per batch ...   237.97 (65.03%)
Maximum spatial batch extension              ...  25.57, 20.03, 20.05 au
Average spatial batch extension              ...   3.68,  3.40,  3.47 au

Time for grid setup =    1.579 sec

------------------------------
INITIAL GUESS: MODEL POTENTIAL
------------------------------
Loading Hartree-Fock densities                     ... done
Calculating cut-offs                               ... done
Setting up the integral package                    ... done
Initializing the effective Hamiltonian             ... done
Starting the Coulomb interaction                   ... done (   4.3 sec)
Reading the grid                                   ... done
Mapping shells                                     ... done
Starting the XC term evaluation                    ... done (   1.3 sec)
Transforming the Hamiltonian                       ... done (   0.1 sec)
Diagonalizing the Hamiltonian                      ... done (   0.1 sec)
Back transforming the eigenvectors                 ... done (   0.0 sec)
Now organizing SCF variables                       ... done
                      ------------------
                      INITIAL GUESS DONE (   7.9 sec)
                      ------------------
--------------
SCF ITERATIONS
--------------
ITER       Energy         Delta-E        Max-DP      RMS-DP      [F,P]     Damp
               ***  Starting incremental Fock matrix formation  ***
  0  -1270.0204000457   0.000000000000 0.04933283  0.00043600  0.3090075 0.7000
  1  -1270.2886975692  -0.268297523514 0.03609163  0.00035156  0.1793475 0.7000
                               ***Turning on DIIS***
  2  -1270.4559628309  -0.167265261716 0.02584444  0.00023652  0.1097509 0.7000
  3  -1272.6014236131  -2.145460782202 0.06315004  0.00051266  0.0829813 0.0000
  4  -1270.7649898775   1.836433735628 0.00744852  0.00009355  0.0069844 0.0000
  5  -1270.8271668936  -0.062177016095 0.00383388  0.00005022  0.0038601 0.0000
                      *** Initiating the SOSCF procedure ***
                           *** Shutting down DIIS ***
                      *** Re-Reading the Fockian *** 
                      *** Removing any level shift *** 
ITER      Energy       Delta-E        Grad      Rot      Max-DP    RMS-DP
  6  -1270.80505945   0.0221074485  0.001783  0.001783  0.001733  0.000025
               *** Restarting incremental Fock matrix formation ***
  7  -1270.81931954  -0.0142600918  0.000757  0.001937  0.001261  0.000015
  8  -1270.81936452  -0.0000449820  0.000430  0.002240  0.001373  0.000016
  9  -1270.81938119  -0.0000166686  0.000166  0.000316  0.000349  0.000004
 10  -1270.81938321  -0.0000020258  0.000043  0.000116  0.000109  0.000001
 11  -1270.81938341  -0.0000001956  0.000022  0.000113  0.000058  0.000001
 12  -1270.81938346  -0.0000000540  0.000008  0.000030  0.000028  0.000000
 13  -1270.81938346  -0.0000000006  0.000003  0.000009  0.000005  0.000000
                  ***Gradient check signals convergence***
              ***Rediagonalizing the Fockian in SOSCF/NRSCF***

               *****************************************************
               *                     SUCCESS                       *
               *           SCF CONVERGED AFTER  14 CYCLES          *
               *****************************************************


----------------
TOTAL SCF ENERGY
----------------

Total Energy       :        -1270.81938346 Eh          -34580.75348 eV

Components:
Nuclear Repulsion  :         1684.37311069 Eh           45834.12250 eV
Electronic Energy  :        -2955.19249414 Eh          -80414.87598 eV
One Electron Energy:        -5090.18656709 Eh         -138511.01825 eV
Two Electron Energy:         2134.99407294 Eh           58096.14228 eV

Virial components:
Potential Energy   :        -2539.75348020 Eh          -69110.20569 eV
Kinetic Energy     :         1268.93409674 Eh           34529.45222 eV
Virial Ratio       :            2.00148572


---------------
SCF CONVERGENCE
---------------

  Last Energy change         ...    8.4324e-09  Tolerance :   1.0000e-08
  Last MAX-Density change    ...    1.5802e-06  Tolerance :   1.0000e-07
  Last RMS-Density change    ...    2.8538e-08  Tolerance :   5.0000e-09
  Last Orbital Gradient      ...    1.2566e-06  Tolerance :   1.0000e-05
  Last Orbital Rotation      ...    3.1523e-06  Tolerance :   1.0000e-05

             **** THE GBW FILE WAS UPDATED (CONFS/Conf839.orca.gbw) ****
             **** DENSITY FILE WAS UPDATED (CONFS/Conf839.orca.scfp) ****
             **** ENERGY FILE WAS UPDATED (CONFS/Conf839.orca.en.tmp) ****
             **** THE GBW FILE WAS UPDATED (CONFS/Conf839.orca.gbw) ****
             **** DENSITY FILE WAS UPDATED (CONFS/Conf839.orca.scfp) ****
----------------
ORBITAL ENERGIES
----------------

  NO   OCC          E(Eh)            E(eV) 
   0   2.0000     -91.888093     -2500.4021 
   1   2.0000     -20.604867      -560.6869 
   2   2.0000     -20.591083      -560.3118 
   3   2.0000     -20.544407      -559.0417 
   4   2.0000     -15.628684      -425.2781 
   5   2.0000     -15.606520      -424.6750 
   6   2.0000     -11.395710      -310.0930 
   7   2.0000     -11.382821      -309.7423 
   8   2.0000     -11.337285      -308.5032 
   9   2.0000     -11.306797      -307.6736 
  10   2.0000     -11.304970      -307.6239 
  11   2.0000     -11.299316      -307.4700 
  12   2.0000     -11.260891      -306.4244 
  13   2.0000     -11.259011      -306.3733 
  14   2.0000     -11.252723      -306.2022 
  15   2.0000     -11.246858      -306.0426 
  16   2.0000     -11.236555      -305.7622 
  17   2.0000     -11.234674      -305.7110 
  18   2.0000     -11.232756      -305.6588 
  19   2.0000     -11.229574      -305.5722 
  20   2.0000      -8.893152      -241.9950 
  21   2.0000      -6.574728      -178.9074 
  22   2.0000      -6.572723      -178.8529 
  23   2.0000      -6.572136      -178.8369 
  24   2.0000      -1.454690       -39.5841 
  25   2.0000      -1.410817       -38.3903 
  26   2.0000      -1.357086       -36.9282 
  27   2.0000      -1.339515       -36.4501 
  28   2.0000      -1.236952       -33.6592 
  29   2.0000      -1.151482       -31.3334 
  30   2.0000      -1.119234       -30.4559 
  31   2.0000      -1.044847       -28.4317 
  32   2.0000      -1.036859       -28.2144 
  33   2.0000      -1.008860       -27.4525 
  34   2.0000      -0.997566       -27.1451 
  35   2.0000      -0.983163       -26.7532 
  36   2.0000      -0.920779       -25.0557 
  37   2.0000      -0.890006       -24.2183 
  38   2.0000      -0.847088       -23.0504 
  39   2.0000      -0.834495       -22.7078 
  40   2.0000      -0.827102       -22.5066 
  41   2.0000      -0.816699       -22.2235 
  42   2.0000      -0.762608       -20.7516 
  43   2.0000      -0.735978       -20.0270 
  44   2.0000      -0.724280       -19.7087 
  45   2.0000      -0.690893       -18.8002 
  46   2.0000      -0.685000       -18.6398 
  47   2.0000      -0.679633       -18.4938 
  48   2.0000      -0.674748       -18.3608 
  49   2.0000      -0.659993       -17.9593 
  50   2.0000      -0.648423       -17.6445 
  51   2.0000      -0.643588       -17.5129 
  52   2.0000      -0.634609       -17.2686 
  53   2.0000      -0.601146       -16.3580 
  54   2.0000      -0.599649       -16.3173 
  55   2.0000      -0.594986       -16.1904 
  56   2.0000      -0.589978       -16.0541 
  57   2.0000      -0.586496       -15.9594 
  58   2.0000      -0.572796       -15.5866 
  59   2.0000      -0.563232       -15.3263 
  60   2.0000      -0.561529       -15.2800 
  61   2.0000      -0.556989       -15.1564 
  62   2.0000      -0.538184       -14.6447 
  63   2.0000      -0.525247       -14.2927 
  64   2.0000      -0.516806       -14.0630 
  65   2.0000      -0.510025       -13.8785 
  66   2.0000      -0.500200       -13.6111 
  67   2.0000      -0.495188       -13.4747 
  68   2.0000      -0.480627       -13.0785 
  69   2.0000      -0.465747       -12.6736 
  70   2.0000      -0.457897       -12.4600 
  71   2.0000      -0.455586       -12.3971 
  72   2.0000      -0.354411        -9.6440 
  73   2.0000      -0.343434        -9.3453 
  74   2.0000      -0.327166        -8.9026 
  75   2.0000      -0.315503        -8.5853 
  76   2.0000      -0.313045        -8.5184 
  77   0.0000       0.075910         2.0656 
  78   0.0000       0.114074         3.1041 
  79   0.0000       0.120524         3.2796 
  80   0.0000       0.136274         3.7082 
  81   0.0000       0.139017         3.7828 
  82   0.0000       0.147485         4.0133 
  83   0.0000       0.153431         4.1751 
  84   0.0000       0.163198         4.4408 
  85   0.0000       0.165259         4.4969 
  86   0.0000       0.171147         4.6571 
  87   0.0000       0.174328         4.7437 
  88   0.0000       0.188730         5.1356 
  89   0.0000       0.194081         5.2812 
  90   0.0000       0.204442         5.5632 
  91   0.0000       0.210804         5.7363 
  92   0.0000       0.214053         5.8247 
  93   0.0000       0.214821         5.8456 
  94   0.0000       0.224351         6.1049 
  95   0.0000       0.236685         6.4405 
  96   0.0000       0.240813         6.5528 
  97   0.0000       0.247195         6.7265 
  98   0.0000       0.254814         6.9338 
  99   0.0000       0.273328         7.4376 
 100   0.0000       0.301121         8.1939 
 101   0.0000       0.309621         8.4252 
 102   0.0000       0.318360         8.6630 
 103   0.0000       0.322698         8.7811 
 104   0.0000       0.325501         8.8573 
 105   0.0000       0.329308         8.9609 
 106   0.0000       0.341984         9.3059 
 107   0.0000       0.352767         9.5993 
 108   0.0000       0.358793         9.7632 
 109   0.0000       0.367462         9.9992 
 110   0.0000       0.372730        10.1425 
 111   0.0000       0.380908        10.3650 
 112   0.0000       0.385248        10.4831 
 113   0.0000       0.390492        10.6258 
 114   0.0000       0.393018        10.6946 
 115   0.0000       0.408534        11.1168 
 116   0.0000       0.420960        11.4549 
 117   0.0000       0.423173        11.5151 
 118   0.0000       0.431575        11.7438 
 119   0.0000       0.439856        11.9691 
 120   0.0000       0.440689        11.9918 
 121   0.0000       0.444797        12.1035 
 122   0.0000       0.454505        12.3677 
 123   0.0000       0.455644        12.3987 
 124   0.0000       0.461850        12.5676 
 125   0.0000       0.466079        12.6827 
 126   0.0000       0.472779        12.8650 
 127   0.0000       0.484746        13.1906 
 128   0.0000       0.493314        13.4238 
 129   0.0000       0.501056        13.6344 
 130   0.0000       0.501784        13.6542 
 131   0.0000       0.506549        13.7839 
 132   0.0000       0.514620        14.0035 
 133   0.0000       0.521648        14.1948 
 134   0.0000       0.525758        14.3066 
 135   0.0000       0.532203        14.4820 
 136   0.0000       0.535385        14.5686 
 137   0.0000       0.541183        14.7263 
 138   0.0000       0.544974        14.8295 
 139   0.0000       0.546790        14.8789 
 140   0.0000       0.553368        15.0579 
 141   0.0000       0.561175        15.2703 
 142   0.0000       0.570529        15.5249 
 143   0.0000       0.573712        15.6115 
 144   0.0000       0.579629        15.7725 
 145   0.0000       0.582538        15.8517 
 146   0.0000       0.586481        15.9590 
 147   0.0000       0.590994        16.0818 
 148   0.0000       0.596380        16.2283 
 149   0.0000       0.596540        16.2327 
 150   0.0000       0.605558        16.4781 
 151   0.0000       0.610436        16.6108 
 152   0.0000       0.611919        16.6512 
 153   0.0000       0.615068        16.7369 
 154   0.0000       0.619851        16.8670 
 155   0.0000       0.623191        16.9579 
 156   0.0000       0.628652        17.1065 
 157   0.0000       0.630176        17.1480 
 158   0.0000       0.634568        17.2675 
 159   0.0000       0.637942        17.3593 
 160   0.0000       0.643862        17.5204 
 161   0.0000       0.648071        17.6349 
 162   0.0000       0.654896        17.8206 
 163   0.0000       0.655792        17.8450 
 164   0.0000       0.663523        18.0554 
 165   0.0000       0.668589        18.1932 
 166   0.0000       0.673947        18.3390 
 167   0.0000       0.679350        18.4861 
 168   0.0000       0.682502        18.5718 
 169   0.0000       0.689649        18.7663 
 170   0.0000       0.694121        18.8880 
 171   0.0000       0.701589        19.0912 
 172   0.0000       0.706970        19.2376 
 173   0.0000       0.720780        19.6134 
 174   0.0000       0.724558        19.7162 
 175   0.0000       0.725499        19.7418 
 176   0.0000       0.735104        20.0032 
 177   0.0000       0.741045        20.1649 
 178   0.0000       0.749506        20.3951 
 179   0.0000       0.754432        20.5291 
 180   0.0000       0.760144        20.6846 
 181   0.0000       0.764247        20.7962 
 182   0.0000       0.774759        21.0823 
 183   0.0000       0.786226        21.3943 
 184   0.0000       0.790066        21.4988 
 185   0.0000       0.799941        21.7675 
 186   0.0000       0.808953        22.0127 
 187   0.0000       0.821088        22.3429 
 188   0.0000       0.827233        22.5102 
 189   0.0000       0.834772        22.7153 
 190   0.0000       0.838146        22.8071 
 191   0.0000       0.846359        23.0306 
 192   0.0000       0.855542        23.2805 
 193   0.0000       0.864591        23.5267 
 194   0.0000       0.870186        23.6790 
 195   0.0000       0.885627        24.0991 
 196   0.0000       0.890030        24.2190 
 197   0.0000       0.898549        24.4508 
 198   0.0000       0.899660        24.4810 
 199   0.0000       0.902842        24.5676 
 200   0.0000       0.914195        24.8765 
 201   0.0000       0.915929        24.9237 
 202   0.0000       0.927214        25.2308 
 203   0.0000       0.932185        25.3660 
 204   0.0000       0.939204        25.5570 
 205   0.0000       0.945312        25.7232 
 206   0.0000       0.957377        26.0515 
 207   0.0000       0.966873        26.3099 
 208   0.0000       0.973302        26.4849 
 209   0.0000       0.977088        26.5879 
 210   0.0000       0.986345        26.8398 
 211   0.0000       0.994414        27.0594 
 212   0.0000       0.997440        27.1417 
 213   0.0000       1.003405        27.3040 
 214   0.0000       1.005411        27.3586 
 215   0.0000       1.017879        27.6979 
 216   0.0000       1.020825        27.7781 
 217   0.0000       1.032287        28.0900 
 218   0.0000       1.037228        28.2244 
 219   0.0000       1.045855        28.4592 
 220   0.0000       1.051997        28.6263 
 221   0.0000       1.057106        28.7653 
 222   0.0000       1.062795        28.9201 
 223   0.0000       1.070983        29.1429 
 224   0.0000       1.075920        29.2773 
 225   0.0000       1.086277        29.5591 
 226   0.0000       1.096054        29.8252 
 227   0.0000       1.104482        30.0545 
 228   0.0000       1.111977        30.2584 
 229   0.0000       1.119087        30.4519 
 230   0.0000       1.125091        30.6153 
 231   0.0000       1.133051        30.8319 
 232   0.0000       1.143097        31.1053 
 233   0.0000       1.148061        31.2403 
 234   0.0000       1.156944        31.4821 
 235   0.0000       1.164524        31.6883 
 236   0.0000       1.171428        31.8762 
 237   0.0000       1.175967        31.9997 
 238   0.0000       1.181643        32.1541 
 239   0.0000       1.185041        32.2466 
 240   0.0000       1.192573        32.4516 
 241   0.0000       1.199621        32.6434 
 242   0.0000       1.201208        32.6865 
 243   0.0000       1.204702        32.7816 
 244   0.0000       1.219802        33.1925 
 245   0.0000       1.224411        33.3179 
 246   0.0000       1.228112        33.4186 
 247   0.0000       1.233169        33.5562 
 248   0.0000       1.241893        33.7936 
 249   0.0000       1.247498        33.9461 
 250   0.0000       1.257373        34.2149 
 251   0.0000       1.265893        34.4467 
 252   0.0000       1.271851        34.6088 
 253   0.0000       1.276520        34.7359 
 254   0.0000       1.285217        34.9725 
 255   0.0000       1.287193        35.0263 
 256   0.0000       1.296757        35.2866 
 257   0.0000       1.304216        35.4895 
 258   0.0000       1.312623        35.7183 
 259   0.0000       1.328282        36.1444 
 260   0.0000       1.331863        36.2418 
 261   0.0000       1.337052        36.3830 
 262   0.0000       1.354427        36.8558 
 263   0.0000       1.359675        36.9986 
 264   0.0000       1.367842        37.2209 
 265   0.0000       1.377601        37.4864 
 266   0.0000       1.388323        37.7782 
 267   0.0000       1.399865        38.0923 
 268   0.0000       1.404533        38.2193 
 269   0.0000       1.414139        38.4807 
 270   0.0000       1.417732        38.5785 
 271   0.0000       1.424035        38.7499 
 272   0.0000       1.430511        38.9262 
 273   0.0000       1.433406        39.0050 
 274   0.0000       1.447233        39.3812 
 275   0.0000       1.458436        39.6861 
 276   0.0000       1.463264        39.8174 
 277   0.0000       1.468772        39.9673 
 278   0.0000       1.483382        40.3649 
 279   0.0000       1.488701        40.5096 
 280   0.0000       1.490909        40.5697 
 281   0.0000       1.493141        40.6304 
 282   0.0000       1.504627        40.9430 
 283   0.0000       1.512059        41.1452 
 284   0.0000       1.515582        41.2411 
 285   0.0000       1.524137        41.4739 
 286   0.0000       1.530537        41.6480 
 287   0.0000       1.535609        41.7861 
 288   0.0000       1.541264        41.9399 
 289   0.0000       1.547763        42.1168 
 290   0.0000       1.552279        42.2397 
 291   0.0000       1.561383        42.4874 
 292   0.0000       1.570289        42.7297 
 293   0.0000       1.577106        42.9152 
 294   0.0000       1.586901        43.1818 
 295   0.0000       1.593814        43.3699 
 296   0.0000       1.600041        43.5393 
 297   0.0000       1.604787        43.6685 
 298   0.0000       1.613728        43.9118 
 299   0.0000       1.621844        44.1326 
 300   0.0000       1.632178        44.4138 
 301   0.0000       1.638381        44.5826 
 302   0.0000       1.641895        44.6782 
 303   0.0000       1.652782        44.9745 
 304   0.0000       1.654753        45.0281 
 305   0.0000       1.666718        45.3537 
 306   0.0000       1.675898        45.6035 
 307   0.0000       1.682126        45.7730 
 308   0.0000       1.686000        45.8784 
 309   0.0000       1.703804        46.3629 
 310   0.0000       1.707140        46.4536 
 311   0.0000       1.716002        46.6948 
 312   0.0000       1.722328        46.8669 
 313   0.0000       1.727753        47.0146 
 314   0.0000       1.738439        47.3053 
 315   0.0000       1.755776        47.7771 
 316   0.0000       1.764965        48.0271 
 317   0.0000       1.772577        48.2343 
 318   0.0000       1.779164        48.4135 
 319   0.0000       1.794289        48.8251 
 320   0.0000       1.803573        49.0777 
 321   0.0000       1.821019        49.5524 
 322   0.0000       1.830367        49.8068 
 323   0.0000       1.846656        50.2501 
 324   0.0000       1.856632        50.5215 
 325   0.0000       1.869280        50.8657 
 326   0.0000       1.887342        51.3572 
 327   0.0000       1.896799        51.6145 
 328   0.0000       1.906128        51.8684 
 329   0.0000       1.911637        52.0183 
 330   0.0000       1.926772        52.4301 
 331   0.0000       1.931796        52.5668 
 332   0.0000       1.942550        52.8595 
 333   0.0000       1.960057        53.3359 
 334   0.0000       1.963142        53.4198 
 335   0.0000       1.974587        53.7312 
 336   0.0000       1.982106        53.9358 
 337   0.0000       2.001975        54.4765 
 338   0.0000       2.010653        54.7126 
 339   0.0000       2.027927        55.1827 
 340   0.0000       2.029701        55.2310 
 341   0.0000       2.032441        55.3055 
 342   0.0000       2.044232        55.6264 
 343   0.0000       2.062938        56.1354 
 344   0.0000       2.088940        56.8429 
 345   0.0000       2.104340        57.2620 
 346   0.0000       2.117989        57.6334 
 347   0.0000       2.128717        57.9253 
 348   0.0000       2.152895        58.5832 
 349   0.0000       2.165632        58.9299 
 350   0.0000       2.172241        59.1097 
 351   0.0000       2.199480        59.8509 
 352   0.0000       2.211442        60.1764 
 353   0.0000       2.225094        60.5479 
 354   0.0000       2.237104        60.8747 
 355   0.0000       2.248376        61.1814 
 356   0.0000       2.275358        61.9156 
 357   0.0000       2.289141        62.2907 
 358   0.0000       2.304145        62.6990 
 359   0.0000       2.309041        62.8322 
 360   0.0000       2.314963        62.9933 
 361   0.0000       2.325400        63.2773 
 362   0.0000       2.345441        63.8227 
 363   0.0000       2.353325        64.0372 
 364   0.0000       2.361103        64.2489 
 365   0.0000       2.383150        64.8488 
 366   0.0000       2.390964        65.0614 
 367   0.0000       2.405437        65.4553 
 368   0.0000       2.409082        65.5545 
 369   0.0000       2.419995        65.8514 
 370   0.0000       2.426077        66.0169 
 371   0.0000       2.449721        66.6603 
 372   0.0000       2.467180        67.1354 
 373   0.0000       2.474544        67.3358 
 374   0.0000       2.478988        67.4567 
 375   0.0000       2.484863        67.6166 
 376   0.0000       2.509053        68.2748 
 377   0.0000       2.511006        68.3280 
 378   0.0000       2.519707        68.5647 
 379   0.0000       2.550904        69.4136 
 380   0.0000       2.558620        69.6236 
 381   0.0000       2.579354        70.1878 
 382   0.0000       2.585730        70.3613 
 383   0.0000       2.593293        70.5671 
 384   0.0000       2.612032        71.0770 
 385   0.0000       2.617721        71.2318 
 386   0.0000       2.624979        71.4293 
 387   0.0000       2.643773        71.9407 
 388   0.0000       2.648362        72.0656 
 389   0.0000       2.665727        72.5381 
 390   0.0000       2.676411        72.8289 
 391   0.0000       2.689422        73.1829 
 392   0.0000       2.702018        73.5256 
 393   0.0000       2.717398        73.9442 
 394   0.0000       2.725476        74.1640 
 395   0.0000       2.735640        74.4405 
 396   0.0000       2.745424        74.7068 
 397   0.0000       2.747846        74.7727 
 398   0.0000       2.761887        75.1548 
 399   0.0000       2.763499        75.1986 
 400   0.0000       2.766032        75.2675 
 401   0.0000       2.773506        75.4709 
 402   0.0000       2.794647        76.0462 
 403   0.0000       2.805070        76.3298 
 404   0.0000       2.806593        76.3713 
 405   0.0000       2.823710        76.8371 
 406   0.0000       2.827928        76.9518 
 407   0.0000       2.837258        77.2057 
 408   0.0000       2.841860        77.3309 
 409   0.0000       2.848023        77.4987 
 410   0.0000       2.864082        77.9356 
 411   0.0000       2.869214        78.0753 
 412   0.0000       2.877694        78.3060 
 413   0.0000       2.888715        78.6059 
 414   0.0000       2.894747        78.7701 
 415   0.0000       2.919284        79.4378 
 416   0.0000       2.921260        79.4915 
 417   0.0000       2.944464        80.1229 
 418   0.0000       2.946590        80.1808 
 419   0.0000       2.959394        80.5292 
 420   0.0000       2.964297        80.6626 
 421   0.0000       2.973741        80.9196 
 422   0.0000       2.980225        81.0960 
 423   0.0000       2.994617        81.4877 
 424   0.0000       2.996119        81.5285 
 425   0.0000       3.013502        82.0016 
 426   0.0000       3.016247        82.0762 
 427   0.0000       3.029413        82.4345 
 428   0.0000       3.031889        82.5019 
 429   0.0000       3.040125        82.7260 
 430   0.0000       3.045330        82.8676 
 431   0.0000       3.055965        83.1570 
 432   0.0000       3.062348        83.3307 
 433   0.0000       3.066420        83.4415 
 434   0.0000       3.079449        83.7961 
 435   0.0000       3.086029        83.9751 
 436   0.0000       3.089998        84.0831 
 437   0.0000       3.091662        84.1284 
 438   0.0000       3.098123        84.3042 
 439   0.0000       3.104490        84.4775 
 440   0.0000       3.110821        84.6498 
 441   0.0000       3.121939        84.9523 
 442   0.0000       3.124130        85.0119 
 443   0.0000       3.135406        85.3187 
 444   0.0000       3.141891        85.4952 
 445   0.0000       3.150655        85.7337 
 446   0.0000       3.160784        86.0093 
 447   0.0000       3.166897        86.1757 
 448   0.0000       3.176738        86.4434 
 449   0.0000       3.192979        86.8854 
 450   0.0000       3.195328        86.9493 
 451   0.0000       3.201904        87.1282 
 452   0.0000       3.210532        87.3630 
 453   0.0000       3.211918        87.4007 
 454   0.0000       3.218246        87.5729 
 455   0.0000       3.227157        87.8154 
 456   0.0000       3.235757        88.0494 
 457   0.0000       3.247872        88.3791 
 458   0.0000       3.253491        88.5320 
 459   0.0000       3.259034        88.6828 
 460   0.0000       3.267832        88.9222 
 461   0.0000       3.272049        89.0370 
 462   0.0000       3.278244        89.2055 
 463   0.0000       3.280983        89.2801 
 464   0.0000       3.294975        89.6608 
 465   0.0000       3.307432        89.9998 
 466   0.0000       3.311559        90.1121 
 467   0.0000       3.318640        90.3048 
 468   0.0000       3.323686        90.4421 
 469   0.0000       3.328470        90.5723 
 470   0.0000       3.335050        90.7513 
 471   0.0000       3.341544        90.9280 
 472   0.0000       3.352499        91.2261 
 473   0.0000       3.356336        91.3305 
 474   0.0000       3.358515        91.3898 
 475   0.0000       3.363219        91.5179 
 476   0.0000       3.368434        91.6598 
 477   0.0000       3.376869        91.8893 
 478   0.0000       3.387948        92.1907 
 479   0.0000       3.388371        92.2023 
 480   0.0000       3.394863        92.3789 
 481   0.0000       3.399536        92.5061 
 482   0.0000       3.404388        92.6381 
 483   0.0000       3.407535        92.7237 
 484   0.0000       3.413357        92.8822 
 485   0.0000       3.415195        92.9322 
 486   0.0000       3.420435        93.0748 
 487   0.0000       3.425312        93.2075 
 488   0.0000       3.433482        93.4298 
 489   0.0000       3.437578        93.5412 
 490   0.0000       3.444899        93.7405 
 491   0.0000       3.450581        93.8951 
 492   0.0000       3.456008        94.0427 
 493   0.0000       3.459860        94.1476 
 494   0.0000       3.461707        94.1978 
 495   0.0000       3.468863        94.3926 
 496   0.0000       3.478620        94.6581 
 497   0.0000       3.482999        94.7772 
 498   0.0000       3.498410        95.1966 
 499   0.0000       3.505672        95.3942 
 500   0.0000       3.514740        95.6409 
 501   0.0000       3.521469        95.8240 
 502   0.0000       3.527838        95.9974 
 503   0.0000       3.532047        96.1119 
 504   0.0000       3.544313        96.4457 
 505   0.0000       3.552796        96.6765 
 506   0.0000       3.557586        96.8068 
 507   0.0000       3.568248        97.0970 
 508   0.0000       3.580590        97.4328 
 509   0.0000       3.586196        97.5853 
 510   0.0000       3.595309        97.8333 
 511   0.0000       3.597749        97.8997 
 512   0.0000       3.608752        98.1991 
 513   0.0000       3.616176        98.4012 
 514   0.0000       3.623559        98.6021 
 515   0.0000       3.627296        98.7037 
 516   0.0000       3.628078        98.7250 
 517   0.0000       3.633662        98.8770 
 518   0.0000       3.636486        98.9538 
 519   0.0000       3.643908        99.1558 
 520   0.0000       3.645519        99.1996 
 521   0.0000       3.659519        99.5806 
 522   0.0000       3.663202        99.6808 
 523   0.0000       3.667394        99.7949 
 524   0.0000       3.669623        99.8555 
 525   0.0000       3.670799        99.8875 
 526   0.0000       3.680960       100.1640 
 527   0.0000       3.691903       100.4618 
 528   0.0000       3.696137       100.5770 
 529   0.0000       3.704870       100.8146 
 530   0.0000       3.713678       101.0543 
 531   0.0000       3.718887       101.1961 
 532   0.0000       3.726489       101.4029 
 533   0.0000       3.732889       101.5771 
 534   0.0000       3.741580       101.8136 
 535   0.0000       3.750380       102.0530 
 536   0.0000       3.757194       102.2384 
 537   0.0000       3.761857       102.3653 
 538   0.0000       3.766326       102.4869 
 539   0.0000       3.776373       102.7603 
 540   0.0000       3.780222       102.8651 
 541   0.0000       3.782743       102.9337 
 542   0.0000       3.790285       103.1389 
 543   0.0000       3.795709       103.2865 
 544   0.0000       3.797502       103.3353 
 545   0.0000       3.807613       103.6104 
 546   0.0000       3.815205       103.8170 
 547   0.0000       3.823774       104.0502 
 548   0.0000       3.825412       104.0948 
 549   0.0000       3.837331       104.4191 
 550   0.0000       3.842428       104.5578 
 551   0.0000       3.855015       104.9003 
 552   0.0000       3.864081       105.1470 
 553   0.0000       3.871194       105.3405 
 554   0.0000       3.886091       105.7459 
 555   0.0000       3.896941       106.0412 
 556   0.0000       3.903775       106.2271 
 557   0.0000       3.912301       106.4591 
 558   0.0000       3.915128       106.5361 
 559   0.0000       3.934465       107.0622 
 560   0.0000       3.943565       107.3099 
 561   0.0000       3.953374       107.5768 
 562   0.0000       3.956137       107.6520 
 563   0.0000       3.962725       107.8312 
 564   0.0000       3.975019       108.1658 
 565   0.0000       3.978285       108.2546 
 566   0.0000       3.988585       108.5349 
 567   0.0000       3.995358       108.7192 
 568   0.0000       4.000101       108.8483 
 569   0.0000       4.011744       109.1651 
 570   0.0000       4.025259       109.5329 
 571   0.0000       4.035094       109.8005 
 572   0.0000       4.046470       110.1101 
 573   0.0000       4.051207       110.2389 
 574   0.0000       4.067094       110.6713 
 575   0.0000       4.071498       110.7911 
 576   0.0000       4.081422       111.0611 
 577   0.0000       4.089377       111.2776 
 578   0.0000       4.099102       111.5422 
 579   0.0000       4.105353       111.7123 
 580   0.0000       4.112162       111.8976 
 581   0.0000       4.116297       112.0101 
 582   0.0000       4.125914       112.2718 
 583   0.0000       4.133581       112.4805 
 584   0.0000       4.139112       112.6310 
 585   0.0000       4.143704       112.7559 
 586   0.0000       4.152381       112.9920 
 587   0.0000       4.157744       113.1380 
 588   0.0000       4.160518       113.2135 
 589   0.0000       4.175638       113.6249 
 590   0.0000       4.181222       113.7768 
 591   0.0000       4.187857       113.9574 
 592   0.0000       4.192640       114.0875 
 593   0.0000       4.196653       114.1967 
 594   0.0000       4.201935       114.3405 
 595   0.0000       4.211069       114.5890 
 596   0.0000       4.221026       114.8600 
 597   0.0000       4.224814       114.9630 
 598   0.0000       4.232678       115.1770 
 599   0.0000       4.239322       115.3578 
 600   0.0000       4.249890       115.6454 
 601   0.0000       4.254048       115.7585 
 602   0.0000       4.271352       116.2294 
 603   0.0000       4.275897       116.3531 
 604   0.0000       4.290871       116.7605 
 605   0.0000       4.296651       116.9178 
 606   0.0000       4.301198       117.0416 
 607   0.0000       4.304348       117.1273 
 608   0.0000       4.315251       117.4240 
 609   0.0000       4.321859       117.6038 
 610   0.0000       4.337518       118.0299 
 611   0.0000       4.341156       118.1288 
 612   0.0000       4.344868       118.2299 
 613   0.0000       4.353543       118.4659 
 614   0.0000       4.360097       118.6443 
 615   0.0000       4.369374       118.8967 
 616   0.0000       4.371567       118.9564 
 617   0.0000       4.378782       119.1527 
 618   0.0000       4.383681       119.2860 
 619   0.0000       4.390364       119.4679 
 620   0.0000       4.395069       119.5959 
 621   0.0000       4.407212       119.9263 
 622   0.0000       4.414545       120.1259 
 623   0.0000       4.430482       120.5595 
 624   0.0000       4.432201       120.6063 
 625   0.0000       4.443531       120.9146 
 626   0.0000       4.450048       121.0920 
 627   0.0000       4.459674       121.3539 
 628   0.0000       4.466213       121.5318 
 629   0.0000       4.474530       121.7582 
 630   0.0000       4.500034       122.4522 
 631   0.0000       4.506790       122.6360 
 632   0.0000       4.511562       122.7658 
 633   0.0000       4.532404       123.3330 
 634   0.0000       4.537084       123.4603 
 635   0.0000       4.539246       123.5192 
 636   0.0000       4.550705       123.8310 
 637   0.0000       4.559461       124.0692 
 638   0.0000       4.564176       124.1975 
 639   0.0000       4.569266       124.3361 
 640   0.0000       4.574105       124.4677 
 641   0.0000       4.582144       124.6865 
 642   0.0000       4.596693       125.0824 
 643   0.0000       4.608591       125.4061 
 644   0.0000       4.617712       125.6543 
 645   0.0000       4.627850       125.9302 
 646   0.0000       4.633239       126.0768 
 647   0.0000       4.638167       126.2110 
 648   0.0000       4.640325       126.2697 
 649   0.0000       4.650091       126.5354 
 650   0.0000       4.657700       126.7425 
 651   0.0000       4.659039       126.7789 
 652   0.0000       4.667987       127.0224 
 653   0.0000       4.673990       127.1857 
 654   0.0000       4.691395       127.6594 
 655   0.0000       4.695164       127.7619 
 656   0.0000       4.704216       128.0082 
 657   0.0000       4.724563       128.5619 
 658   0.0000       4.728405       128.6664 
 659   0.0000       4.741651       129.0269 
 660   0.0000       4.750465       129.2667 
 661   0.0000       4.759214       129.5048 
 662   0.0000       4.773768       129.9008 
 663   0.0000       4.778041       130.0171 
 664   0.0000       4.791540       130.3844 
 665   0.0000       4.809842       130.8825 
 666   0.0000       4.830015       131.4314 
 667   0.0000       4.852010       132.0299 
 668   0.0000       4.870988       132.5463 
 669   0.0000       4.881628       132.8359 
 670   0.0000       4.905421       133.4833 
 671   0.0000       4.917981       133.8251 
 672   0.0000       4.923065       133.9634 
 673   0.0000       4.947502       134.6284 
 674   0.0000       4.965538       135.1192 
 675   0.0000       4.991419       135.8234 
 676   0.0000       5.011431       136.3680 
 677   0.0000       5.020365       136.6111 
 678   0.0000       5.030123       136.8766 
 679   0.0000       5.043850       137.2501 
 680   0.0000       5.054880       137.5503 
 681   0.0000       5.071950       138.0148 
 682   0.0000       5.077451       138.1645 
 683   0.0000       5.093590       138.6036 
 684   0.0000       5.105658       138.9320 
 685   0.0000       5.109333       139.0320 
 686   0.0000       5.120479       139.3353 
 687   0.0000       5.133676       139.6944 
 688   0.0000       5.144672       139.9936 
 689   0.0000       5.150649       140.1563 
 690   0.0000       5.154973       140.2739 
 691   0.0000       5.170694       140.7017 
 692   0.0000       5.190107       141.2300 
 693   0.0000       5.192892       141.3058 
 694   0.0000       5.204695       141.6270 
 695   0.0000       5.216093       141.9371 
 696   0.0000       5.219650       142.0339 
 697   0.0000       5.229511       142.3022 
 698   0.0000       5.233832       142.4198 
 699   0.0000       5.253151       142.9455 
 700   0.0000       5.260003       143.1320 
 701   0.0000       5.271408       143.4423 
 702   0.0000       5.286031       143.8402 
 703   0.0000       5.306951       144.4095 
 704   0.0000       5.321880       144.8157 
 705   0.0000       5.339526       145.2959 
 706   0.0000       5.345894       145.4692 
 707   0.0000       5.352063       145.6370 
 708   0.0000       5.370118       146.1283 
 709   0.0000       5.386439       146.5724 
 710   0.0000       5.410351       147.2231 
 711   0.0000       5.430719       147.7774 
 712   0.0000       5.434767       147.8875 
 713   0.0000       5.452777       148.3776 
 714   0.0000       5.467959       148.7907 
 715   0.0000       5.485283       149.2621 
 716   0.0000       5.500910       149.6874 
 717   0.0000       5.517605       150.1417 
 718   0.0000       5.520231       150.2131 
 719   0.0000       5.528855       150.4478 
 720   0.0000       5.537728       150.6892 
 721   0.0000       5.545054       150.8886 
 722   0.0000       5.550123       151.0265 
 723   0.0000       5.575567       151.7189 
 724   0.0000       5.587153       152.0342 
 725   0.0000       5.605978       152.5464 
 726   0.0000       5.607931       152.5996 
 727   0.0000       5.630493       153.2135 
 728   0.0000       5.642099       153.5293 
 729   0.0000       5.645913       153.6331 
 730   0.0000       5.646574       153.6511 
 731   0.0000       5.656491       153.9209 
 732   0.0000       5.671783       154.3371 
 733   0.0000       5.683624       154.6593 
 734   0.0000       5.706260       155.2752 
 735   0.0000       5.710293       155.3850 
 736   0.0000       5.724923       155.7831 
 737   0.0000       5.729838       155.9168 
 738   0.0000       5.750943       156.4911 
 739   0.0000       5.761035       156.7657 
 740   0.0000       5.768654       156.9731 
 741   0.0000       5.771089       157.0393 
 742   0.0000       5.784068       157.3925 
 743   0.0000       5.800824       157.8484 
 744   0.0000       5.821555       158.4126 
 745   0.0000       5.847797       159.1267 
 746   0.0000       5.854380       159.3058 
 747   0.0000       5.874398       159.8505 
 748   0.0000       5.896056       160.4398 
 749   0.0000       5.934743       161.4926 
 750   0.0000       5.941898       161.6873 
 751   0.0000       5.972874       162.5302 
 752   0.0000       5.979989       162.7238 
 753   0.0000       5.996180       163.1644 
 754   0.0000       6.013620       163.6389 
 755   0.0000       6.015094       163.6790 
 756   0.0000       6.059418       164.8851 
 757   0.0000       6.070838       165.1959 
 758   0.0000       6.089183       165.6951 
 759   0.0000       6.104387       166.1088 
 760   0.0000       6.107635       166.1972 
 761   0.0000       6.180687       168.1851 
 762   0.0000       6.212591       169.0532 
 763   0.0000       6.223991       169.3634 
 764   0.0000       6.229041       169.5008 
 765   0.0000       6.255622       170.2241 
 766   0.0000       6.282186       170.9470 
 767   0.0000       6.332536       172.3171 
 768   0.0000       6.336248       172.4181 
 769   0.0000       6.354424       172.9127 
 770   0.0000       6.371358       173.3735 
 771   0.0000       6.385139       173.7485 
 772   0.0000       6.407760       174.3640 
 773   0.0000       6.450282       175.5211 
 774   0.0000       6.462659       175.8579 
 775   0.0000       6.470503       176.0713 
 776   0.0000       6.511244       177.1799 
 777   0.0000       6.539185       177.9403 
 778   0.0000       6.562077       178.5632 
 779   0.0000       6.591150       179.3543 
 780   0.0000       6.656792       181.1405 
 781   0.0000       6.682429       181.8381 
 782   0.0000       6.701207       182.3491 
 783   0.0000       6.743220       183.4923 
 784   0.0000       6.784171       184.6067 
 785   0.0000       6.908924       188.0014 
 786   0.0000       6.918848       188.2714 
 787   0.0000       6.927196       188.4986 
 788   0.0000       6.939951       188.8457 
 789   0.0000       7.025558       191.1751 
 790   0.0000       7.058015       192.0583 
 791   0.0000       7.066897       192.3000 
 792   0.0000       7.087230       192.8533 
 793   0.0000       7.136817       194.2027 
 794   0.0000       7.198426       195.8791 
 795   0.0000       7.265038       197.6917 
 796   0.0000       7.275730       197.9827 
 797   0.0000       7.286826       198.2846 
 798   0.0000       7.346200       199.9003 
 799   0.0000       7.362301       200.3384 
 800   0.0000       7.457774       202.9363 
 801   0.0000       7.498151       204.0351 
 802   0.0000       7.579567       206.2505 
 803   0.0000       7.589358       206.5169 
 804   0.0000       7.688651       209.2188 
 805   0.0000       7.822222       212.8535 
 806   0.0000       7.844604       213.4625 
 807   0.0000       7.939551       216.0462 
 808   0.0000       7.972434       216.9410 
 809   0.0000       9.355416       254.5738 
 810   0.0000       9.559163       260.1180 
 811   0.0000      10.851627       295.2878 
 812   0.0000      11.231421       305.6225 
 813   0.0000      11.940344       324.9133 
 814   0.0000      12.583332       342.4099 
 815   0.0000      12.919568       351.5593 
 816   0.0000      13.068985       355.6252 
 817   0.0000      13.154709       357.9578 
 818   0.0000      13.189119       358.8942 
 819   0.0000      13.405712       364.7880 
 820   0.0000      13.478843       366.7780 
 821   0.0000      13.796639       375.4256 
 822   0.0000      13.874119       377.5340 
 823   0.0000      13.951348       379.6355 
 824   0.0000      14.005788       381.1169 
 825   0.0000      14.547445       395.8561 
 826   0.0000      14.792821       402.5331 
 827   0.0000      15.950077       434.0237 

                    ********************************
                    * MULLIKEN POPULATION ANALYSIS *
                    ********************************

-----------------------
MULLIKEN ATOMIC CHARGES
-----------------------
   0 C :   -0.273539
   1 C :    0.030823
   2 O :   -0.336111
   3 C :    0.445420
   4 O :   -0.432342
   5 C :   -0.177636
   6 C :    0.143502
   7 C :   -0.286205
   8 N :   -0.120398
   9 C :    0.201069
  10 S :   -0.438869
  11 N :   -0.196466
  12 C :    0.033795
  13 C :    0.059665
  14 C :   -0.159864
  15 C :   -0.134178
  16 C :   -0.278950
  17 C :    0.311507
  18 O :   -0.359386
  19 C :   -0.273625
  20 H :    0.098964
  21 H :    0.101383
  22 H :    0.091777
  23 H :    0.108367
  24 H :    0.095552
  25 H :    0.127628
  26 H :    0.103690
  27 H :    0.127129
  28 H :    0.196643
  29 H :    0.193462
  30 H :    0.153435
  31 H :    0.152929
  32 H :    0.158820
  33 H :    0.127764
  34 H :    0.240013
  35 H :    0.164234
Sum of atomic charges:    0.0000000

--------------------------------
MULLIKEN REDUCED ORBITAL CHARGES
--------------------------------
  0 C s       :     3.255760  s :     3.255760
      pz      :     1.016662  p :     2.940117
      px      :     0.907679
      py      :     1.015776
      dz2     :     0.012658  d :     0.073181
      dxz     :     0.017062
      dyz     :     0.014653
      dx2y2   :     0.018186
      dxy     :     0.010621
      f0      :     0.000879  f :     0.004481
      f+1     :     0.000814
      f-1     :     0.000129
      f+2     :     0.000825
      f-2     :     0.000193
      f+3     :     0.001171
      f-3     :     0.000470
  1 C s       :     3.179269  s :     3.179269
      pz      :     0.946416  p :     2.628676
      px      :     0.895287
      py      :     0.786972
      dz2     :     0.025353  d :     0.149606
      dxz     :     0.026730
      dyz     :     0.031222
      dx2y2   :     0.032491
      dxy     :     0.033811
      f0      :     0.001224  f :     0.011626
      f+1     :     0.001216
      f-1     :     0.001759
      f+2     :     0.001957
      f-2     :     0.001362
      f+3     :     0.002020
      f-3     :     0.002087
  2 O s       :     3.708233  s :     3.708233
      pz      :     1.554240  p :     4.591660
      px      :     1.482866
      py      :     1.554554
      dz2     :     0.005100  d :     0.033959
      dxz     :     0.006891
      dyz     :     0.006021
      dx2y2   :     0.010387
      dxy     :     0.005560
      f0      :     0.000316  f :     0.002260
      f+1     :     0.000430
      f-1     :     0.000118
      f+2     :     0.000526
      f-2     :     0.000412
      f+3     :     0.000254
      f-3     :     0.000204
  3 C s       :     3.073737  s :     3.073737
      pz      :     0.679167  p :     2.152955
      px      :     0.673561
      py      :     0.800227
      dz2     :     0.042677  d :     0.301386
      dxz     :     0.049594
      dyz     :     0.064797
      dx2y2   :     0.086185
      dxy     :     0.058132
      f0      :     0.002998  f :     0.026501
      f+1     :     0.003725
      f-1     :     0.002120
      f+2     :     0.003328
      f-2     :     0.004690
      f+3     :     0.003534
      f-3     :     0.006106
  4 O s       :     3.771208  s :     3.771208
      pz      :     1.633504  p :     4.623331
      px      :     1.557031
      py      :     1.432797
      dz2     :     0.004027  d :     0.035397
      dxz     :     0.002197
      dyz     :     0.007766
      dx2y2   :     0.009601
      dxy     :     0.011807
      f0      :     0.000252  f :     0.002406
      f+1     :     0.000138
      f-1     :     0.000317
      f+2     :     0.000129
      f-2     :     0.000295
      f+3     :     0.000689
      f-3     :     0.000587
  5 C s       :     3.180096  s :     3.180096
      pz      :     1.003258  p :     2.906608
      px      :     1.051528
      py      :     0.851823
      dz2     :     0.013648  d :     0.080328
      dxz     :     0.009791
      dyz     :     0.025134
      dx2y2   :     0.013068
      dxy     :     0.018688
      f0      :     0.000928  f :     0.010604
      f+1     :     0.001340
      f-1     :     0.001271
      f+2     :     0.002115
      f-2     :     0.001595
      f+3     :     0.001543
      f-3     :     0.001812
  6 C s       :     3.196087  s :     3.196087
      pz      :     0.834956  p :     2.469858
      px      :     0.860767
      py      :     0.774135
      dz2     :     0.030400  d :     0.176327
      dxz     :     0.018451
      dyz     :     0.049240
      dx2y2   :     0.032457
      dxy     :     0.045778
      f0      :     0.001624  f :     0.014226
      f+1     :     0.001227
      f-1     :     0.002390
      f+2     :     0.002312
      f-2     :     0.002385
      f+3     :     0.002009
      f-3     :     0.002280
  7 C s       :     3.279302  s :     3.279302
      pz      :     0.961795  p :     2.932967
      px      :     0.959225
      py      :     1.011946
      dz2     :     0.020381  d :     0.069269
      dxz     :     0.013732
      dyz     :     0.006212
      dx2y2   :     0.018499
      dxy     :     0.010446
      f0      :     0.000538  f :     0.004669
      f+1     :     0.001279
      f-1     :     0.000436
      f+2     :     0.000547
      f-2     :     0.000578
      f+3     :     0.000234
      f-3     :     0.001057
  8 N s       :     3.337924  s :     3.337924
      pz      :     1.335916  p :     3.718021
      px      :     1.283030
      py      :     1.099074
      dz2     :     0.011089  d :     0.059513
      dxz     :     0.010209
      dyz     :     0.011462
      dx2y2   :     0.012741
      dxy     :     0.014013
      f0      :     0.000561  f :     0.004940
      f+1     :     0.000900
      f-1     :     0.000535
      f+2     :     0.001027
      f-2     :     0.000970
      f+3     :     0.000512
      f-3     :     0.000436
  9 C s       :     3.162736  s :     3.162736
      pz      :     0.742143  p :     2.356458
      px      :     0.734139
      py      :     0.880176
      dz2     :     0.051358  d :     0.262136
      dxz     :     0.034211
      dyz     :     0.052899
      dx2y2   :     0.063971
      dxy     :     0.059697
      f0      :     0.001984  f :     0.017601
      f+1     :     0.002903
      f-1     :     0.001982
      f+2     :     0.002757
      f-2     :     0.002329
      f+3     :     0.002645
      f-3     :     0.003000
 10 S s       :     5.856130  s :     5.856130
      pz      :     3.512480  p :    10.488049
      px      :     3.692516
      py      :     3.283053
      dz2     :     0.010533  d :     0.084568
      dxz     :     0.004838
      dyz     :     0.033267
      dx2y2   :     0.015393
      dxy     :     0.020538
      f0      :     0.001139  f :     0.010122
      f+1     :     0.000236
      f-1     :     0.001739
      f+2     :     0.002310
      f-2     :     0.001766
      f+3     :     0.002002
      f-3     :     0.000931
 11 N s       :     3.368148  s :     3.368148
      pz      :     1.424143  p :     3.765775
      px      :     1.308561
      py      :     1.033070
      dz2     :     0.005669  d :     0.058089
      dxz     :     0.008428
      dyz     :     0.013018
      dx2y2   :     0.014897
      dxy     :     0.016078
      f0      :     0.000515  f :     0.004454
      f+1     :     0.000468
      f-1     :     0.000589
      f+2     :     0.000608
      f-2     :     0.000694
      f+3     :     0.000857
      f-3     :     0.000724
 12 C s       :     3.127155  s :     3.127155
      pz      :     0.872798  p :     2.645601
      px      :     0.963888
      py      :     0.808916
      dz2     :     0.035708  d :     0.182156
      dxz     :     0.030830
      dyz     :     0.041779
      dx2y2   :     0.031284
      dxy     :     0.042555
      f0      :     0.001136  f :     0.011292
      f+1     :     0.001400
      f-1     :     0.001831
      f+2     :     0.002205
      f-2     :     0.002045
      f+3     :     0.001386
      f-3     :     0.001290
 13 C s       :     3.094364  s :     3.094364
      pz      :     0.888153  p :     2.726955
      px      :     0.909222
      py      :     0.929581
      dz2     :     0.020857  d :     0.107753
      dxz     :     0.011119
      dyz     :     0.029723
      dx2y2   :     0.022246
      dxy     :     0.023808
      f0      :     0.001046  f :     0.011263
      f+1     :     0.001613
      f-1     :     0.001526
[...]
      f-1     :     0.005551
      f+2     :     0.007346
      f-2     :     0.005121
      f+3     :     0.005651
      f-3     :     0.007343
 15 C s       :     2.705718  s :     2.705718
      pz      :     0.927567  p :     2.796707
      px      :     0.911071
      py      :     0.958068
      dz2     :     0.106895  d :     0.415682
      dxz     :     0.072731
      dyz     :     0.071353
      dx2y2   :     0.090479
      dxy     :     0.074224
      f0      :     0.004335  f :     0.041001
      f+1     :     0.006137
      f-1     :     0.006512
      f+2     :     0.007666
      f-2     :     0.006095
      f+3     :     0.005684
      f-3     :     0.004573
 16 C s       :     2.701825  s :     2.701825
      pz      :     0.945834  p :     2.869162
      px      :     0.952977
      py      :     0.970351
      dz2     :     0.056437  d :     0.391095
      dxz     :     0.056752
      dyz     :     0.096294
      dx2y2   :     0.088069
      dxy     :     0.093544
      f0      :     0.004425  f :     0.040337
      f+1     :     0.005366
      f-1     :     0.004923
      f+2     :     0.006059
      f-2     :     0.005315
      f+3     :     0.007743
      f-3     :     0.006506
 17 C s       :     2.701500  s :     2.701500
      pz      :     0.867903  p :     2.684185
      px      :     0.817129
      py      :     0.999152
      dz2     :     0.141886  d :     0.707827
      dxz     :     0.111659
      dyz     :     0.153216
      dx2y2   :     0.150660
      dxy     :     0.150405
      f0      :     0.011852  f :     0.099220
      f+1     :     0.015753
      f-1     :     0.011073
      f+2     :     0.017271
      f-2     :     0.014932
      f+3     :     0.014319
      f-3     :     0.014020
 18 O s       :     3.177275  s :     3.177275
      pz      :     1.373467  p :     4.349248
      px      :     1.463554
      py      :     1.512226
      dz2     :     0.010151  d :     0.075573
      dxz     :     0.016880
      dyz     :     0.021996
      dx2y2   :     0.013414
      dxy     :     0.013132
      f0      :     0.000651  f :     0.005078
      f+1     :     0.000675
      f-1     :     0.000575
      f+2     :     0.000813
      f-2     :     0.001078
      f+3     :     0.000562
      f-3     :     0.000724
 19 C s       :     2.695301  s :     2.695301
      pz      :     0.947157  p :     2.847399
      px      :     0.940574
      py      :     0.959668
      dz2     :     0.090048  d :     0.388395
      dxz     :     0.070636
      dyz     :     0.072255
      dx2y2   :     0.079250
      dxy     :     0.076207
      f0      :     0.004193  f :     0.040811
      f+1     :     0.006540
      f-1     :     0.006285
      f+2     :     0.007529
      f-2     :     0.006501
      f+3     :     0.005589
      f-3     :     0.004174
 20 H s       :     0.848330  s :     0.848330
      pz      :     0.067679  p :     0.150210
      px      :     0.042787
      py      :     0.039744
      dz2     :     0.008455  d :     0.027500
      dxz     :     0.007883
      dyz     :     0.008267
      dx2y2   :     0.001761
      dxy     :     0.001134
 21 H s       :     0.845580  s :     0.845580
      pz      :     0.045564  p :     0.150512
      px      :     0.045659
      py      :     0.059289
      dz2     :     0.004816  d :     0.027375
      dxz     :     0.002853
      dyz     :     0.006287
      dx2y2   :     0.007337
      dxy     :     0.006082
 22 H s       :     0.851388  s :     0.851388
      pz      :     0.049140  p :     0.151244
      px      :     0.040283
      py      :     0.061822
      dz2     :     0.006110  d :     0.027479
      dxz     :     0.002676
      dyz     :     0.006752
      dx2y2   :     0.005816
      dxy     :     0.006125
 23 H s       :     0.849502  s :     0.849502
      pz      :     0.047554  p :     0.148860
      px      :     0.040295
      py      :     0.061012
      dz2     :     0.005222  d :     0.027311
      dxz     :     0.002476
      dyz     :     0.007431
      dx2y2   :     0.005999
      dxy     :     0.006183
 24 H s       :     0.858790  s :     0.858790
      pz      :     0.071945  p :     0.144962
      px      :     0.042048
      py      :     0.030968
      dz2     :     0.009487  d :     0.026770
      dxz     :     0.007397
      dyz     :     0.007112
      dx2y2   :     0.001562
      dxy     :     0.001213
 25 H s       :     0.829283  s :     0.829283
      pz      :     0.068817  p :     0.151433
      px      :     0.041398
      py      :     0.041218
      dz2     :     0.009331  d :     0.027780
      dxz     :     0.008001
      dyz     :     0.007588
      dx2y2   :     0.001725
      dxy     :     0.001134
 26 H s       :     0.843389  s :     0.843389
      pz      :     0.038060  p :     0.150149
      px      :     0.039793
      py      :     0.072296
      dz2     :     0.002400  d :     0.027724
      dxz     :     0.000496
      dyz     :     0.008656
      dx2y2   :     0.006860
      dxy     :     0.009312
 27 H s       :     0.830487  s :     0.830487
      pz      :     0.038930  p :     0.151677
      px      :     0.065055
      py      :     0.047691
      dz2     :     0.002695  d :     0.027771
      dxz     :     0.007395
      dyz     :     0.001599
      dx2y2   :     0.008886
      dxy     :     0.007197
 28 H s       :     0.742837  s :     0.742837
      pz      :     0.067429  p :     0.254498
      px      :     0.076014
      py      :     0.111055
      dz2     :     0.005623  d :     0.061939
      dxz     :     0.003611
      dyz     :     0.017074
      dx2y2   :     0.017628
      dxy     :     0.018003
 29 H s       :     0.748454  s :     0.748454
      pz      :     0.107537  p :     0.253806
      px      :     0.103496
      py      :     0.042774
      dz2     :     0.018936  d :     0.061311
      dxz     :     0.015329
      dyz     :     0.007204
      dx2y2   :     0.011291
      dxy     :     0.008551
 30 H s       :     0.828290  s :     0.828290
      pz      :     0.043746  p :     0.148386
      px      :     0.060972
      py      :     0.043668
      dz2     :     0.003920  d :     0.028407
      dxz     :     0.007197
      dyz     :     0.003613
      dx2y2   :     0.006713
      dxy     :     0.006965
 31 H s       :     0.841925  s :     0.841925
      pz      :     0.055240  p :     0.155898
      px      :     0.061644
      py      :     0.039014
      dz2     :     0.005873  d :     0.027478
      dxz     :     0.006675
      dyz     :     0.004328
      dx2y2   :     0.005252
      dxy     :     0.005349
 32 H s       :     0.843480  s :     0.843480
      pz      :     0.036404  p :     0.151347
      px      :     0.041074
      py      :     0.073869
      dz2     :     0.002776  d :     0.026482
      dxz     :     0.000987
      dyz     :     0.007294
      dx2y2   :     0.007648
      dxy     :     0.007776
 33 H s       :     0.849478  s :     0.849478
      pz      :     0.062276  p :     0.159247
      px      :     0.047122
      py      :     0.049850
      dz2     :     0.007284  d :     0.027779
      dxz     :     0.005413
      dyz     :     0.006644
      dx2y2   :     0.004341
      dxy     :     0.004098
 34 H s       :     0.707133  s :     0.707133
      pz      :     0.118243  p :     0.348202
      px      :     0.087768
      py      :     0.142191
      dz2     :     0.026050  d :     0.099651
      dxz     :     0.014695
      dyz     :     0.024466
      dx2y2   :     0.016851
      dxy     :     0.017590
 35 H s       :     0.840149  s :     0.840149
      pz      :     0.038519  p :     0.157173
      px      :     0.043572
      py      :     0.075082
      dz2     :     0.002775  d :     0.028042
      dxz     :     0.001160
      dyz     :     0.007788
      dx2y2   :     0.008044
      dxy     :     0.008274


                      *****************************
                      * MAYER POPULATION ANALYSIS *
                      *****************************

  NA   - Mulliken gross atomic population
  ZA   - Total nuclear charge
  QA   - Mulliken gross atomic charge
  VA   - Mayer's total valence
  BVA  - Mayer's bonded valence
  FA   - Mayer's free valence

  ATOM       NA         ZA         QA         VA         BVA        FA
  0 C      6.2735     6.0000    -0.2735     3.8919     3.8919    -0.0000
  1 C      5.9692     6.0000     0.0308     3.8574     3.8574    -0.0000
  2 O      8.3361     8.0000    -0.3361     2.0757     2.0757    -0.0000
  3 C      5.5546     6.0000     0.4454     4.2401     4.2401     0.0000
  4 O      8.4323     8.0000    -0.4323     2.0837     2.0837    -0.0000
  5 C      6.1776     6.0000    -0.1776     3.6123     3.6123     0.0000
  6 C      5.8565     6.0000     0.1435     3.8515     3.8515     0.0000
  7 C      6.2862     6.0000    -0.2862     3.8923     3.8923    -0.0000
  8 N      7.1204     7.0000    -0.1204     3.2940     3.2940    -0.0000
  9 C      5.7989     6.0000     0.2011     4.1547     4.1547    -0.0000
 10 S     16.4389    16.0000    -0.4389     1.7574     1.7574    -0.0000
 11 N      7.1965     7.0000    -0.1965     3.2619     3.2619     0.0000
 12 C      5.9662     6.0000     0.0338     3.9722     3.9722     0.0000
 13 C      5.9403     6.0000     0.0597     3.7365     3.7365     0.0000
 14 C      6.1599     6.0000    -0.1599     3.8665     3.8665     0.0000
 15 C      6.1342     6.0000    -0.1342     3.8081     3.8081     0.0000
 16 C      6.2789     6.0000    -0.2789     3.7932     3.7932    -0.0000
 17 C      5.6885     6.0000     0.3115     3.8765     3.8765    -0.0000
 18 O      8.3594     8.0000    -0.3594     2.1152     2.1152     0.0000
 19 C      6.2736     6.0000    -0.2736     3.8522     3.8522    -0.0000
 20 H      0.9010     1.0000     0.0990     0.9834     0.9834    -0.0000
 21 H      0.8986     1.0000     0.1014     0.9839     0.9839    -0.0000
 22 H      0.9082     1.0000     0.0918     0.9814     0.9814    -0.0000
 23 H      0.8916     1.0000     0.1084     0.9847     0.9847     0.0000
 24 H      0.9044     1.0000     0.0956     0.9786     0.9786     0.0000
 25 H      0.8724     1.0000     0.1276     0.9831     0.9831    -0.0000
 26 H      0.8963     1.0000     0.1037     0.9867     0.9867    -0.0000
 27 H      0.8729     1.0000     0.1271     0.9777     0.9777    -0.0000
 28 H      0.8034     1.0000     0.1966     1.0241     1.0241    -0.0000
 29 H      0.8065     1.0000     0.1935     1.0187     1.0187     0.0000
 30 H      0.8466     1.0000     0.1534     0.9967     0.9967     0.0000
 31 H      0.8471     1.0000     0.1529     0.9904     0.9904     0.0000
 32 H      0.8412     1.0000     0.1588     0.9777     0.9777    -0.0000
 33 H      0.8722     1.0000     0.1278     0.9922     0.9922     0.0000
 34 H      0.7600     1.0000     0.2400     1.0111     1.0111     0.0000
 35 H      0.8358     1.0000     0.1642     0.9888     0.9888     0.0000

  Mayer bond orders larger than 0.100000
B(  0-C ,  1-C ) :   0.9722 B(  0-C , 20-H ) :   0.9762 B(  0-C , 21-H ) :   0.9783 
B(  0-C , 22-H ) :   0.9787 B(  1-C ,  2-O ) :   0.8959 B(  1-C , 23-H ) :   0.9740 
B(  1-C , 24-H ) :   0.9818 B(  2-O ,  3-C ) :   1.1782 B(  3-C ,  4-O ) :   1.9736 
B(  3-C ,  5-C ) :   1.0616 B(  5-C ,  6-C ) :   1.6407 B(  5-C , 12-C ) :   0.9668 
B(  6-C ,  7-C ) :   0.9554 B(  6-C ,  8-N ) :   1.1531 B(  7-C , 25-H ) :   0.9644 
B(  7-C , 26-H ) :   0.9919 B(  7-C , 27-H ) :   0.9646 B(  8-N ,  9-C ) :   1.1766 
B(  8-N , 28-H ) :   0.9487 B(  9-C , 10-S ) :   1.6111 B(  9-C , 11-N ) :   1.3053 
B( 11-N , 12-C ) :   0.9926 B( 11-N , 29-H ) :   0.9521 B( 12-C , 13-C ) :   0.9475 
B( 12-C , 30-H ) :   1.0005 B( 13-C , 14-C ) :   1.3755 B( 13-C , 19-C ) :   1.3689 
B( 14-C , 15-C ) :   1.3947 B( 14-C , 31-H ) :   0.9651 B( 15-C , 16-C ) :   1.3623 
B( 15-C , 32-H ) :   0.9715 B( 16-C , 17-C ) :   1.3317 B( 16-C , 33-H ) :   0.9861 
B( 17-C , 18-O ) :   1.1078 B( 17-C , 19-C ) :   1.3796 B( 18-O , 34-H ) :   0.9807 
B( 19-C , 35-H ) :   0.9585 

-------
TIMINGS
-------

Total SCF time: 0 days 1 hours 33 min 14 sec 

Total time                  ....    5594.976 sec
Sum of individual times     ....    5585.580 sec  ( 99.8%)

Fock matrix formation       ....    5559.308 sec  ( 99.4%)
Diagonalization             ....       2.136 sec  (  0.0%)
Density matrix formation    ....       0.331 sec  (  0.0%)
Population analysis         ....       0.257 sec  (  0.0%)
Initial guess               ....       6.368 sec  (  0.1%)
Orbital Transformation      ....       0.000 sec  (  0.0%)
Orbital Orthonormalization  ....       0.000 sec  (  0.0%)
DIIS solution               ....      11.204 sec  (  0.2%)
SOSCF solution              ....       4.397 sec  (  0.1%)

------------------------------------------------------------------------------
                                ORCA  MP2 
------------------------------------------------------------------------------

Freezing NCore=48 chemical core electrons

-------------
RI-MP2 ENERGY
-------------
Dimension of the basis                    ...  828
Memory devoted to MP2                     ...  256 MB   
Data format for buffers                   ... DOUBLE
Compression type for matrix containers    ... UNCOMPRESSED
Overall scaling of the MP2 energy         ...   1.000e+00
Calculating two index integrals           ... done (    0.045 sec)
Cholesky decomposition of V**-1           ... done (    0.502 sec)

-----------------
RI-TRANSFORMATION (AUX index driven)
-----------------

Dimension of the orbital-basis         ... 828
Dimension of the aux-basis             ... 2141
Transformation of internal/external MOs...   24-  76 to   77- 827
Number Format for Storage              ... Double (8 Byte)
Integral mode                          ... Direct

First Phase: integral generation and transformation of MO indices
  Aux angular momentum 0               ... done (    5.184 sec)
  Aux angular momentum 1               ... done (    8.205 sec)
  Aux angular momentum 2               ... done (   11.242 sec)
  Aux angular momentum 3               ... done (    8.720 sec)
  Aux angular momentum 4               ... done (    3.054 sec)
Closing buffer VIA ( 0.63 GB; CompressionRatio= 1.00)
  Phase 1 completed in    36.603 sec
Second Phase: sorting and transformation of aux index

IA-Transformation
Memory available                       ... 167 MB 
Max. # MO pairs treated in a batch     ... 12    
# of internal orbitals                 ... 53
# batches for internal orbitals        ... 5
Closing buffer IAV ( 0.63 GB; CompressionRatio= 1.00)
(ia|v) transformation done in    44.861 sec

  Phase 2 completed in    44.867 sec
RI-Integral transformation completed in    81.478 sec
Opening buffers                              ... done

Starting loop over batches of integrals:

Operator 0  - window                       ... ( 24- 76)x( 77-827)
Operator 0  - Memory available             ...   256 MB
Operator 0  - Memory needed per MO         ...  12.3 MB
Operator 0  - Number of orbitals per batch ... 13
Operator 0  - Number of batches            ... 5

OPERATOR  0   PASS   0:  MOs    24 ...   36
  Reading integrals       ... ok
  Internal MO  26
  Internal MO  29
  Internal MO  32
  Internal MO  35
OPERATOR  0   PASS   1:  MOs    37 ...   49
  Reading integrals       ... ok
  Internal MO  38
  Internal MO  41
  Internal MO  44
  Internal MO  47
OPERATOR  0   PASS   2:  MOs    50 ...   62
  Reading integrals       ... ok
  Internal MO  50
  Internal MO  53
  Internal MO  56
  Internal MO  59
  Internal MO  62
OPERATOR  0   PASS   3:  MOs    63 ...   75
  Reading integrals       ... ok
  Internal MO  65
  Internal MO  68
  Internal MO  71
  Internal MO  74
OPERATOR  0   PASS   4:  MOs    76 ...   76
  Reading integrals       ... ok
Time spent in pair loops =   122.539 sec
Deleting buffer (Ka|jb)[aa] ...done

-----------------------------------------------
 RI-MP2 CORRELATION ENERGY:     -3.529726471 Eh
-----------------------------------------------


-------
TIMINGS
-------

Total time                :  204.677 sec
Integral trafo            :   81.495 sec ( 39.8%)
I/O of integrals          :    5.694 sec (  2.8%)
K(i,j) Operators          :   60.666 sec ( 29.6%)
T(i,j) pair energies      :    9.555 sec (  4.7%)
V-calculation             :    0.045 sec (  0.0%)
V**(-1/2)                 :    0.502 sec (  0.2%)
Gamma(ia|P)               :    0.000 sec (  0.0%)
Gamma-Trafo               :    0.000 sec (  0.0%)
D(virtual)                :    0.000 sec (  0.0%)
D(internal)               :    0.000 sec (  0.0%)
W(virtual)                :    0.000 sec (  0.0%)
W(internal)               :    0.000 sec (  0.0%)
L(virtual)                :    0.000 sec (  0.0%)
L(internal)               :    0.000 sec (  0.0%)
G(D)                      :    0.000 sec (  0.0%)
G(Z)                      :    0.000 sec (  0.0%)
Z-Vector Solution         :    0.000 sec (  0.0%)
3-Index Derivative        :    0.000 sec (  0.0%)
2-Index Derivative        :    0.000 sec (  0.0%)
Separable Gradient        :    0.000 sec (  0.0%)


---------------------------------------
MP2 TOTAL ENERGY:    -1274.349109926 Eh
---------------------------------------

-------------------------   --------------------
FINAL SINGLE POINT ENERGY     -1274.349109925708
-------------------------   --------------------


                            ***************************************
                            *     ORCA property calculations      *
                            ***************************************


  WARNING: The energy has been calculated at the MP2 level but the densities
           used in the property calculations are still SCF densities
           MP2 response densities have not been calculated 
           use %mp2 Density relaxed end
           or  %mp2 Density unrelaxed end

                                    ---------------------
                                    Active property flags
                                    ---------------------
   (+) Dipole Moment


------------------------------------------------------------------------------
                       ORCA ELECTRIC PROPERTIES CALCULATION
------------------------------------------------------------------------------

Dipole Moment Calculation                       ... on
Quadrupole Moment Calculation                   ... off
Polarizability Calculation                      ... off
GBWName                                         ... CONFS/Conf839.orca.gbw
Electron density file                           ... CONFS/Conf839.orca.scfp
The origin for moment calculation is the CENTER OF MASS  = (32.945842, 31.453535 35.488306)

-------------
DIPOLE MOMENT
-------------
                                X             Y             Z
Electronic contribution:     11.90430       8.72371      10.85061
Nuclear contribution   :    -13.40164     -10.03523     -11.86894
                        -----------------------------------------
Total Dipole Moment    :     -1.49734      -1.31152      -1.01833
                        -----------------------------------------
Magnitude (a.u.)       :      2.23587
Magnitude (Debye)      :      5.68313



--------------------
Rotational spectrum 
--------------------
 
Rotational constants in cm-1:     0.010308     0.008868     0.005884 
Rotational constants in MHz :   309.028984   265.865911   176.406963 

 Dipole components along the rotational axes: 
x,y,z [a.u.] :     2.054620     0.577986     0.666019 
x,y,z [Debye]:     5.222428     1.469123     1.692885 

 

Timings for individual modules:

Sum of individual times         ...     5802.492 sec (=  96.708 min)
GTO integral calculation        ...        1.626 sec (=   0.027 min)   0.0 %
SCF iterations                  ...     5595.039 sec (=  93.251 min)  96.4 %
MP2 module                      ...      205.828 sec (=   3.430 min)   3.5 %
                             ****ORCA TERMINATED NORMALLY****
TOTAL RUN TIME: 0 days 1 hours 36 minutes 49 seconds 987 msec
