
                                 *****************
                                 * O   R   C   A *
                                 *****************

           --- An Ab Initio, DFT and Semiempirical electronic structure package ---

                  #######################################################
                  #                        -***-                        #
                  #          Department of theory and spectroscopy      #
                  #               Directorship: Frank Neese             #
                  #        Max Planck Institute fuer Kohlenforschung    #
                  #                Kaiser Wilhelm Platz 1               #
                  #                 D-45470 Muelheim/Ruhr               #
                  #                      Germany                        #
                  #                                                     #
                  #                  All rights reserved                #
                  #                        -***-                        #
                  #######################################################


                         Program Version 4.2.0 -  RELEASE  -


 With contributions from (in alphabetic order):
   Daniel Aravena         : Magnetic Suceptibility
   Michael Atanasov       : Ab Initio Ligand Field Theory (pilot matlab implementation)
   Alexander A. Auer      : GIAO ZORA, VPT2
   Ute Becker             : Parallelization
   Giovanni Bistoni       : ED, misc. LED, open-shell LED, HFLED
   Martin Brehm           : Molecular dynamics
   Dmytro Bykov           : SCF Hessian
   Vijay G. Chilkuri      : MRCI spin determinant printing, contributions to CSF-ICE
   Dipayan Datta          : RHF DLPNO-CCSD density
   Achintya Kumar Dutta   : EOM-CC, STEOM-CC
   Dmitry Ganyushin       : Spin-Orbit,Spin-Spin,Magnetic field MRCI
   Miquel Garcia          : C-PCM Hessian, Gaussian charge scheme
   Yang Guo               : DLPNO-NEVPT2, CIM, IAO-localization
   Andreas Hansen         : Spin unrestricted coupled pair/coupled cluster methods
   Benjamin Helmich-Paris : CASSCF linear response (MC-RPA)
   Lee Huntington         : MR-EOM, pCC
   Robert Izsak           : Overlap fitted RIJCOSX, COSX-SCS-MP3, EOM
   Christian Kollmar      : KDIIS, OOCD, Brueckner-CCSD(T), CCSD density
   Simone Kossmann        : Meta GGA functionals, TD-DFT gradient, OOMP2, MP2 Hessian
   Martin Krupicka        : AUTO-CI
   Lucas Lang             : DCDCAS
   Dagmar Lenk            : GEPOL surface, SMD
   Dimitrios Liakos       : Extrapolation schemes; Compound Job, initial MDCI parallelization
   Dimitrios Manganas     : Further ROCIS development; embedding schemes
   Dimitrios Pantazis     : SARC Basis sets
   Taras Petrenko         : DFT Hessian,TD-DFT gradient, ASA, ECA, R-Raman, ABS, FL, XAS/XES, NRVS
   Peter Pinski           : DLPNO-MP2, DLPNO-MP2 Gradient
   Christoph Reimann      : Effective Core Potentials
   Marius Retegan         : Local ZFS, SOC
   Christoph Riplinger    : Optimizer, TS searches, QM/MM, DLPNO-CCSD(T), (RO)-DLPNO pert. Triples
   Tobias Risthaus        : Range-separated hybrids, TD-DFT gradient, RPA, STAB
   Michael Roemelt        : Original ROCIS implementation
   Masaaki Saitow         : Open-shell DLPNO-CCSD energy and density
   Barbara Sandhoefer     : DKH picture change effects
   Avijit Sen             : IP-ROCIS
   Kantharuban Sivalingam : CASSCF convergence, NEVPT2, FIC-MRCI
   Bernardo de Souza      : ESD, SOC TD-DFT
   Georgi Stoychev        : AutoAux, RI-MP2 NMR
   Willem Van den Heuvel  : Paramagnetic NMR
   Boris Wezisla          : Elementary symmetry handling
   Frank Wennmohs         : Technical directorship


 We gratefully acknowledge several colleagues who have allowed us to
 interface, adapt or use parts of their codes:
   Stefan Grimme, W. Hujo, H. Kruse,             : VdW corrections, initial TS optimization,
                  C. Bannwarth                     DFT functionals, gCP, sTDA/sTD-DF
   Ed Valeev, F. Pavosevic, A. Kumar             : LibInt (2-el integral package), F12 methods
   Garnet Chan, S. Sharma, J. Yang, R. Olivares  : DMRG
   Ulf Ekstrom                                   : XCFun DFT Library
   Mihaly Kallay                                 : mrcc  (arbitrary order and MRCC methods)
   Andreas Klamt, Michael Diedenhofen            : otool_cosmo (COSMO solvation model)
   Jiri Pittner, Ondrej Demel                    : Mk-CCSD
   Frank Weinhold                                : gennbo (NPA and NBO analysis)
   Christopher J. Cramer and Donald G. Truhlar   : smd solvation model
   Lars Goerigk                                  : TD-DFT with DH, B97 family of functionals
   V. Asgeirsson, H. Jonsson                     : NEB implementation
   FAccTs GmbH                                   : IRC, NEB, NEB-TS, Multilevel, MM, QM/MM, CI optimization
   S Lehtola, MJT Oliveira, MAL Marques          : LibXC Library


 Your calculation uses the libint2 library for the computation of 2-el integrals
 For citations please refer to: http://libint.valeyev.net

 Your ORCA version has been built with support for libXC version: 4.2.3
 For citations please refer to: https://tddft.org/programs/libxc/

 This ORCA versions uses:
   CBLAS   interface :  Fast vector & matrix operations
   LAPACKE interface :  Fast linear algebra routines
   SCALAPACK package :  Parallel linear algebra routines


----- Orbital basis set information -----
Your calculation utilizes the basis: cc-pVTZ 
       H, B-Ne : Obtained from the ccRepo (grant-hill.group.shef.ac.uk/ccrepo) Feb. 2017
                 T. H. Dunning, Jr., J. Chem. Phys. 90, 1007 (1989)
            He : Obtained from the ccRepo (grant-hill.group.shef.ac.uk/ccrepo) Feb. 2017
                 D. E. Woon, T. H. Dunning, Jr., J. Chem. Phys. 100, 2975 (1994)
  Li-Be, Na-Mg : Obtained from the ccRepo (grant-hill.group.shef.ac.uk/ccrepo) Feb. 2017
                 B. P. Prascher, D. E. Woon, K. A. Peterson, T. H. Dunning, Jr., A. K. Wilson, Theor. Chem. Acc. 128, 69 (2011)
         Al-Ar : Obtained from the ccRepo (grant-hill.group.shef.ac.uk/ccrepo) Feb. 2017
                 D. E. Woon, T. H. Dunning, Jr., J. Chem. Phys. 98, 1358 (1993)
            Ca : Obtained from the Peterson Research Group Website (tyr0.chem.wsu.edu/~kipeters) Feb. 2017
                 J. Koput, K. A. Peterson, J. Phys. Chem. 106, 9595 (2002)
         Sc-Zn : Obtained from the ccRepo (grant-hill.group.shef.ac.uk/ccrepo) Feb. 2017
                 N. B. Balabanov, K. A. Peterson, J. Chem. Phys. 123, 064107 (2005)
                 N. B. Balabanov, K. A. Peterson, J. Chem. Phys. 125, 074110 (2006)
         Ga-Kr : Obtained from the ccRepo (grant-hill.group.shef.ac.uk/ccrepo) Feb. 2017
                 A. K. Wilson, D. E. Woon, K. A. Peterson, T. H. Dunning, Jr., J. Chem. Phys. 110, 7667 (1999)
             Y : Obtained from the ccRepo (grant-hill.group.shef.ac.uk/ccrepo) Feb. 2017
                 K. A. Peterson, D. Figgen, M. Dolg, H. Stoll, J. Chem. Phys. 126, 124101 (2007)
        Ag, Au : Obtained from the Peterson Research Group Website (tyr0.chem.wsu.edu/~kipeters) Feb. 2017
                 K. A. Peterson, C. Puzzarini, Theor. Chem. Acc. 114, 283 (2005)

----- AuxC basis set information -----
Your calculation utilizes the auxiliary basis: cc-pVTZ/C 
  Obtained from the EMSL Basis Set Exchange (bse.pnl.gov) Feb. 2017
  H-He, B-F, Al-Ar, Ga-Kr : F. Weigend, A. Kohn, C. Hattig, J. Chem. Phys. 116, 3175 (2002)
             Li-Be, Na-Mg : C. Haettig, Phys. Chem. Chem. Phys. 7, 59 (2005)
                       Ne : C. Haettig, Phys. Chem. Chem. Phys. 7, 59 (2005)
                            F. Weigend, A. Kohn, C. Hattig, J. Chem. Phys. 116, 3175 (2002)
                    Sc-Zn : J. G. Hill, J. A. Platts, J. Chem. Phys. 128, 044104 (2008)

================================================================================
                                        WARNINGS
                       Please study these warnings very carefully!
================================================================================


WARNING: No MP2 level density has been requested!
         To caclulate MP2 level properties use
         %mp2 Density relaxed end
         or
         %mp2 Density unrelaxed end

WARNING: Post HF methods need fully converged wavefunctions
  ===> : Setting SCFConvForced true
         You can overwrite this default with %scf ConvForced false 


INFO   : the flag for use of LIBINT has been found!

================================================================================
                                       INPUT FILE
================================================================================
NAME = CONFS/Conf910.orca
|  1> ! ri-mp2 cc-pvtz cc-pvtz/c TightSCF  NoKeepInts
|  2> 
|  3> %scf
|  4>   MaxCore 4096
|  5> end
|  6> *xyz  0  1
|  7>     C       14.1919595   15.3249754   16.1902685
|  8>     C       15.5339120   15.2056559   16.9323755
|  9>     O       16.5827049   15.4896684   15.9884460
| 10>     C       17.8376510   15.7225020   16.4718997
| 11>     O       18.6631850   14.8275207   16.4730506
| 12>     C       17.9406891   16.8933241   17.4012544
| 13>     C       17.3146781   18.0764523   17.1885041
| 14>     C       16.4604270   18.4639398   16.0007006
| 15>     N       17.4945710   19.1294779   18.0894970
| 16>     C       18.3782938   19.1182635   19.1370909
| 17>     S       18.6033284   20.4443271   20.0988948
| 18>     N       19.0638912   17.9479440   19.3501114
| 19>     C       18.8213160   16.6805228   18.6338007
| 20>     C       18.1899763   15.6440959   19.5593530
| 21>     C       18.7216697   14.3441038   19.6393942
| 22>     C       18.1290997   13.3772760   20.4686464
| 23>     C       16.9922480   13.7111721   21.2240016
| 24>     C       16.4560634   15.0031829   21.1433989
| 25>     O       15.3502508   15.3258327   21.8599892
| 26>     C       17.0476539   15.9633871   20.3166984
| 27>     H       13.3570978   15.1201765   16.8715647
| 28>     H       14.1450143   14.6025364   15.3656504
| 29>     H       14.0578015   16.3301759   15.7745613
| 30>     H       15.5415945   15.9173532   17.7679536
| 31>     H       15.6580443   14.1936226   17.3412951
| 32>     H       16.7419806   17.9059977   15.0989493
| 33>     H       16.5664883   19.5278099   15.7542018
| 34>     H       15.4008756   18.2699599   16.2019844
| 35>     H       17.0053868   19.9990693   17.9465765
| 36>     H       19.6909782   17.9597304   20.1445638
| 37>     H       19.7936033   16.2955539   18.2925805
| 38>     H       19.5885174   14.0765885   19.0391062
| 39>     H       18.5477905   12.3733994   20.5164903
| 40>     H       16.5299035   12.9659823   21.8629560
| 41>     H       15.1319845   14.5627314   22.4164886
| 42>     H       16.6163702   16.9576883   20.2717017
| 43> *
| 44> 
| 45>                          ****END OF INPUT****
================================================================================

                       ****************************
                       * Single Point Calculation *
                       ****************************

---------------------------------
CARTESIAN COORDINATES (ANGSTROEM)
---------------------------------
  C     14.191959   15.324975   16.190268
  C     15.533912   15.205656   16.932375
  O     16.582705   15.489668   15.988446
  C     17.837651   15.722502   16.471900
  O     18.663185   14.827521   16.473051
  C     17.940689   16.893324   17.401254
  C     17.314678   18.076452   17.188504
  C     16.460427   18.463940   16.000701
  N     17.494571   19.129478   18.089497
  C     18.378294   19.118264   19.137091
  S     18.603328   20.444327   20.098895
  N     19.063891   17.947944   19.350111
  C     18.821316   16.680523   18.633801
  C     18.189976   15.644096   19.559353
  C     18.721670   14.344104   19.639394
  C     18.129100   13.377276   20.468646
  C     16.992248   13.711172   21.224002
  C     16.456063   15.003183   21.143399
  O     15.350251   15.325833   21.859989
  C     17.047654   15.963387   20.316698
  H     13.357098   15.120176   16.871565
  H     14.145014   14.602536   15.365650
  H     14.057802   16.330176   15.774561
  H     15.541595   15.917353   17.767954
  H     15.658044   14.193623   17.341295
  H     16.741981   17.905998   15.098949
  H     16.566488   19.527810   15.754202
  H     15.400876   18.269960   16.201984
  H     17.005387   19.999069   17.946576
  H     19.690978   17.959730   20.144564
  H     19.793603   16.295554   18.292580
  H     19.588517   14.076588   19.039106
  H     18.547791   12.373399   20.516490
  H     16.529903   12.965982   21.862956
  H     15.131984   14.562731   22.416489
  H     16.616370   16.957688   20.271702

----------------------------
CARTESIAN COORDINATES (A.U.)
----------------------------
  NO LB      ZA    FRAG     MASS         X           Y           Z
   0 C     6.0000    0    12.011   26.818917   28.960007   30.595173
   1 C     6.0000    0    12.011   29.354839   28.734525   31.997552
   2 O     8.0000    0    15.999   31.336771   29.271231   30.213784
   3 C     6.0000    0    12.011   33.708275   29.711223   31.127379
   4 O     8.0000    0    15.999   35.268308   28.019953   31.129554
   5 C     6.0000    0    12.011   33.902989   31.923756   32.883605
   6 C     6.0000    0    12.011   32.720000   34.159544   32.481565
   7 C     6.0000    0    12.011   31.105699   34.891790   30.236942
   8 N     7.0000    0    14.007   33.059948   36.149474   34.184195
   9 C     6.0000    0    12.011   34.729942   36.128282   36.163861
  10 S    16.0000    0    32.060   35.155196   38.634179   37.981407
  11 N     7.0000    0    14.007   36.025533   33.916699   36.566411
  12 C     6.0000    0    12.011   35.567133   31.521620   35.212780
  13 C     6.0000    0    12.011   34.374074   29.563057   36.961821
  14 C     6.0000    0    12.011   35.378829   27.106428   37.113076
  15 C     6.0000    0    12.011   34.259033   25.279388   38.680136
  16 C     6.0000    0    12.011   32.110695   25.910360   40.107550
  17 C     6.0000    0    12.011   31.097453   28.351907   39.955233
  18 O     8.0000    0    15.999   29.007770   28.961627   41.309393
  19 C     6.0000    0    12.011   32.215397   30.166430   38.392996
  20 H     1.0000    0     1.008   25.241257   28.572993   31.882637
  21 H     1.0000    0     1.008   26.730203   27.594795   29.036871
  22 H     1.0000    0     1.008   26.565395   30.859560   29.809601
  23 H     1.0000    0     1.008   29.369357   30.079438   33.576566
  24 H     1.0000    0     1.008   29.589416   26.822060   32.770299
  25 H     1.0000    0     1.008   31.637758   33.837432   28.532879
  26 H     1.0000    0     1.008   31.306126   36.902213   29.771127
  27 H     1.0000    0     1.008   29.103437   34.525221   30.617313
  28 H     1.0000    0     1.008   32.135524   37.792764   33.914115
  29 H     1.0000    0     1.008   37.210556   33.938972   38.067709
  30 H     1.0000    0     1.008   37.404489   30.794134   34.567967
  31 H     1.0000    0     1.008   37.016933   26.600897   35.978697
  32 H     1.0000    0     1.008   35.050244   23.382336   38.770548
  33 H     1.0000    0     1.008   31.236991   24.502156   41.314999
  34 H     1.0000    0     1.008   28.595307   27.519574   42.361024
  35 H     1.0000    0     1.008   31.400389   32.045387   38.307964

--------------------------------
INTERNAL COORDINATES (ANGSTROEM)
--------------------------------
 C      0   0   0     0.000000000000     0.00000000     0.00000000
 C      1   0   0     1.538114577912     0.00000000     0.00000000
 O      2   1   0     1.439316694900   107.69909292     0.00000000
 C      3   2   1     1.364854819839   118.12237939   166.38155463
 O      4   3   2     1.217579252893   119.89121127    98.53531766
 C      4   3   2     1.498379590862   114.59662113   299.81055721
 C      6   4   3     1.355339367061   123.57204272   317.83589840
 C      7   6   4     1.513528545856   127.39951626   357.73899144
 N      7   6   4     1.397502263174   119.80869821   181.73005254
 C      9   7   6     1.370600134731   124.72305309     6.84255032
 S     10   9   7     1.653527134491   121.72044025   175.86967260
 N     10   9   7     1.372978244688   116.58524114   355.64703607
 C     12  10   9     1.475906584035   125.07257905   353.41245611
 C     13  12  10     1.526242967510   110.90459009   250.01250673
 C     14  13  12     1.406799177340   120.37636799   229.50308744
 C     15  14  13     1.404832520608   120.67244131   181.30322818
 C     16  15  14     1.405161866674   119.67261259     0.12002304
 C     17  16  15     1.401171876624   119.85358084     0.13349108
 O     18  17  16     1.356623034528   120.05558445   179.30112192
 C     18  17  16     1.398358016421   120.35033069   359.89223970
 H      1   2   3     1.096859680954   110.48115242   180.21243354
 H      1   2   3     1.097322637774   110.41555157    60.63628944
 H      1   2   3     1.096010442604   111.15808147   300.45062663
 H      2   1   3     1.097616886183   108.85055977   121.00678972
 H      2   1   3     1.098560634410   110.46551854   239.73340700
 H      8   7   6     1.097145033110   111.71498470   333.09532125
 H      8   7   6     1.097191982942   111.71531675   213.93665877
 H      8   7   6     1.095806798203   110.87079488    93.61938298
 H      9   7   6     1.007926908959   119.74860268   181.96162724
 H     12  10   9     1.012191503946   114.91133751   181.55695361
 H     13  12  10     1.099988578394   107.80720242   131.45278268
 H     15  14  13     1.087812048873   119.80351665     0.08028998
 H     16  15  14     1.088742050625   119.88745801   179.64920085
 H     17  16  15     1.085049768436   119.87438884   179.79002933
 H     19  18  17     0.969358217574   107.43080008     4.89475035
 H     20  18  17     1.084742001223   119.06049974   180.11841362

---------------------------
INTERNAL COORDINATES (A.U.)
---------------------------
 C      0   0   0     0.000000000000     0.00000000     0.00000000
 C      1   0   0     2.906615314846     0.00000000     0.00000000
 O      2   1   0     2.719914373341   107.69909292     0.00000000
 C      3   2   1     2.579201822058   118.12237939   166.38155463
 O      4   3   2     2.300891334313   119.89121127    98.53531766
 C      4   3   2     2.831527071386   114.59662113   299.81055721
 C      6   4   3     2.561220222268   123.57204272   317.83589840
 C      7   6   4     2.860154447539   127.39951626   357.73899144
 N      7   6   4     2.640896548934   119.80869821   181.73005254
 C      9   7   6     2.590058893757   124.72305309     6.84255032
 S     10   9   7     3.124713439195   121.72044025   175.86967260
 N     10   9   7     2.594552870293   116.58524114   355.64703607
 C     12  10   9     2.789059243078   125.07257905   353.41245611
 C     13  12  10     2.884181222418   110.90459009   250.01250673
 C     14  13  12     2.658465170598   120.37636799   229.50308744
 C     15  14  13     2.654748727975   120.67244131   181.30322818
 C     16  15  14     2.655371101844   119.67261259     0.12002304
 C     17  16  15     2.647831113371   119.85358084     0.13349108
 O     18  17  16     2.563646002228   120.05558445   179.30112192
 C     18  17  16     2.642513688209   120.35033069   359.89223970
 H      1   2   3     2.072764404343   110.48115242   180.21243354
 H      1   2   3     2.073639265945   110.41555157    60.63628944
 H      1   2   3     2.071159576439   111.15808147   300.45062663
 H      2   1   3     2.074195314852   108.85055977   121.00678972
 H      2   1   3     2.075978740543   110.46551854   239.73340700
 H      8   7   6     2.073303641769   111.71498470   333.09532125
 H      8   7   6     2.073392364095   111.71531675   213.93665877
 H      8   7   6     2.070774744293   110.87079488    93.61938298
 H      9   7   6     1.904705820942   119.74860268   181.96162724
 H     12  10   9     1.912764737539   114.91133751   181.55695361
 H     13  12  10     2.078677163605   107.80720242   131.45278268
 H     15  14  13     2.055666857550   119.80351665     0.08028998
 H     16  15  14     2.057424306165   119.88745801   179.64920085
 H     17  16  15     2.050446904019   119.87438884   179.79002933
 H     19  18  17     1.831821556880   107.43080008     4.89475035
 H     20  18  17     2.049865308274   119.06049974   180.11841362

---------------------
BASIS SET INFORMATION
---------------------
There are 5 groups of distinct atoms

 Group   1 Type C   : 18s5p2d1f contracted to 4s3p2d1f pattern {8811/311/11/1}
 Group   2 Type O   : 18s5p2d1f contracted to 4s3p2d1f pattern {8811/311/11/1}
 Group   3 Type N   : 18s5p2d1f contracted to 4s3p2d1f pattern {8811/311/11/1}
 Group   4 Type S   : 41s16p2d1f contracted to 5s4p2d1f pattern {13131311/7711/11/1}
 Group   5 Type H   : 5s2p1d contracted to 3s2p1d pattern {311/11/1}

Atom   0C    basis set group =>   1
Atom   1C    basis set group =>   1
Atom   2O    basis set group =>   2
Atom   3C    basis set group =>   1
Atom   4O    basis set group =>   2
Atom   5C    basis set group =>   1
Atom   6C    basis set group =>   1
Atom   7C    basis set group =>   1
Atom   8N    basis set group =>   3
Atom   9C    basis set group =>   1
Atom  10S    basis set group =>   4
Atom  11N    basis set group =>   3
Atom  12C    basis set group =>   1
Atom  13C    basis set group =>   1
Atom  14C    basis set group =>   1
Atom  15C    basis set group =>   1
Atom  16C    basis set group =>   1
Atom  17C    basis set group =>   1
Atom  18O    basis set group =>   2
Atom  19C    basis set group =>   1
Atom  20H    basis set group =>   5
Atom  21H    basis set group =>   5
Atom  22H    basis set group =>   5
Atom  23H    basis set group =>   5
Atom  24H    basis set group =>   5
Atom  25H    basis set group =>   5
Atom  26H    basis set group =>   5
Atom  27H    basis set group =>   5
Atom  28H    basis set group =>   5
Atom  29H    basis set group =>   5
Atom  30H    basis set group =>   5
Atom  31H    basis set group =>   5
Atom  32H    basis set group =>   5
Atom  33H    basis set group =>   5
Atom  34H    basis set group =>   5
Atom  35H    basis set group =>   5
---------------------------------
AUXILIARY/C BASIS SET INFORMATION
---------------------------------
There are 5 groups of distinct atoms

 Group   1 Type C   : 8s6p5d3f1g contracted to 8s6p5d3f1g pattern {11111111/111111/11111/111/1}
 Group   2 Type O   : 8s6p5d3f1g contracted to 8s6p5d3f1g pattern {11111111/111111/11111/111/1}
 Group   3 Type N   : 8s6p5d3f1g contracted to 8s6p5d3f1g pattern {11111111/111111/11111/111/1}
 Group   4 Type S   : 10s8p7d5f2g contracted to 10s8p7d5f2g pattern {1111111111/11111111/1111111/11111/11}
 Group   5 Type H   : 4s3p2d1f contracted to 4s3p2d1f pattern {1111/111/11/1}

Atom   0C    basis set group =>   1
Atom   1C    basis set group =>   1
Atom   2O    basis set group =>   2
Atom   3C    basis set group =>   1
Atom   4O    basis set group =>   2
Atom   5C    basis set group =>   1
Atom   6C    basis set group =>   1
Atom   7C    basis set group =>   1
Atom   8N    basis set group =>   3
Atom   9C    basis set group =>   1
Atom  10S    basis set group =>   4
Atom  11N    basis set group =>   3
Atom  12C    basis set group =>   1
Atom  13C    basis set group =>   1
Atom  14C    basis set group =>   1
Atom  15C    basis set group =>   1
Atom  16C    basis set group =>   1
Atom  17C    basis set group =>   1
Atom  18O    basis set group =>   2
Atom  19C    basis set group =>   1
Atom  20H    basis set group =>   5
Atom  21H    basis set group =>   5
Atom  22H    basis set group =>   5
Atom  23H    basis set group =>   5
Atom  24H    basis set group =>   5
Atom  25H    basis set group =>   5
Atom  26H    basis set group =>   5
Atom  27H    basis set group =>   5
Atom  28H    basis set group =>   5
Atom  29H    basis set group =>   5
Atom  30H    basis set group =>   5
Atom  31H    basis set group =>   5
Atom  32H    basis set group =>   5
Atom  33H    basis set group =>   5
Atom  34H    basis set group =>   5
Atom  35H    basis set group =>   5
------------------------------------------------------------------------------
                           ORCA GTO INTEGRAL CALCULATION
------------------------------------------------------------------------------

                         BASIS SET STATISTICS AND STARTUP INFO

 # of primitive gaussian shells          ...  682
 # of primitive gaussian functions       ... 1312
 # of contracted shells                  ...  298
 # of contracted basis functions         ...  828
 Highest angular momentum                ...    3
 Maximum contraction depth               ...   13
 Integral package used                   ... LIBINT
 Integral threshhold            Thresh   ...  2.500e-11
 Primitive cut-off              TCut     ...  2.500e-12


------------------------------ INTEGRAL EVALUATION ----------------------------


 * One electron integrals 
 Pre-screening matrix                    ... done
 Shell pair data                         ... done (   0.013 sec)

-------------------------------------------------------------------------------
                                 ORCA SCF
-------------------------------------------------------------------------------

------------
SCF SETTINGS
------------
Hamiltonian:
 Ab initio Hamiltonian  Method          .... Hartree-Fock(GTOs)


General Settings:
 Integral files         IntName         .... CONFS/Conf910.orca
 Hartree-Fock type      HFTyp           .... RHF
 Total Charge           Charge          ....    0
 Multiplicity           Mult            ....    1
 Number of Electrons    NEL             ....  154
 Basis Dimension        Dim             ....  828
 Nuclear Repulsion      ENuc            ....   1724.0853214534 Eh

Convergence Acceleration:
 DIIS                   CNVDIIS         .... on
   Start iteration      DIISMaxIt       ....    12
   Startup error        DIISStart       ....  0.200000
   # of expansion vecs  DIISMaxEq       ....     5
   Bias factor          DIISBfac        ....   1.050
   Max. coefficient     DIISMaxC        ....  10.000
 Newton-Raphson         CNVNR           .... off
 SOSCF                  CNVSOSCF        .... on
   Start iteration      SOSCFMaxIt      ....   150
   Startup grad/error   SOSCFStart      ....  0.003300
 Level Shifting         CNVShift        .... on
   Level shift para.    LevelShift      ....    0.2500
   Turn off err/grad.   ShiftErr        ....    0.0010
 Zerner damping         CNVZerner       .... off
 Static damping         CNVDamp         .... on
   Fraction old density DampFac         ....    0.7000
   Max. Damping (<1)    DampMax         ....    0.9800
   Min. Damping (>=0)   DampMin         ....    0.0000
   Turn off err/grad.   DampErr         ....    0.1000
 Fernandez-Rico         CNVRico         .... off

SCF Procedure:
 Maximum # iterations   MaxIter         ....   125
 SCF integral mode      SCFMode         .... Direct
   Integral package                     .... LIBINT
 Reset frequency        DirectResetFreq ....    20
 Integral Threshold     Thresh          ....  2.500e-11 Eh
 Primitive CutOff       TCut            ....  2.500e-12 Eh

Convergence Tolerance:
 Convergence Check Mode ConvCheckMode   .... Total+1el-Energy
 Convergence forced     ConvForced      .... 1
 Energy Change          TolE            ....  1.000e-08 Eh
 1-El. energy change                    ....  1.000e-05 Eh
 Orbital Gradient       TolG            ....  1.000e-05
 Orbital Rotation angle TolX            ....  1.000e-05
 DIIS Error             TolErr          ....  5.000e-07


Diagonalization of the overlap matrix:
Smallest eigenvalue                        ... 3.322e-05
Time for diagonalization                   ...    0.279 sec
Threshold for overlap eigenvalues          ... 1.000e-08
Number of eigenvalues below threshold      ... 0
Time for construction of square roots      ...    0.275 sec
Total time needed                          ...    0.556 sec

-------------------
DFT GRID GENERATION
-------------------

General Integration Accuracy     IntAcc      ...  4.340
Radial Grid Type                 RadialGrid  ... Gauss-Chebyshev
Angular Grid (max. acc.)         AngularGrid ... Lebedev-110
Angular grid pruning method      GridPruning ... 3 (G Style)
Weight generation scheme         WeightScheme... Becke
Basis function cutoff            BFCut       ...    1.0000e-11
Integration weight cutoff        WCut        ...    1.0000e-14
Grids for H and He will be reduced by one unit

# of grid points (after initial pruning)     ...  46246 (   0.0 sec)
# of grid points (after weights+screening)   ...  41211 (   0.3 sec)
nearest neighbour list constructed           ...    0.0 sec
Grid point re-assignment to atoms done       ...    0.0 sec
Grid point division into batches done        ...    0.0 sec
Reduced shell lists constructed in    0.8 sec

Total number of grid points                  ...    41211
Total number of batches                      ...      664
Average number of points per batch           ...       62
Average number of grid points per atom       ...     1145
Average number of shells per batch           ...   153.00 (51.34%)
Average number of basis functions per batch  ...   389.14 (47.00%)
Average number of large shells per batch     ...    98.04 (64.08%)
Average number of large basis fcns per batch ...   251.20 (64.55%)
Maximum spatial batch extension              ...  21.10, 23.80, 21.34 au
Average spatial batch extension              ...   3.54,  3.39,  3.45 au

Time for grid setup =    1.137 sec

------------------------------
INITIAL GUESS: MODEL POTENTIAL
------------------------------
Loading Hartree-Fock densities                     ... done
Calculating cut-offs                               ... done
Setting up the integral package                    ... done
Initializing the effective Hamiltonian             ... done
Starting the Coulomb interaction                   ... done (   3.7 sec)
Reading the grid                                   ... done
Mapping shells                                     ... done
Starting the XC term evaluation                    ... done (   1.1 sec)
Transforming the Hamiltonian                       ... done (   0.2 sec)
Diagonalizing the Hamiltonian                      ... done (   0.3 sec)
Back transforming the eigenvectors                 ... done (   0.1 sec)
Now organizing SCF variables                       ... done
                      ------------------
                      INITIAL GUESS DONE (   8.2 sec)
                      ------------------
--------------
SCF ITERATIONS
--------------
ITER       Energy         Delta-E        Max-DP      RMS-DP      [F,P]     Damp
               ***  Starting incremental Fock matrix formation  ***
  0  -1269.9975567671   0.000000000000 0.04930267  0.00044488  0.3116454 0.7000
  1  -1270.2651715403  -0.267614773165 0.03607637  0.00036143  0.1844398 0.7000
                               ***Turning on DIIS***
  2  -1270.4318381486  -0.166666608324 0.02583722  0.00024092  0.1098036 0.7000
  3  -1272.5567316125  -2.124893463899 0.06314128  0.00051479  0.0829048 0.0000
  4  -1270.7401944070   1.816537205431 0.01414700  0.00010593  0.0069017 0.0000
  5  -1270.8004182466  -0.060223839600 0.00659363  0.00005559  0.0038580 0.0000
                      *** Initiating the SOSCF procedure ***
                           *** Shutting down DIIS ***
                      *** Re-Reading the Fockian *** 
                      *** Removing any level shift *** 
ITER      Energy       Delta-E        Grad      Rot      Max-DP    RMS-DP
  6  -1270.77889018   0.0215280656  0.001939  0.001939  0.003527  0.000029
               *** Restarting incremental Fock matrix formation ***
  7  -1270.79388190  -0.0149917191  0.001115  0.002859  0.002080  0.000019
  8  -1270.79393646  -0.0000545593  0.000516  0.003515  0.002534  0.000021
  9  -1270.79395849  -0.0000220284  0.000181  0.000353  0.000390  0.000005
 10  -1270.79396143  -0.0000029434  0.000049  0.000132  0.000134  0.000002
 11  -1270.79396173  -0.0000002938  0.000024  0.000146  0.000089  0.000001
 12  -1270.79396181  -0.0000000803  0.000012  0.000043  0.000029  0.000000
                 **** Energy Check signals convergence ****
              ***Rediagonalizing the Fockian in SOSCF/NRSCF***

               *****************************************************
               *                     SUCCESS                       *
               *           SCF CONVERGED AFTER  13 CYCLES          *
               *****************************************************


----------------
TOTAL SCF ENERGY
----------------

Total Energy       :        -1270.79396181 Eh          -34580.06172 eV

Components:
Nuclear Repulsion  :         1724.08532145 Eh           46914.74670 eV
Electronic Energy  :        -2994.87928326 Eh          -81494.80841 eV
One Electron Energy:        -5168.99839084 Eh         -140655.59701 eV
Two Electron Energy:         2174.11910757 Eh           59160.78859 eV

Virial components:
Potential Energy   :        -2539.82636416 Eh          -69112.18896 eV
Kinetic Energy     :         1269.03240235 Eh           34532.12725 eV
Virial Ratio       :            2.00138811


---------------
SCF CONVERGENCE
---------------

  Last Energy change         ...   -5.6007e-09  Tolerance :   1.0000e-08
  Last MAX-Density change    ...    7.3756e-06  Tolerance :   1.0000e-07
  Last RMS-Density change    ...    1.0581e-07  Tolerance :   5.0000e-09
  Last Orbital Gradient      ...    3.6121e-06  Tolerance :   1.0000e-05
  Last Orbital Rotation      ...    7.6955e-06  Tolerance :   1.0000e-05

             **** THE GBW FILE WAS UPDATED (CONFS/Conf910.orca.gbw) ****
             **** DENSITY FILE WAS UPDATED (CONFS/Conf910.orca.scfp) ****
             **** ENERGY FILE WAS UPDATED (CONFS/Conf910.orca.en.tmp) ****
             **** THE GBW FILE WAS UPDATED (CONFS/Conf910.orca.gbw) ****
             **** DENSITY FILE WAS UPDATED (CONFS/Conf910.orca.scfp) ****
----------------
ORBITAL ENERGIES
----------------

  NO   OCC          E(Eh)            E(eV) 
   0   2.0000     -91.890837     -2500.4768 
   1   2.0000     -20.598211      -560.5058 
   2   2.0000     -20.586950      -560.1994 
   3   2.0000     -20.555461      -559.3425 
   4   2.0000     -15.630199      -425.3193 
   5   2.0000     -15.610503      -424.7834 
   6   2.0000     -11.394299      -310.0546 
   7   2.0000     -11.386678      -309.8473 
   8   2.0000     -11.335267      -308.4483 
   9   2.0000     -11.314456      -307.8820 
  10   2.0000     -11.310937      -307.7863 
  11   2.0000     -11.302219      -307.5490 
  12   2.0000     -11.264793      -306.5306 
  13   2.0000     -11.262416      -306.4659 
  14   2.0000     -11.260162      -306.4046 
  15   2.0000     -11.254253      -306.2438 
  16   2.0000     -11.243990      -305.9645 
  17   2.0000     -11.240167      -305.8605 
  18   2.0000     -11.236797      -305.7688 
  19   2.0000     -11.235192      -305.7251 
  20   2.0000      -8.895911      -242.0701 
  21   2.0000      -6.577489      -178.9826 
  22   2.0000      -6.575477      -178.9278 
  23   2.0000      -6.574892      -178.9119 
  24   2.0000      -1.450768       -39.4774 
  25   2.0000      -1.418008       -38.5860 
  26   2.0000      -1.358820       -36.9754 
  27   2.0000      -1.341842       -36.5134 
  28   2.0000      -1.240124       -33.7455 
  29   2.0000      -1.158852       -31.5340 
  30   2.0000      -1.123883       -30.5824 
  31   2.0000      -1.046713       -28.4825 
  32   2.0000      -1.038448       -28.2576 
  33   2.0000      -1.016306       -27.6551 
  34   2.0000      -1.003119       -27.2963 
  35   2.0000      -0.988378       -26.8951 
  36   2.0000      -0.926072       -25.1997 
  37   2.0000      -0.880182       -23.9510 
  38   2.0000      -0.852939       -23.2097 
  39   2.0000      -0.842525       -22.9263 
  40   2.0000      -0.834772       -22.7153 
  41   2.0000      -0.833795       -22.6887 
  42   2.0000      -0.757839       -20.6218 
  43   2.0000      -0.737643       -20.0723 
  44   2.0000      -0.730715       -19.8838 
  45   2.0000      -0.696231       -18.9454 
  46   2.0000      -0.687828       -18.7168 
  47   2.0000      -0.683051       -18.5868 
  48   2.0000      -0.675920       -18.3927 
  49   2.0000      -0.659382       -17.9427 
  50   2.0000      -0.651787       -17.7360 
  51   2.0000      -0.642889       -17.4939 
  52   2.0000      -0.635171       -17.2839 
  53   2.0000      -0.623780       -16.9739 
  54   2.0000      -0.606805       -16.5120 
  55   2.0000      -0.606696       -16.5090 
  56   2.0000      -0.601822       -16.3764 
  57   2.0000      -0.582294       -15.8450 
  58   2.0000      -0.576683       -15.6923 
  59   2.0000      -0.566869       -15.4253 
  60   2.0000      -0.560029       -15.2392 
  61   2.0000      -0.552289       -15.0286 
  62   2.0000      -0.540838       -14.7170 
  63   2.0000      -0.527719       -14.3600 
  64   2.0000      -0.523686       -14.2502 
  65   2.0000      -0.515111       -14.0169 
  66   2.0000      -0.502235       -13.6665 
  67   2.0000      -0.497521       -13.5382 
  68   2.0000      -0.484653       -13.1881 
  69   2.0000      -0.467078       -12.7098 
  70   2.0000      -0.462583       -12.5875 
  71   2.0000      -0.451820       -12.2947 
  72   2.0000      -0.357383        -9.7249 
  73   2.0000      -0.350047        -9.5253 
  74   2.0000      -0.330143        -8.9837 
  75   2.0000      -0.321868        -8.7585 
  76   2.0000      -0.318580        -8.6690 
  77   0.0000       0.072418         1.9706 
  78   0.0000       0.103879         2.8267 
  79   0.0000       0.117773         3.2048 
  80   0.0000       0.130751         3.5579 
  81   0.0000       0.134841         3.6692 
  82   0.0000       0.143293         3.8992 
  83   0.0000       0.150474         4.0946 
  84   0.0000       0.152250         4.1429 
  85   0.0000       0.160171         4.3585 
  86   0.0000       0.168668         4.5897 
  87   0.0000       0.176518         4.8033 
  88   0.0000       0.186516         5.0754 
  89   0.0000       0.194142         5.2829 
  90   0.0000       0.199719         5.4346 
  91   0.0000       0.206079         5.6077 
  92   0.0000       0.208722         5.6796 
  93   0.0000       0.211641         5.7590 
  94   0.0000       0.225059         6.1242 
  95   0.0000       0.232002         6.3131 
  96   0.0000       0.243964         6.6386 
  97   0.0000       0.246230         6.7003 
  98   0.0000       0.268959         7.3187 
  99   0.0000       0.279177         7.5968 
 100   0.0000       0.292422         7.9572 
 101   0.0000       0.306189         8.3318 
 102   0.0000       0.314386         8.5549 
 103   0.0000       0.317054         8.6275 
 104   0.0000       0.319709         8.6997 
 105   0.0000       0.322853         8.7853 
 106   0.0000       0.339799         9.2464 
 107   0.0000       0.348011         9.4699 
 108   0.0000       0.350465         9.5366 
 109   0.0000       0.355540         9.6747 
 110   0.0000       0.368647        10.0314 
 111   0.0000       0.376288        10.2393 
 112   0.0000       0.382576        10.4104 
 113   0.0000       0.391110        10.6426 
 114   0.0000       0.403253        10.9731 
 115   0.0000       0.409126        11.1329 
 116   0.0000       0.421647        11.4736 
 117   0.0000       0.424266        11.5449 
 118   0.0000       0.430057        11.7025 
 119   0.0000       0.442467        12.0401 
 120   0.0000       0.443943        12.0803 
 121   0.0000       0.447954        12.1895 
 122   0.0000       0.452193        12.3048 
 123   0.0000       0.454320        12.3627 
 124   0.0000       0.461164        12.5489 
 125   0.0000       0.470588        12.8054 
 126   0.0000       0.476491        12.9660 
 127   0.0000       0.480146        13.0654 
 128   0.0000       0.490934        13.3590 
 129   0.0000       0.494513        13.4564 
 130   0.0000       0.503383        13.6977 
 131   0.0000       0.510559        13.8930 
 132   0.0000       0.513644        13.9770 
 133   0.0000       0.516731        14.0610 
 134   0.0000       0.523034        14.2325 
 135   0.0000       0.524751        14.2792 
 136   0.0000       0.533478        14.5167 
 137   0.0000       0.537143        14.6164 
 138   0.0000       0.545503        14.8439 
 139   0.0000       0.554443        15.0872 
 140   0.0000       0.558287        15.1918 
 141   0.0000       0.562180        15.2977 
 142   0.0000       0.567263        15.4360 
 143   0.0000       0.570730        15.5304 
 144   0.0000       0.576314        15.6823 
 145   0.0000       0.580900        15.8071 
 146   0.0000       0.587435        15.9849 
 147   0.0000       0.590323        16.0635 
 148   0.0000       0.595413        16.2020 
 149   0.0000       0.602112        16.3843 
 150   0.0000       0.603689        16.4272 
 151   0.0000       0.606080        16.4923 
 152   0.0000       0.611334        16.6353 
 153   0.0000       0.612503        16.6671 
 154   0.0000       0.624529        16.9943 
 155   0.0000       0.628068        17.0906 
 156   0.0000       0.632934        17.2230 
 157   0.0000       0.635124        17.2826 
 158   0.0000       0.636229        17.3127 
 159   0.0000       0.640132        17.4189 
 160   0.0000       0.647519        17.6199 
 161   0.0000       0.649529        17.6746 
 162   0.0000       0.657819        17.9002 
 163   0.0000       0.658699        17.9241 
 164   0.0000       0.671165        18.2633 
 165   0.0000       0.676676        18.4133 
 166   0.0000       0.679757        18.4971 
 167   0.0000       0.686212        18.6728 
 168   0.0000       0.687895        18.7186 
 169   0.0000       0.690666        18.7940 
 170   0.0000       0.704381        19.1672 
 171   0.0000       0.709009        19.2931 
 172   0.0000       0.712244        19.3812 
 173   0.0000       0.720687        19.6109 
 174   0.0000       0.727533        19.7972 
 175   0.0000       0.732211        19.9245 
 176   0.0000       0.739128        20.1127 
 177   0.0000       0.743511        20.2320 
 178   0.0000       0.746067        20.3015 
 179   0.0000       0.756230        20.5781 
 180   0.0000       0.759942        20.6791 
 181   0.0000       0.774189        21.0667 
 182   0.0000       0.780531        21.2393 
 183   0.0000       0.787602        21.4317 
 184   0.0000       0.797972        21.7139 
 185   0.0000       0.809089        22.0164 
 186   0.0000       0.814180        22.1550 
 187   0.0000       0.822241        22.3743 
 188   0.0000       0.828335        22.5401 
 189   0.0000       0.830908        22.6102 
 190   0.0000       0.839015        22.8308 
 191   0.0000       0.842809        22.9340 
 192   0.0000       0.866010        23.5653 
 193   0.0000       0.873135        23.7592 
 194   0.0000       0.877542        23.8791 
 195   0.0000       0.879829        23.9414 
 196   0.0000       0.881987        24.0001 
 197   0.0000       0.892469        24.2853 
 198   0.0000       0.901490        24.5308 
 199   0.0000       0.906768        24.6744 
 200   0.0000       0.917859        24.9762 
 201   0.0000       0.923176        25.1209 
 202   0.0000       0.934516        25.4295 
 203   0.0000       0.937421        25.5085 
 204   0.0000       0.942059        25.6347 
 205   0.0000       0.954877        25.9835 
 206   0.0000       0.962352        26.1869 
 207   0.0000       0.965800        26.2807 
 208   0.0000       0.969360        26.3776 
 209   0.0000       0.972879        26.4734 
 210   0.0000       0.979566        26.6554 
 211   0.0000       0.988094        26.8874 
 212   0.0000       0.993884        27.0449 
 213   0.0000       1.004673        27.3385 
 214   0.0000       1.010183        27.4885 
 215   0.0000       1.016039        27.6478 
 216   0.0000       1.029577        28.0162 
 217   0.0000       1.031440        28.0669 
 218   0.0000       1.039336        28.2818 
 219   0.0000       1.042374        28.3644 
 220   0.0000       1.053523        28.6678 
 221   0.0000       1.058634        28.8069 
 222   0.0000       1.065559        28.9953 
 223   0.0000       1.068844        29.0847 
 224   0.0000       1.083831        29.4925 
 225   0.0000       1.086049        29.5529 
 226   0.0000       1.088612        29.6227 
 227   0.0000       1.095729        29.8163 
 228   0.0000       1.107512        30.1369 
 229   0.0000       1.112637        30.2764 
 230   0.0000       1.123739        30.5785 
 231   0.0000       1.126988        30.6669 
 232   0.0000       1.139065        30.9955 
 233   0.0000       1.143614        31.1193 
 234   0.0000       1.158563        31.5261 
 235   0.0000       1.167643        31.7732 
 236   0.0000       1.169751        31.8305 
 237   0.0000       1.181530        32.1511 
 238   0.0000       1.183381        32.2014 
 239   0.0000       1.189341        32.3636 
 240   0.0000       1.193492        32.4766 
 241   0.0000       1.198268        32.6065 
 242   0.0000       1.205176        32.7945 
 243   0.0000       1.218397        33.1543 
 244   0.0000       1.223994        33.3066 
 245   0.0000       1.228826        33.4381 
 246   0.0000       1.243342        33.8331 
 247   0.0000       1.247338        33.9418 
 248   0.0000       1.255291        34.1582 
 249   0.0000       1.256711        34.1968 
 250   0.0000       1.267454        34.4892 
 251   0.0000       1.281800        34.8795 
 252   0.0000       1.287199        35.0265 
 253   0.0000       1.294813        35.2337 
 254   0.0000       1.304393        35.4943 
 255   0.0000       1.310013        35.6473 
 256   0.0000       1.318045        35.8658 
 257   0.0000       1.324826        36.0504 
 258   0.0000       1.326378        36.0926 
 259   0.0000       1.334168        36.3046 
 260   0.0000       1.340532        36.4777 
 261   0.0000       1.348511        36.6949 
 262   0.0000       1.351422        36.7741 
 263   0.0000       1.369062        37.2541 
 264   0.0000       1.378430        37.5090 
 265   0.0000       1.389809        37.8186 
 266   0.0000       1.396839        38.0099 
 267   0.0000       1.398674        38.0599 
 268   0.0000       1.404917        38.2297 
 269   0.0000       1.422301        38.7028 
 270   0.0000       1.424699        38.7680 
 271   0.0000       1.428501        38.8715 
 272   0.0000       1.438600        39.1463 
 273   0.0000       1.441040        39.2127 
 274   0.0000       1.457377        39.6573 
 275   0.0000       1.457848        39.6701 
 276   0.0000       1.466587        39.9079 
 277   0.0000       1.468685        39.9649 
 278   0.0000       1.475633        40.1540 
 279   0.0000       1.490771        40.5660 
 280   0.0000       1.494428        40.6654 
 281   0.0000       1.502064        40.8733 
 282   0.0000       1.510136        41.0929 
 283   0.0000       1.512890        41.1678 
 284   0.0000       1.522433        41.4275 
 285   0.0000       1.525538        41.5120 
 286   0.0000       1.536862        41.8201 
 287   0.0000       1.545564        42.0569 
 288   0.0000       1.549517        42.1645 
 289   0.0000       1.557979        42.3948 
 290   0.0000       1.563024        42.5320 
 291   0.0000       1.575094        42.8605 
 292   0.0000       1.576102        42.8879 
 293   0.0000       1.587264        43.1917 
 294   0.0000       1.589211        43.2446 
 295   0.0000       1.605840        43.6971 
 296   0.0000       1.609176        43.7879 
 297   0.0000       1.621233        44.1160 
 298   0.0000       1.626580        44.2615 
 299   0.0000       1.628290        44.3080 
 300   0.0000       1.636327        44.5267 
 301   0.0000       1.638576        44.5879 
 302   0.0000       1.644669        44.7537 
 303   0.0000       1.646591        44.8060 
 304   0.0000       1.659474        45.1566 
 305   0.0000       1.674328        45.5608 
 306   0.0000       1.688221        45.9388 
 307   0.0000       1.694062        46.0978 
 308   0.0000       1.696794        46.1721 
 309   0.0000       1.699383        46.2426 
 310   0.0000       1.716504        46.7085 
 311   0.0000       1.721302        46.8390 
 312   0.0000       1.735539        47.2264 
 313   0.0000       1.744785        47.4780 
 314   0.0000       1.750762        47.6406 
 315   0.0000       1.757370        47.8205 
 316   0.0000       1.764542        48.0156 
 317   0.0000       1.790968        48.7347 
 318   0.0000       1.794376        48.8275 
 319   0.0000       1.801677        49.0261 
 320   0.0000       1.812961        49.3332 
 321   0.0000       1.815534        49.4032 
 322   0.0000       1.837633        50.0045 
 323   0.0000       1.846374        50.2424 
 324   0.0000       1.847530        50.2739 
 325   0.0000       1.871205        50.9181 
 326   0.0000       1.874972        51.0206 
 327   0.0000       1.903927        51.8085 
 328   0.0000       1.908015        51.9197 
 329   0.0000       1.920351        52.2554 
 330   0.0000       1.924656        52.3726 
 331   0.0000       1.937962        52.7346 
 332   0.0000       1.943871        52.8954 
 333   0.0000       1.963030        53.4168 
 334   0.0000       1.979112        53.8544 
 335   0.0000       1.988721        54.1158 
 336   0.0000       1.995755        54.3073 
 337   0.0000       2.017306        54.8937 
 338   0.0000       2.018156        54.9168 
 339   0.0000       2.024780        55.0971 
 340   0.0000       2.030905        55.2637 
 341   0.0000       2.043487        55.6061 
 342   0.0000       2.063931        56.1624 
 343   0.0000       2.073280        56.4168 
 344   0.0000       2.095496        57.0214 
 345   0.0000       2.113984        57.5244 
 346   0.0000       2.133055        58.0434 
 347   0.0000       2.136114        58.1266 
 348   0.0000       2.153238        58.5926 
 349   0.0000       2.171728        59.0957 
 350   0.0000       2.183691        59.4212 
 351   0.0000       2.195119        59.7322 
 352   0.0000       2.210774        60.1582 
 353   0.0000       2.231855        60.7319 
 354   0.0000       2.236241        60.8512 
 355   0.0000       2.274303        61.8869 
 356   0.0000       2.276949        61.9589 
 357   0.0000       2.286921        62.2303 
 358   0.0000       2.292941        62.3941 
 359   0.0000       2.306024        62.7501 
 360   0.0000       2.316758        63.0422 
 361   0.0000       2.328808        63.3701 
 362   0.0000       2.359416        64.2030 
 363   0.0000       2.363650        64.3182 
 364   0.0000       2.368952        64.4625 
 365   0.0000       2.382711        64.8369 
 366   0.0000       2.389447        65.0202 
 367   0.0000       2.399051        65.2815 
 368   0.0000       2.421753        65.8993 
 369   0.0000       2.430358        66.1334 
 370   0.0000       2.437991        66.3411 
 371   0.0000       2.461783        66.9885 
 372   0.0000       2.467705        67.1497 
 373   0.0000       2.481147        67.5155 
 374   0.0000       2.491403        67.7945 
 375   0.0000       2.504638        68.1547 
 376   0.0000       2.522549        68.6420 
 377   0.0000       2.535330        68.9898 
 378   0.0000       2.540857        69.1402 
 379   0.0000       2.548547        69.3495 
 380   0.0000       2.567775        69.8727 
 381   0.0000       2.582447        70.2720 
 382   0.0000       2.587218        70.4018 
 383   0.0000       2.593659        70.5771 
 384   0.0000       2.610228        71.0279 
 385   0.0000       2.612203        71.0816 
 386   0.0000       2.633768        71.6685 
 387   0.0000       2.643133        71.9233 
 388   0.0000       2.646187        72.0064 
 389   0.0000       2.668208        72.6056 
 390   0.0000       2.675491        72.8038 
 391   0.0000       2.695947        73.3605 
 392   0.0000       2.706050        73.6354 
 393   0.0000       2.712497        73.8108 
 394   0.0000       2.719655        74.0056 
 395   0.0000       2.732052        74.3429 
 396   0.0000       2.738589        74.5208 
 397   0.0000       2.744396        74.6788 
 398   0.0000       2.757004        75.0219 
 399   0.0000       2.760688        75.1221 
 400   0.0000       2.782400        75.7129 
 401   0.0000       2.787585        75.8540 
 402   0.0000       2.795846        76.0789 
 403   0.0000       2.808774        76.4306 
 404   0.0000       2.818155        76.6859 
 405   0.0000       2.829241        76.9876 
 406   0.0000       2.836424        77.1830 
 407   0.0000       2.839576        77.2688 
 408   0.0000       2.851659        77.5976 
 409   0.0000       2.867646        78.0326 
 410   0.0000       2.877620        78.3040 
 411   0.0000       2.882832        78.4459 
 412   0.0000       2.892099        78.6980 
 413   0.0000       2.900409        78.9242 
 414   0.0000       2.917651        79.3933 
 415   0.0000       2.923195        79.5442 
 416   0.0000       2.939179        79.9791 
 417   0.0000       2.949189        80.2515 
 418   0.0000       2.957595        80.4803 
 419   0.0000       2.964423        80.6660 
 420   0.0000       2.967525        80.7505 
 421   0.0000       2.974931        80.9520 
 422   0.0000       2.987863        81.3039 
 423   0.0000       2.997224        81.5586 
 424   0.0000       3.004509        81.7568 
 425   0.0000       3.015732        82.0622 
 426   0.0000       3.018513        82.1379 
 427   0.0000       3.025414        82.3257 
 428   0.0000       3.035451        82.5988 
 429   0.0000       3.043400        82.8151 
 430   0.0000       3.046173        82.8906 
 431   0.0000       3.052262        83.0563 
 432   0.0000       3.061742        83.3142 
 433   0.0000       3.068166        83.4891 
 434   0.0000       3.077830        83.7520 
 435   0.0000       3.082466        83.8782 
 436   0.0000       3.093583        84.1807 
 437   0.0000       3.097871        84.2974 
 438   0.0000       3.103355        84.4466 
 439   0.0000       3.108258        84.5800 
 440   0.0000       3.113024        84.7097 
 441   0.0000       3.115477        84.7764 
 442   0.0000       3.131080        85.2010 
 443   0.0000       3.135225        85.3138 
 444   0.0000       3.145109        85.5828 
 445   0.0000       3.158370        85.9436 
 446   0.0000       3.164463        86.1094 
 447   0.0000       3.171262        86.2944 
 448   0.0000       3.184830        86.6636 
 449   0.0000       3.196567        86.9830 
 450   0.0000       3.198873        87.0458 
 451   0.0000       3.214055        87.4589 
 452   0.0000       3.215835        87.5073 
 453   0.0000       3.222177        87.6799 
 454   0.0000       3.225108        87.7597 
 455   0.0000       3.229269        87.8729 
 456   0.0000       3.238911        88.1353 
 457   0.0000       3.245443        88.3130 
 458   0.0000       3.252988        88.5183 
 459   0.0000       3.263080        88.7929 
 460   0.0000       3.264320        88.8267 
 461   0.0000       3.274438        89.1020 
 462   0.0000       3.281238        89.2870 
 463   0.0000       3.286985        89.4434 
 464   0.0000       3.299706        89.7896 
 465   0.0000       3.300828        89.8201 
 466   0.0000       3.308602        90.0316 
 467   0.0000       3.317041        90.2613 
 468   0.0000       3.322150        90.4003 
 469   0.0000       3.328915        90.5844 
 470   0.0000       3.333782        90.7168 
 471   0.0000       3.342568        90.9559 
 472   0.0000       3.351957        91.2114 
 473   0.0000       3.356218        91.3273 
 474   0.0000       3.356855        91.3447 
 475   0.0000       3.367517        91.6348 
 476   0.0000       3.374626        91.8282 
 477   0.0000       3.379658        91.9652 
 478   0.0000       3.384277        92.0909 
 479   0.0000       3.390124        92.2500 
 480   0.0000       3.395142        92.3865 
 481   0.0000       3.398175        92.4690 
 482   0.0000       3.404229        92.6338 
 483   0.0000       3.405208        92.6604 
 484   0.0000       3.412014        92.8456 
 485   0.0000       3.423317        93.1532 
 486   0.0000       3.426382        93.2366 
 487   0.0000       3.430864        93.3585 
 488   0.0000       3.433106        93.4196 
 489   0.0000       3.440640        93.6246 
 490   0.0000       3.442651        93.6793 
 491   0.0000       3.450857        93.9026 
 492   0.0000       3.454303        93.9964 
 493   0.0000       3.463081        94.2352 
 494   0.0000       3.468129        94.3726 
 495   0.0000       3.476622        94.6037 
 496   0.0000       3.483384        94.7877 
 497   0.0000       3.489314        94.9491 
 498   0.0000       3.492678        95.0406 
 499   0.0000       3.510221        95.5180 
 500   0.0000       3.519231        95.7631 
 501   0.0000       3.527779        95.9957 
 502   0.0000       3.530871        96.0799 
 503   0.0000       3.537366        96.2566 
 504   0.0000       3.544327        96.4460 
 505   0.0000       3.551679        96.6461 
 506   0.0000       3.566453        97.0481 
 507   0.0000       3.575211        97.2864 
 508   0.0000       3.581431        97.4557 
 509   0.0000       3.586883        97.6040 
 510   0.0000       3.593309        97.7789 
 511   0.0000       3.605452        98.1093 
 512   0.0000       3.611676        98.2787 
 513   0.0000       3.618926        98.4760 
 514   0.0000       3.623672        98.6051 
 515   0.0000       3.627491        98.7090 
 516   0.0000       3.628718        98.7424 
 517   0.0000       3.636567        98.9560 
 518   0.0000       3.644466        99.1710 
 519   0.0000       3.647219        99.2459 
 520   0.0000       3.653126        99.4066 
 521   0.0000       3.654746        99.4507 
 522   0.0000       3.667956        99.8101 
 523   0.0000       3.673665        99.9655 
 524   0.0000       3.687751       100.3488 
 525   0.0000       3.690905       100.4346 
 526   0.0000       3.696013       100.5736 
 527   0.0000       3.697688       100.6192 
 528   0.0000       3.703910       100.7885 
 529   0.0000       3.712783       101.0300 
 530   0.0000       3.718061       101.1736 
 531   0.0000       3.719218       101.2051 
 532   0.0000       3.730431       101.5102 
 533   0.0000       3.738633       101.7334 
 534   0.0000       3.741509       101.8116 
 535   0.0000       3.751639       102.0873 
 536   0.0000       3.755101       102.1815 
 537   0.0000       3.758126       102.2638 
 538   0.0000       3.766225       102.4842 
 539   0.0000       3.773372       102.6787 
 540   0.0000       3.781696       102.9052 
 541   0.0000       3.786979       103.0489 
 542   0.0000       3.791431       103.1701 
 543   0.0000       3.805164       103.5438 
 544   0.0000       3.807698       103.6127 
 545   0.0000       3.815945       103.8371 
 546   0.0000       3.817809       103.8879 
 547   0.0000       3.828611       104.1818 
 548   0.0000       3.835057       104.3572 
 549   0.0000       3.842046       104.5474 
 550   0.0000       3.849253       104.7435 
 551   0.0000       3.869039       105.2819 
 552   0.0000       3.873716       105.4092 
 553   0.0000       3.877987       105.5254 
 554   0.0000       3.884452       105.7013 
 555   0.0000       3.896406       106.0266 
 556   0.0000       3.904997       106.2604 
 557   0.0000       3.917592       106.6031 
 558   0.0000       3.920989       106.6955 
 559   0.0000       3.926906       106.8565 
 560   0.0000       3.937457       107.1437 
 561   0.0000       3.946657       107.3940 
 562   0.0000       3.954227       107.6000 
 563   0.0000       3.972058       108.0852 
 564   0.0000       3.975425       108.1768 
 565   0.0000       3.984599       108.4265 
 566   0.0000       3.989159       108.5505 
 567   0.0000       3.996693       108.7556 
 568   0.0000       4.011797       109.1666 
 569   0.0000       4.014446       109.2386 
 570   0.0000       4.029814       109.6568 
 571   0.0000       4.039074       109.9088 
 572   0.0000       4.047241       110.1310 
 573   0.0000       4.058499       110.4374 
 574   0.0000       4.067786       110.6901 
 575   0.0000       4.077704       110.9600 
 576   0.0000       4.088588       111.2561 
 577   0.0000       4.092859       111.3724 
 578   0.0000       4.101403       111.6048 
 579   0.0000       4.105373       111.7129 
 580   0.0000       4.118549       112.0714 
 581   0.0000       4.123053       112.1940 
 582   0.0000       4.131863       112.4337 
 583   0.0000       4.138231       112.6070 
 584   0.0000       4.144265       112.7712 
 585   0.0000       4.145214       112.7970 
 586   0.0000       4.153104       113.0117 
 587   0.0000       4.159494       113.1856 
 588   0.0000       4.166891       113.3869 
 589   0.0000       4.176119       113.6380 
 590   0.0000       4.181056       113.7723 
 591   0.0000       4.184720       113.8720 
 592   0.0000       4.192050       114.0715 
 593   0.0000       4.194257       114.1315 
 594   0.0000       4.201127       114.3185 
 595   0.0000       4.215425       114.7075 
 596   0.0000       4.220499       114.8456 
 597   0.0000       4.232574       115.1742 
 598   0.0000       4.243406       115.4689 
 599   0.0000       4.247692       115.5856 
 600   0.0000       4.258419       115.8775 
 601   0.0000       4.263577       116.0178 
 602   0.0000       4.273186       116.2793 
 603   0.0000       4.275413       116.3399 
 604   0.0000       4.291613       116.7807 
 605   0.0000       4.296878       116.9240 
 606   0.0000       4.305331       117.1540 
 607   0.0000       4.311936       117.3337 
 608   0.0000       4.318574       117.5144 
 609   0.0000       4.320950       117.5790 
 610   0.0000       4.333224       117.9130 
 611   0.0000       4.339566       118.0856 
 612   0.0000       4.351180       118.4016 
 613   0.0000       4.364989       118.7774 
 614   0.0000       4.371512       118.9549 
 615   0.0000       4.377948       119.1300 
 616   0.0000       4.384997       119.3218 
 617   0.0000       4.393675       119.5580 
 618   0.0000       4.402569       119.8000 
 619   0.0000       4.407845       119.9436 
 620   0.0000       4.418173       120.2246 
 621   0.0000       4.422034       120.3297 
 622   0.0000       4.423501       120.3696 
 623   0.0000       4.435019       120.6830 
 624   0.0000       4.452402       121.1560 
 625   0.0000       4.454445       121.2116 
 626   0.0000       4.473503       121.7302 
 627   0.0000       4.482397       121.9722 
 628   0.0000       4.487437       122.1094 
 629   0.0000       4.503121       122.5362 
 630   0.0000       4.504515       122.5741 
 631   0.0000       4.510926       122.7485 
 632   0.0000       4.511362       122.7604 
 633   0.0000       4.518065       122.9428 
 634   0.0000       4.532611       123.3386 
 635   0.0000       4.539730       123.5323 
 636   0.0000       4.551861       123.8624 
 637   0.0000       4.553329       123.9024 
 638   0.0000       4.562811       124.1604 
 639   0.0000       4.575829       124.5146 
 640   0.0000       4.586760       124.8121 
 641   0.0000       4.595730       125.0562 
 642   0.0000       4.611151       125.4758 
 643   0.0000       4.619559       125.7046 
 644   0.0000       4.622379       125.7813 
 645   0.0000       4.627283       125.9148 
 646   0.0000       4.634620       126.1144 
 647   0.0000       4.637948       126.2050 
 648   0.0000       4.645250       126.4037 
 649   0.0000       4.660764       126.8258 
 650   0.0000       4.667945       127.0213 
 651   0.0000       4.671259       127.1114 
 652   0.0000       4.684014       127.4585 
 653   0.0000       4.687027       127.5405 
 654   0.0000       4.691405       127.6596 
 655   0.0000       4.706505       128.0705 
 656   0.0000       4.711469       128.2056 
 657   0.0000       4.720019       128.4382 
 658   0.0000       4.733344       128.8008 
 659   0.0000       4.742139       129.0402 
 660   0.0000       4.754933       129.3883 
 661   0.0000       4.767358       129.7264 
 662   0.0000       4.793226       130.4303 
 663   0.0000       4.805640       130.7681 
 664   0.0000       4.816346       131.0594 
 665   0.0000       4.839952       131.7018 
 666   0.0000       4.843378       131.7950 
 667   0.0000       4.868571       132.4805 
 668   0.0000       4.884501       132.9140 
 669   0.0000       4.901232       133.3693 
 670   0.0000       4.910784       133.6292 
 671   0.0000       4.919620       133.8697 
 672   0.0000       4.930670       134.1703 
 673   0.0000       4.951607       134.7401 
 674   0.0000       4.965576       135.1202 
 675   0.0000       4.991021       135.8126 
 676   0.0000       5.011756       136.3768 
 677   0.0000       5.016746       136.5126 
 678   0.0000       5.024656       136.7278 
 679   0.0000       5.049422       137.4017 
 680   0.0000       5.050642       137.4349 
 681   0.0000       5.070460       137.9742 
 682   0.0000       5.076072       138.1270 
 683   0.0000       5.096678       138.6877 
 684   0.0000       5.099621       138.7677 
 685   0.0000       5.116708       139.2327 
 686   0.0000       5.127414       139.5240 
 687   0.0000       5.143424       139.9597 
 688   0.0000       5.152050       140.1944 
 689   0.0000       5.156770       140.3229 
 690   0.0000       5.168657       140.6463 
 691   0.0000       5.173259       140.7715 
 692   0.0000       5.189811       141.2219 
 693   0.0000       5.200690       141.5180 
 694   0.0000       5.210290       141.7792 
 695   0.0000       5.216066       141.9364 
 696   0.0000       5.219988       142.0431 
 697   0.0000       5.228821       142.2835 
 698   0.0000       5.237221       142.5120 
 699   0.0000       5.247150       142.7822 
 700   0.0000       5.262877       143.2102 
 701   0.0000       5.267336       143.3315 
 702   0.0000       5.295855       144.1075 
 703   0.0000       5.327464       144.9677 
 704   0.0000       5.332472       145.1039 
 705   0.0000       5.337788       145.2486 
 706   0.0000       5.341875       145.3598 
 707   0.0000       5.351994       145.6352 
 708   0.0000       5.358619       145.8154 
 709   0.0000       5.372755       146.2001 
 710   0.0000       5.387259       146.5948 
 711   0.0000       5.408610       147.1758 
 712   0.0000       5.440960       148.0560 
 713   0.0000       5.453281       148.3913 
 714   0.0000       5.469702       148.8382 
 715   0.0000       5.488709       149.3554 
 716   0.0000       5.500795       149.6842 
 717   0.0000       5.503599       149.7605 
 718   0.0000       5.519617       150.1964 
 719   0.0000       5.521179       150.2389 
 720   0.0000       5.527329       150.4063 
 721   0.0000       5.541759       150.7989 
 722   0.0000       5.556899       151.2109 
 723   0.0000       5.561425       151.3341 
 724   0.0000       5.578217       151.7910 
 725   0.0000       5.603660       152.4833 
 726   0.0000       5.612891       152.7345 
 727   0.0000       5.635713       153.3556 
 728   0.0000       5.645112       153.6113 
 729   0.0000       5.645982       153.6350 
 730   0.0000       5.654496       153.8667 
 731   0.0000       5.660907       154.0411 
 732   0.0000       5.672809       154.3650 
 733   0.0000       5.681788       154.6093 
 734   0.0000       5.690895       154.8571 
 735   0.0000       5.710584       155.3929 
 736   0.0000       5.718860       155.6181 
 737   0.0000       5.727160       155.8439 
 738   0.0000       5.749888       156.4624 
 739   0.0000       5.751296       156.5007 
 740   0.0000       5.760765       156.7584 
 741   0.0000       5.777231       157.2064 
 742   0.0000       5.799016       157.7992 
 743   0.0000       5.813765       158.2006 
 744   0.0000       5.821135       158.4011 
 745   0.0000       5.845302       159.0588 
 746   0.0000       5.857226       159.3832 
 747   0.0000       5.869459       159.7161 
 748   0.0000       5.902428       160.6132 
 749   0.0000       5.911710       160.8658 
 750   0.0000       5.929157       161.3406 
 751   0.0000       5.957414       162.1095 
 752   0.0000       5.973932       162.5590 
 753   0.0000       5.995733       163.1522 
 754   0.0000       6.009129       163.5167 
 755   0.0000       6.035219       164.2267 
 756   0.0000       6.051840       164.6790 
 757   0.0000       6.056778       164.8133 
 758   0.0000       6.078063       165.3925 
 759   0.0000       6.092433       165.7835 
 760   0.0000       6.097800       165.9296 
 761   0.0000       6.171481       167.9345 
 762   0.0000       6.219832       169.2502 
 763   0.0000       6.231715       169.5736 
 764   0.0000       6.235077       169.6651 
 765   0.0000       6.259049       170.3174 
 766   0.0000       6.294311       171.2769 
 767   0.0000       6.340489       172.5335 
 768   0.0000       6.346283       172.6911 
 769   0.0000       6.369386       173.3198 
 770   0.0000       6.374300       173.4535 
 771   0.0000       6.388218       173.8322 
 772   0.0000       6.405029       174.2897 
 773   0.0000       6.436527       175.1468 
 774   0.0000       6.452854       175.5911 
 775   0.0000       6.459208       175.7640 
 776   0.0000       6.499753       176.8673 
 777   0.0000       6.554815       178.3656 
 778   0.0000       6.604063       179.7057 
 779   0.0000       6.630602       180.4279 
 780   0.0000       6.683280       181.8613 
 781   0.0000       6.705469       182.4651 
 782   0.0000       6.720460       182.8730 
 783   0.0000       6.778567       184.4542 
 784   0.0000       6.823278       185.6708 
 785   0.0000       6.860994       186.6971 
 786   0.0000       6.908104       187.9791 
 787   0.0000       6.922864       188.3807 
 788   0.0000       6.962420       189.4571 
 789   0.0000       6.994415       190.3277 
 790   0.0000       7.051972       191.8939 
 791   0.0000       7.061323       192.1484 
 792   0.0000       7.082204       192.7166 
 793   0.0000       7.132275       194.0791 
 794   0.0000       7.243301       197.1002 
 795   0.0000       7.258269       197.5076 
 796   0.0000       7.281591       198.1422 
 797   0.0000       7.290472       198.3838 
 798   0.0000       7.340805       199.7535 
 799   0.0000       7.366644       200.4566 
 800   0.0000       7.391347       201.1288 
 801   0.0000       7.535564       205.0531 
 802   0.0000       7.577149       206.1847 
 803   0.0000       7.584947       206.3969 
 804   0.0000       7.665980       208.6019 
 805   0.0000       7.814212       212.6355 
 806   0.0000       7.828067       213.0125 
 807   0.0000       7.893378       214.7897 
 808   0.0000       7.932590       215.8568 
 809   0.0000       9.432649       256.6754 
 810   0.0000       9.680810       263.4282 
 811   0.0000      10.847040       295.1630 
 812   0.0000      11.223585       305.4093 
 813   0.0000      11.998163       326.4866 
 814   0.0000      12.582912       342.3984 
 815   0.0000      12.936638       352.0238 
 816   0.0000      13.077454       355.8556 
 817   0.0000      13.265916       360.9839 
 818   0.0000      13.359211       363.5226 
 819   0.0000      13.442408       365.7865 
 820   0.0000      13.502989       367.4350 
 821   0.0000      13.735324       373.7572 
 822   0.0000      13.966255       380.0411 
 823   0.0000      13.970666       380.1611 
 824   0.0000      14.131197       384.5294 
 825   0.0000      14.496073       394.4582 
 826   0.0000      14.654018       398.7561 
 827   0.0000      15.997534       435.3150 

                    ********************************
                    * MULLIKEN POPULATION ANALYSIS *
                    ********************************

-----------------------
MULLIKEN ATOMIC CHARGES
-----------------------
   0 C :   -0.266395
   1 C :    0.011390
   2 O :   -0.356947
   3 C :    0.463605
   4 O :   -0.381878
   5 C :   -0.240882
   6 C :    0.153637
   7 C :   -0.310309
   8 N :   -0.127470
   9 C :    0.197911
  10 S :   -0.437372
  11 N :   -0.203251
  12 C :    0.057323
  13 C :    0.050119
  14 C :   -0.174096
  15 C :   -0.132131
  16 C :   -0.279257
  17 C :    0.318496
  18 O :   -0.358800
  19 C :   -0.304340
  20 H :    0.095953
  21 H :    0.108136
  22 H :    0.090985
  23 H :    0.099549
  24 H :    0.120766
  25 H :    0.137906
  26 H :    0.122723
  27 H :    0.119340
  28 H :    0.197787
  29 H :    0.195180
  30 H :    0.159719
  31 H :    0.162332
  32 H :    0.162355
  33 H :    0.131417
  34 H :    0.241567
  35 H :    0.174933
Sum of atomic charges:   -0.0000000

--------------------------------
MULLIKEN REDUCED ORBITAL CHARGES
--------------------------------
  0 C s       :     3.260822  s :     3.260822
      pz      :     0.994683  p :     2.929308
      px      :     0.919489
      py      :     1.015136
      dz2     :     0.005525  d :     0.071831
      dxz     :     0.019338
      dyz     :     0.021520
      dx2y2   :     0.016818
      dxy     :     0.008631
      f0      :     0.000309  f :     0.004434
      f+1     :     0.000323
      f-1     :     0.000374
      f+2     :     0.002081
      f-2     :     0.000355
      f+3     :     0.000501
      f-3     :     0.000491
  1 C s       :     3.174895  s :     3.174895
      pz      :     0.850416  p :     2.639047
      px      :     0.765888
      py      :     1.022742
      dz2     :     0.024557  d :     0.162708
      dxz     :     0.035725
      dyz     :     0.039234
      dx2y2   :     0.039890
      dxy     :     0.023302
      f0      :     0.001088  f :     0.011960
      f+1     :     0.002343
      f-1     :     0.000769
      f+2     :     0.003067
      f-2     :     0.002124
      f+3     :     0.001324
      f-3     :     0.001245
  2 O s       :     3.723969  s :     3.723969
      pz      :     1.559355  p :     4.597112
      px      :     1.218982
      py      :     1.818775
      dz2     :     0.006089  d :     0.033571
      dxz     :     0.013534
      dyz     :     0.003075
      dx2y2   :     0.006398
      dxy     :     0.004475
      f0      :     0.000154  f :     0.002295
      f+1     :     0.000268
      f-1     :     0.000046
      f+2     :     0.000559
      f-2     :     0.000256
      f+3     :     0.000546
      f-3     :     0.000466
  3 C s       :     3.028219  s :     3.028219
      pz      :     0.690410  p :     2.203271
      px      :     0.710803
      py      :     0.802058
      dz2     :     0.023337  d :     0.278759
      dxz     :     0.065190
      dyz     :     0.035064
      dx2y2   :     0.087899
      dxy     :     0.067270
      f0      :     0.002235  f :     0.026146
      f+1     :     0.002305
      f-1     :     0.001566
      f+2     :     0.002370
      f-2     :     0.004889
      f+3     :     0.005727
      f-3     :     0.007054
  4 O s       :     3.776300  s :     3.776300
      pz      :     1.495465  p :     4.567279
      px      :     1.576652
      py      :     1.495163
      dz2     :     0.003622  d :     0.035839
      dxz     :     0.005080
      dyz     :     0.006522
      dx2y2   :     0.008472
      dxy     :     0.012142
      f0      :     0.000239  f :     0.002460
      f+1     :     0.000185
      f-1     :     0.000210
      f+2     :     0.000018
      f-2     :     0.000456
      f+3     :     0.000683
      f-3     :     0.000668
  5 C s       :     3.205442  s :     3.205442
      pz      :     0.966479  p :     2.941945
      px      :     1.049288
      py      :     0.926178
      dz2     :     0.015638  d :     0.082694
      dxz     :     0.011304
      dyz     :     0.025415
      dx2y2   :     0.016084
      dxy     :     0.014254
      f0      :     0.000867  f :     0.010801
      f+1     :     0.001394
      f-1     :     0.001679
      f+2     :     0.001948
      f-2     :     0.001542
      f+3     :     0.001273
      f-3     :     0.002098
  6 C s       :     3.188315  s :     3.188315
      pz      :     0.862655  p :     2.468989
      px      :     0.843915
      py      :     0.762419
      dz2     :     0.032177  d :     0.174802
      dxz     :     0.021732
      dyz     :     0.046949
      dx2y2   :     0.037867
      dxy     :     0.036078
      f0      :     0.001777  f :     0.014256
      f+1     :     0.001268
      f-1     :     0.002605
      f+2     :     0.002306
      f-2     :     0.002534
      f+3     :     0.001588
      f-3     :     0.002178
  7 C s       :     3.285871  s :     3.285871
      pz      :     0.937665  p :     2.948328
      px      :     0.969399
      py      :     1.041264
      dz2     :     0.016579  d :     0.071448
      dxz     :     0.013127
      dyz     :     0.013412
      dx2y2   :     0.024079
      dxy     :     0.004250
      f0      :     0.000337  f :     0.004661
      f+1     :     0.001216
      f-1     :     0.000797
      f+2     :     0.000878
      f-2     :     0.000453
      f+3     :     0.000433
      f-3     :     0.000549
  8 N s       :     3.344521  s :     3.344521
      pz      :     1.228585  p :     3.718905
      px      :     1.358967
      py      :     1.131353
      dz2     :     0.013880  d :     0.059089
      dxz     :     0.010171
      dyz     :     0.013583
      dx2y2   :     0.009054
      dxy     :     0.012402
      f0      :     0.000593  f :     0.004955
      f+1     :     0.000951
      f-1     :     0.000723
      f+2     :     0.000997
      f-2     :     0.000901
      f+3     :     0.000466
      f-3     :     0.000324
  9 C s       :     3.166702  s :     3.166702
      pz      :     0.770435  p :     2.355731
      px      :     0.711017
      py      :     0.874279
      dz2     :     0.062682  d :     0.262068
      dxz     :     0.036694
      dyz     :     0.048084
      dx2y2   :     0.055750
      dxy     :     0.058858
      f0      :     0.002638  f :     0.017587
      f+1     :     0.002491
      f-1     :     0.002306
      f+2     :     0.002456
      f-2     :     0.002570
      f+3     :     0.002270
      f-3     :     0.002857
 10 S s       :     5.855857  s :     5.855857
      pz      :     3.478122  p :    10.486701
      px      :     3.734636
      py      :     3.273943
      dz2     :     0.010092  d :     0.084676
      dxz     :     0.004467
      dyz     :     0.039577
      dx2y2   :     0.018009
      dxy     :     0.012531
      f0      :     0.001130  f :     0.010137
      f+1     :     0.000084
      f-1     :     0.002252
      f+2     :     0.003213
      f-2     :     0.001255
      f+3     :     0.001133
      f-3     :     0.001070
 11 N s       :     3.373473  s :     3.373473
      pz      :     1.323170  p :     3.767595
      px      :     1.379120
      py      :     1.065304
      dz2     :     0.008348  d :     0.057741
      dxz     :     0.008363
      dyz     :     0.013869
      dx2y2   :     0.013384
      dxy     :     0.013778
      f0      :     0.000372  f :     0.004442
      f+1     :     0.000581
      f-1     :     0.000555
      f+2     :     0.000654
      f-2     :     0.000698
      f+3     :     0.000826
      f-3     :     0.000757
 12 C s       :     3.117349  s :     3.117349
      pz      :     0.851132  p :     2.630371
      px      :     1.003366
      py      :     0.775873
      dz2     :     0.036527  d :     0.183660
      dxz     :     0.029210
      dyz     :     0.041720
      dx2y2   :     0.038264
      dxy     :     0.037939
      f0      :     0.001175  f :     0.011297
      f+1     :     0.001194
      f-1     :     0.002005
      f+2     :     0.002452
      f-2     :     0.001848
      f+3     :     0.001360
      f-3     :     0.001263
 13 C s       :     3.089569  s :     3.089569
      pz      :     0.911001  p :     2.742043
      px      :     0.903442
      py      :     0.927600
      dz2     :     0.018101  d :     0.107026
      dxz     :     0.011407
      dyz     :     0.029156
      dx2y2   :     0.022813
      dxy     :     0.025548
      f0      :     0.001078  f :     0.011244
      f+1     :     0.001603
      f-1     :     0.001143
      f+2     :     0.001828
      f-2     :     0.001949
      f+3     :     0.001760
[...]
      f-1     :     0.005324
      f+2     :     0.006570
      f-2     :     0.005629
      f+3     :     0.006241
      f-3     :     0.009546
 15 C s       :     2.705823  s :     2.705823
      pz      :     0.895832  p :     2.794217
      px      :     0.933820
      py      :     0.964565
      dz2     :     0.091837  d :     0.415441
      dxz     :     0.069182
      dyz     :     0.057709
      dx2y2   :     0.100077
      dxy     :     0.096635
      f0      :     0.003055  f :     0.041006
      f+1     :     0.005357
      f-1     :     0.005951
      f+2     :     0.007007
      f-2     :     0.006435
      f+3     :     0.006705
      f-3     :     0.006497
 16 C s       :     2.701872  s :     2.701872
      pz      :     0.936605  p :     2.868163
      px      :     0.964475
      py      :     0.967083
      dz2     :     0.043868  d :     0.390908
      dxz     :     0.058570
      dyz     :     0.085738
      dx2y2   :     0.094285
      dxy     :     0.108448
      f0      :     0.004406  f :     0.040336
      f+1     :     0.005032
      f-1     :     0.003242
      f+2     :     0.005611
      f-2     :     0.005869
      f+3     :     0.007740
      f-3     :     0.008437
 17 C s       :     2.701465  s :     2.701465
      pz      :     0.844085  p :     2.684962
      px      :     0.819936
      py      :     1.020941
      dz2     :     0.125176  d :     0.709190
      dxz     :     0.115107
      dyz     :     0.132550
      dx2y2   :     0.170385
      dxy     :     0.165972
      f0      :     0.009345  f :     0.099360
      f+1     :     0.016766
      f-1     :     0.008323
      f+2     :     0.015124
      f-2     :     0.015586
      f+3     :     0.014948
      f-3     :     0.019267
 18 O s       :     3.177248  s :     3.177248
      pz      :     1.434173  p :     4.348576
      px      :     1.423630
      py      :     1.490773
      dz2     :     0.008245  d :     0.075590
      dxz     :     0.017749
      dyz     :     0.017716
      dx2y2   :     0.018108
      dxy     :     0.013773
      f0      :     0.000596  f :     0.005073
      f+1     :     0.000775
      f-1     :     0.000338
      f+2     :     0.000827
      f-2     :     0.000902
      f+3     :     0.000703
      f-3     :     0.000933
 19 C s       :     2.695448  s :     2.695448
      pz      :     0.932237  p :     2.847449
      px      :     0.953104
      py      :     0.962108
      dz2     :     0.074917  d :     0.388967
      dxz     :     0.066210
      dyz     :     0.060733
      dx2y2   :     0.088803
      dxy     :     0.098304
      f0      :     0.003148  f :     0.040815
      f+1     :     0.005353
      f-1     :     0.005542
      f+2     :     0.007109
      f-2     :     0.006912
      f+3     :     0.006723
      f-3     :     0.006029
 20 H s       :     0.845274  s :     0.845274
      pz      :     0.051269  p :     0.150659
      px      :     0.058303
      py      :     0.041087
      dz2     :     0.006045  d :     0.027393
      dxz     :     0.006776
      dyz     :     0.004195
      dx2y2   :     0.005461
      dxy     :     0.004916
 21 H s       :     0.845397  s :     0.845397
      pz      :     0.059201  p :     0.150631
      px      :     0.037926
      py      :     0.053504
      dz2     :     0.007561  d :     0.027461
      dxz     :     0.005776
      dyz     :     0.006804
      dx2y2   :     0.004007
      dxy     :     0.003313
 22 H s       :     0.853089  s :     0.853089
      pz      :     0.045162  p :     0.151563
      px      :     0.038634
      py      :     0.067767
      dz2     :     0.003622  d :     0.027639
      dxz     :     0.001922
      dyz     :     0.008404
      dx2y2   :     0.006376
      dxy     :     0.007315
 23 H s       :     0.857449  s :     0.857449
      pz      :     0.062581  p :     0.153242
      px      :     0.033342
      py      :     0.057319
      dz2     :     0.007653  d :     0.027532
      dxz     :     0.005334
      dyz     :     0.007661
      dx2y2   :     0.004016
      dxy     :     0.002869
 24 H s       :     0.853347  s :     0.853347
      pz      :     0.039743  p :     0.144759
      px      :     0.030300
      py      :     0.074716
      dz2     :     0.003350  d :     0.026859
      dxz     :     0.001753
      dyz     :     0.008684
      dx2y2   :     0.007252
      dxy     :     0.005821
 25 H s       :     0.828199  s :     0.828199
      pz      :     0.060811  p :     0.150716
      px      :     0.039733
      py      :     0.050171
      dz2     :     0.008530  d :     0.027726
      dxz     :     0.006495
      dyz     :     0.006800
      dx2y2   :     0.003680
      dxy     :     0.002221
 26 H s       :     0.837224  s :     0.837224
      pz      :     0.039149  p :     0.150236
      px      :     0.039250
      py      :     0.071836
      dz2     :     0.002675  d :     0.027692
      dxz     :     0.000669
      dyz     :     0.009149
      dx2y2   :     0.006916
      dxy     :     0.008282
 27 H s       :     0.834144  s :     0.834144
      pz      :     0.039327  p :     0.153293
      px      :     0.072312
      py      :     0.041653
      dz2     :     0.002693  d :     0.027775
      dxz     :     0.008614
      dyz     :     0.000499
      dx2y2   :     0.007425
      dxy     :     0.008544
 28 H s       :     0.742617  s :     0.742617
      pz      :     0.058717  p :     0.253388
      px      :     0.086672
      py      :     0.107999
      dz2     :     0.006028  d :     0.061717
      dxz     :     0.004375
      dyz     :     0.014896
      dx2y2   :     0.018862
      dxy     :     0.017556
 29 H s       :     0.748223  s :     0.748223
      pz      :     0.112217  p :     0.254099
      px      :     0.096697
      py      :     0.045185
      dz2     :     0.021093  d :     0.061308
      dxz     :     0.015638
      dyz     :     0.009996
      dx2y2   :     0.008426
      dxy     :     0.006154
 30 H s       :     0.826691  s :     0.826691
      pz      :     0.040975  p :     0.148380
      px      :     0.070226
      py      :     0.037179
      dz2     :     0.003209  d :     0.028278
      dxz     :     0.008161
      dyz     :     0.002275
      dx2y2   :     0.007459
      dxy     :     0.007173
 31 H s       :     0.839674  s :     0.839674
      pz      :     0.054668  p :     0.155962
      px      :     0.066393
      py      :     0.034901
      dz2     :     0.005355  d :     0.027425
      dxz     :     0.007219
      dyz     :     0.003247
      dx2y2   :     0.005643
      dxy     :     0.005961
 32 H s       :     0.841967  s :     0.841967
      pz      :     0.036703  p :     0.150993
      px      :     0.041831
      py      :     0.072459
      dz2     :     0.002614  d :     0.026437
      dxz     :     0.001216
      dyz     :     0.006736
      dx2y2   :     0.007935
      dxy     :     0.007935
 33 H s       :     0.848437  s :     0.848437
      pz      :     0.057206  p :     0.158928
      px      :     0.045803
      py      :     0.055919
      dz2     :     0.005924  d :     0.027739
      dxz     :     0.004279
      dyz     :     0.006386
      dx2y2   :     0.005773
      dxy     :     0.005377
 34 H s       :     0.706259  s :     0.706259
      pz      :     0.113409  p :     0.347550
      px      :     0.082163
      py      :     0.151977
      dz2     :     0.023238  d :     0.099464
      dxz     :     0.011010
      dyz     :     0.024848
      dx2y2   :     0.020290
      dxy     :     0.020078
 35 H s       :     0.839461  s :     0.839461
      pz      :     0.040655  p :     0.157886
      px      :     0.043865
      py      :     0.073367
      dz2     :     0.002592  d :     0.028079
      dxz     :     0.001454
      dyz     :     0.007432
      dx2y2   :     0.008286
      dxy     :     0.008315


                      *****************************
                      * MAYER POPULATION ANALYSIS *
                      *****************************

  NA   - Mulliken gross atomic population
  ZA   - Total nuclear charge
  QA   - Mulliken gross atomic charge
  VA   - Mayer's total valence
  BVA  - Mayer's bonded valence
  FA   - Mayer's free valence

  ATOM       NA         ZA         QA         VA         BVA        FA
  0 C      6.2664     6.0000    -0.2664     3.8982     3.8982     0.0000
  1 C      5.9886     6.0000     0.0114     3.8565     3.8565    -0.0000
  2 O      8.3569     8.0000    -0.3569     1.9879     1.9879    -0.0000
  3 C      5.5364     6.0000     0.4636     4.2189     4.2189    -0.0000
  4 O      8.3819     8.0000    -0.3819     2.1267     2.1267     0.0000
  5 C      6.2409     6.0000    -0.2409     3.5726     3.5726    -0.0000
  6 C      5.8464     6.0000     0.1536     3.8038     3.8038    -0.0000
  7 C      6.3103     6.0000    -0.3103     3.8892     3.8892    -0.0000
  8 N      7.1275     7.0000    -0.1275     3.2729     3.2729    -0.0000
  9 C      5.8021     6.0000     0.1979     4.1543     4.1543    -0.0000
 10 S     16.4374    16.0000    -0.4374     1.7574     1.7574    -0.0000
 11 N      7.2033     7.0000    -0.2033     3.2589     3.2589     0.0000
 12 C      5.9427     6.0000     0.0573     3.9617     3.9617     0.0000
 13 C      5.9499     6.0000     0.0501     3.7224     3.7224    -0.0000
 14 C      6.1741     6.0000    -0.1741     3.8726     3.8726    -0.0000
 15 C      6.1321     6.0000    -0.1321     3.8108     3.8108     0.0000
 16 C      6.2793     6.0000    -0.2793     3.7937     3.7937    -0.0000
 17 C      5.6815     6.0000     0.3185     3.8672     3.8672    -0.0000
 18 O      8.3588     8.0000    -0.3588     2.1158     2.1158    -0.0000
 19 C      6.3043     6.0000    -0.3043     3.8254     3.8254    -0.0000
 20 H      0.9040     1.0000     0.0960     0.9817     0.9817     0.0000
 21 H      0.8919     1.0000     0.1081     0.9847     0.9847     0.0000
 22 H      0.9090     1.0000     0.0910     0.9815     0.9815    -0.0000
 23 H      0.9005     1.0000     0.0995     0.9665     0.9665     0.0000
 24 H      0.8792     1.0000     0.1208     0.9769     0.9769    -0.0000
 25 H      0.8621     1.0000     0.1379     0.9830     0.9830     0.0000
 26 H      0.8773     1.0000     0.1227     0.9838     0.9838    -0.0000
 27 H      0.8807     1.0000     0.1193     0.9697     0.9697    -0.0000
 28 H      0.8022     1.0000     0.1978     1.0215     1.0215    -0.0000
 29 H      0.8048     1.0000     0.1952     1.0175     1.0175    -0.0000
 30 H      0.8403     1.0000     0.1597     0.9953     0.9953     0.0000
 31 H      0.8377     1.0000     0.1623     0.9874     0.9874     0.0000
 32 H      0.8376     1.0000     0.1624     0.9768     0.9768    -0.0000
 33 H      0.8686     1.0000     0.1314     0.9912     0.9912    -0.0000
 34 H      0.7584     1.0000     0.2416     1.0102     1.0102     0.0000
 35 H      0.8251     1.0000     0.1749     0.9837     0.9837    -0.0000

  Mayer bond orders larger than 0.100000
B(  0-C ,  1-C ) :   0.9776 B(  0-C , 20-H ) :   0.9759 B(  0-C , 21-H ) :   0.9791 
B(  0-C , 22-H ) :   0.9777 B(  1-C ,  2-O ) :   0.8943 B(  1-C , 23-H ) :   0.9622 
B(  1-C , 24-H ) :   0.9786 B(  2-O ,  3-C ) :   1.1242 B(  3-C ,  4-O ) :   2.0806 
B(  3-C ,  5-C ) :   0.9702 B(  5-C ,  6-C ) :   1.6628 B(  5-C , 12-C ) :   0.9625 
B(  6-C ,  7-C ) :   0.9490 B(  6-C ,  8-N ) :   1.1326 B(  7-C , 25-H ) :   0.9707 
B(  7-C , 26-H ) :   0.9835 B(  7-C , 27-H ) :   0.9632 B(  8-N ,  9-C ) :   1.1850 
B(  8-N , 28-H ) :   0.9505 B(  9-C , 10-S ) :   1.6145 B(  9-C , 11-N ) :   1.2963 
B( 11-N , 12-C ) :   0.9957 B( 11-N , 29-H ) :   0.9515 B( 12-C , 13-C ) :   0.9432 
B( 12-C , 30-H ) :   0.9985 B( 13-C , 14-C ) :   1.3845 B( 13-C , 19-C ) :   1.3468 
B( 14-C , 15-C ) :   1.3956 B( 14-C , 31-H ) :   0.9612 B( 15-C , 16-C ) :   1.3644 
B( 15-C , 32-H ) :   0.9704 B( 16-C , 17-C ) :   1.3298 B( 16-C , 33-H ) :   0.9846 
B( 17-C , 18-O ) :   1.1114 B( 17-C , 19-C ) :   1.3703 B( 18-O , 34-H ) :   0.9796 
B( 19-C , 35-H ) :   0.9578 

-------
TIMINGS
-------

Total SCF time: 0 days 1 hours 53 min 41 sec 

Total time                  ....    6821.190 sec
Sum of individual times     ....    6813.877 sec  ( 99.9%)

Fock matrix formation       ....    6790.868 sec  ( 99.6%)
Diagonalization             ....       4.448 sec  (  0.1%)
Density matrix formation    ....       0.196 sec  (  0.0%)
Population analysis         ....       0.601 sec  (  0.0%)
Initial guess               ....       7.063 sec  (  0.1%)
Orbital Transformation      ....       0.000 sec  (  0.0%)
Orbital Orthonormalization  ....       0.000 sec  (  0.0%)
DIIS solution               ....       4.218 sec  (  0.1%)
SOSCF solution              ....       5.346 sec  (  0.1%)

------------------------------------------------------------------------------
                                ORCA  MP2 
------------------------------------------------------------------------------

Freezing NCore=48 chemical core electrons

-------------
RI-MP2 ENERGY
-------------
Dimension of the basis                    ...  828
Memory devoted to MP2                     ...  256 MB   
Data format for buffers                   ... DOUBLE
Compression type for matrix containers    ... UNCOMPRESSED
Overall scaling of the MP2 energy         ...   1.000e+00
Calculating two index integrals           ... done (    0.032 sec)
Cholesky decomposition of V**-1           ... done (    1.732 sec)

-----------------
RI-TRANSFORMATION (AUX index driven)
-----------------

Dimension of the orbital-basis         ... 828
Dimension of the aux-basis             ... 2141
Transformation of internal/external MOs...   24-  76 to   77- 827
Number Format for Storage              ... Double (8 Byte)
Integral mode                          ... Direct

First Phase: integral generation and transformation of MO indices
  Aux angular momentum 0               ... done (    8.319 sec)
  Aux angular momentum 1               ... done (   14.505 sec)
  Aux angular momentum 2               ... done (   18.729 sec)
  Aux angular momentum 3               ... done (   17.278 sec)
  Aux angular momentum 4               ... done (    5.802 sec)
Closing buffer VIA ( 0.63 GB; CompressionRatio= 1.00)
  Phase 1 completed in    64.827 sec
Second Phase: sorting and transformation of aux index

IA-Transformation
Memory available                       ... 167 MB 
Max. # MO pairs treated in a batch     ... 12    
# of internal orbitals                 ... 53
# batches for internal orbitals        ... 5
Closing buffer IAV ( 0.63 GB; CompressionRatio= 1.00)
(ia|v) transformation done in    89.819 sec

  Phase 2 completed in    89.823 sec
RI-Integral transformation completed in   154.656 sec
Opening buffers                              ... done

Starting loop over batches of integrals:

Operator 0  - window                       ... ( 24- 76)x( 77-827)
Operator 0  - Memory available             ...   256 MB
Operator 0  - Memory needed per MO         ...  12.3 MB
Operator 0  - Number of orbitals per batch ... 13
Operator 0  - Number of batches            ... 5

OPERATOR  0   PASS   0:  MOs    24 ...   36
  Reading integrals       ... ok
  Internal MO  26
  Internal MO  29
  Internal MO  32
  Internal MO  35
OPERATOR  0   PASS   1:  MOs    37 ...   49
  Reading integrals       ... ok
  Internal MO  38
  Internal MO  41
  Internal MO  44
  Internal MO  47
OPERATOR  0   PASS   2:  MOs    50 ...   62
  Reading integrals       ... ok
  Internal MO  50
  Internal MO  53
  Internal MO  56
  Internal MO  59
  Internal MO  62
OPERATOR  0   PASS   3:  MOs    63 ...   75
  Reading integrals       ... ok
  Internal MO  65
  Internal MO  68
  Internal MO  71
  Internal MO  74
OPERATOR  0   PASS   4:  MOs    76 ...   76
  Reading integrals       ... ok
Time spent in pair loops =   451.281 sec
Deleting buffer (Ka|jb)[aa] ...done

-----------------------------------------------
 RI-MP2 CORRELATION ENERGY:     -3.535250907 Eh
-----------------------------------------------


-------
TIMINGS
-------

Total time                :  607.947 sec
Integral trafo            :  154.678 sec ( 25.4%)
I/O of integrals          :    8.610 sec (  1.4%)
K(i,j) Operators          :  379.244 sec ( 62.4%)
T(i,j) pair energies      :    4.085 sec (  0.7%)
V-calculation             :    0.032 sec (  0.0%)
V**(-1/2)                 :    1.732 sec (  0.3%)
Gamma(ia|P)               :    0.000 sec (  0.0%)
Gamma-Trafo               :    0.000 sec (  0.0%)
D(virtual)                :    0.000 sec (  0.0%)
D(internal)               :    0.000 sec (  0.0%)
W(virtual)                :    0.000 sec (  0.0%)
W(internal)               :    0.000 sec (  0.0%)
L(virtual)                :    0.000 sec (  0.0%)
L(internal)               :    0.000 sec (  0.0%)
G(D)                      :    0.000 sec (  0.0%)
G(Z)                      :    0.000 sec (  0.0%)
Z-Vector Solution         :    0.000 sec (  0.0%)
3-Index Derivative        :    0.000 sec (  0.0%)
2-Index Derivative        :    0.000 sec (  0.0%)
Separable Gradient        :    0.000 sec (  0.0%)


---------------------------------------
MP2 TOTAL ENERGY:    -1274.329212718 Eh
---------------------------------------

-------------------------   --------------------
FINAL SINGLE POINT ENERGY     -1274.329212718145
-------------------------   --------------------


                            ***************************************
                            *     ORCA property calculations      *
                            ***************************************


  WARNING: The energy has been calculated at the MP2 level but the densities
           used in the property calculations are still SCF densities
           MP2 response densities have not been calculated 
           use %mp2 Density relaxed end
           or  %mp2 Density unrelaxed end

                                    ---------------------
                                    Active property flags
                                    ---------------------
   (+) Dipole Moment


------------------------------------------------------------------------------
                       ORCA ELECTRIC PROPERTIES CALCULATION
------------------------------------------------------------------------------

Dipole Moment Calculation                       ... on
Quadrupole Moment Calculation                   ... off
Polarizability Calculation                      ... off
GBWName                                         ... CONFS/Conf910.orca.gbw
Electron density file                           ... CONFS/Conf910.orca.scfp
The origin for moment calculation is the CENTER OF MASS  = (32.909551, 31.342896 35.275952)

-------------
DIPOLE MOMENT
-------------
                                X             Y             Z
Electronic contribution:     12.02589       6.89894       7.25595
Nuclear contribution   :    -13.43359      -7.95364      -7.57962
                        -----------------------------------------
Total Dipole Moment    :     -1.40771      -1.05470      -0.32367
                        -----------------------------------------
Magnitude (a.u.)       :      1.78851
Magnitude (Debye)      :      4.54604



--------------------
Rotational spectrum 
--------------------
 
Rotational constants in cm-1:     0.011151     0.009398     0.006814 
Rotational constants in MHz :   334.309156   281.740494   204.269008 

 Dipole components along the rotational axes: 
x,y,z [a.u.] :    -1.393056     0.624577     0.931706 
x,y,z [Debye]:    -3.540868     1.587550     2.368209 

 

Timings for individual modules:

Sum of individual times         ...     7432.383 sec (= 123.873 min)
GTO integral calculation        ...        1.846 sec (=   0.031 min)   0.0 %
SCF iterations                  ...     6821.488 sec (= 113.691 min)  91.8 %
MP2 module                      ...      609.049 sec (=  10.151 min)   8.2 %
                             ****ORCA TERMINATED NORMALLY****
TOTAL RUN TIME: 0 days 2 hours 3 minutes 53 seconds 476 msec
