
                                 *****************
                                 * O   R   C   A *
                                 *****************

           --- An Ab Initio, DFT and Semiempirical electronic structure package ---

                  #######################################################
                  #                        -***-                        #
                  #          Department of theory and spectroscopy      #
                  #               Directorship: Frank Neese             #
                  #        Max Planck Institute fuer Kohlenforschung    #
                  #                Kaiser Wilhelm Platz 1               #
                  #                 D-45470 Muelheim/Ruhr               #
                  #                      Germany                        #
                  #                                                     #
                  #                  All rights reserved                #
                  #                        -***-                        #
                  #######################################################


                         Program Version 4.2.0 -  RELEASE  -


 With contributions from (in alphabetic order):
   Daniel Aravena         : Magnetic Suceptibility
   Michael Atanasov       : Ab Initio Ligand Field Theory (pilot matlab implementation)
   Alexander A. Auer      : GIAO ZORA, VPT2
   Ute Becker             : Parallelization
   Giovanni Bistoni       : ED, misc. LED, open-shell LED, HFLED
   Martin Brehm           : Molecular dynamics
   Dmytro Bykov           : SCF Hessian
   Vijay G. Chilkuri      : MRCI spin determinant printing, contributions to CSF-ICE
   Dipayan Datta          : RHF DLPNO-CCSD density
   Achintya Kumar Dutta   : EOM-CC, STEOM-CC
   Dmitry Ganyushin       : Spin-Orbit,Spin-Spin,Magnetic field MRCI
   Miquel Garcia          : C-PCM Hessian, Gaussian charge scheme
   Yang Guo               : DLPNO-NEVPT2, CIM, IAO-localization
   Andreas Hansen         : Spin unrestricted coupled pair/coupled cluster methods
   Benjamin Helmich-Paris : CASSCF linear response (MC-RPA)
   Lee Huntington         : MR-EOM, pCC
   Robert Izsak           : Overlap fitted RIJCOSX, COSX-SCS-MP3, EOM
   Christian Kollmar      : KDIIS, OOCD, Brueckner-CCSD(T), CCSD density
   Simone Kossmann        : Meta GGA functionals, TD-DFT gradient, OOMP2, MP2 Hessian
   Martin Krupicka        : AUTO-CI
   Lucas Lang             : DCDCAS
   Dagmar Lenk            : GEPOL surface, SMD
   Dimitrios Liakos       : Extrapolation schemes; Compound Job, initial MDCI parallelization
   Dimitrios Manganas     : Further ROCIS development; embedding schemes
   Dimitrios Pantazis     : SARC Basis sets
   Taras Petrenko         : DFT Hessian,TD-DFT gradient, ASA, ECA, R-Raman, ABS, FL, XAS/XES, NRVS
   Peter Pinski           : DLPNO-MP2, DLPNO-MP2 Gradient
   Christoph Reimann      : Effective Core Potentials
   Marius Retegan         : Local ZFS, SOC
   Christoph Riplinger    : Optimizer, TS searches, QM/MM, DLPNO-CCSD(T), (RO)-DLPNO pert. Triples
   Tobias Risthaus        : Range-separated hybrids, TD-DFT gradient, RPA, STAB
   Michael Roemelt        : Original ROCIS implementation
   Masaaki Saitow         : Open-shell DLPNO-CCSD energy and density
   Barbara Sandhoefer     : DKH picture change effects
   Avijit Sen             : IP-ROCIS
   Kantharuban Sivalingam : CASSCF convergence, NEVPT2, FIC-MRCI
   Bernardo de Souza      : ESD, SOC TD-DFT
   Georgi Stoychev        : AutoAux, RI-MP2 NMR
   Willem Van den Heuvel  : Paramagnetic NMR
   Boris Wezisla          : Elementary symmetry handling
   Frank Wennmohs         : Technical directorship


 We gratefully acknowledge several colleagues who have allowed us to
 interface, adapt or use parts of their codes:
   Stefan Grimme, W. Hujo, H. Kruse,             : VdW corrections, initial TS optimization,
                  C. Bannwarth                     DFT functionals, gCP, sTDA/sTD-DF
   Ed Valeev, F. Pavosevic, A. Kumar             : LibInt (2-el integral package), F12 methods
   Garnet Chan, S. Sharma, J. Yang, R. Olivares  : DMRG
   Ulf Ekstrom                                   : XCFun DFT Library
   Mihaly Kallay                                 : mrcc  (arbitrary order and MRCC methods)
   Andreas Klamt, Michael Diedenhofen            : otool_cosmo (COSMO solvation model)
   Jiri Pittner, Ondrej Demel                    : Mk-CCSD
   Frank Weinhold                                : gennbo (NPA and NBO analysis)
   Christopher J. Cramer and Donald G. Truhlar   : smd solvation model
   Lars Goerigk                                  : TD-DFT with DH, B97 family of functionals
   V. Asgeirsson, H. Jonsson                     : NEB implementation
   FAccTs GmbH                                   : IRC, NEB, NEB-TS, Multilevel, MM, QM/MM, CI optimization
   S Lehtola, MJT Oliveira, MAL Marques          : LibXC Library


 Your calculation uses the libint2 library for the computation of 2-el integrals
 For citations please refer to: http://libint.valeyev.net

 Your ORCA version has been built with support for libXC version: 4.2.3
 For citations please refer to: https://tddft.org/programs/libxc/

 This ORCA versions uses:
   CBLAS   interface :  Fast vector & matrix operations
   LAPACKE interface :  Fast linear algebra routines
   SCALAPACK package :  Parallel linear algebra routines


----- Orbital basis set information -----
Your calculation utilizes the basis: cc-pVTZ 
       H, B-Ne : Obtained from the ccRepo (grant-hill.group.shef.ac.uk/ccrepo) Feb. 2017
                 T. H. Dunning, Jr., J. Chem. Phys. 90, 1007 (1989)
            He : Obtained from the ccRepo (grant-hill.group.shef.ac.uk/ccrepo) Feb. 2017
                 D. E. Woon, T. H. Dunning, Jr., J. Chem. Phys. 100, 2975 (1994)
  Li-Be, Na-Mg : Obtained from the ccRepo (grant-hill.group.shef.ac.uk/ccrepo) Feb. 2017
                 B. P. Prascher, D. E. Woon, K. A. Peterson, T. H. Dunning, Jr., A. K. Wilson, Theor. Chem. Acc. 128, 69 (2011)
         Al-Ar : Obtained from the ccRepo (grant-hill.group.shef.ac.uk/ccrepo) Feb. 2017
                 D. E. Woon, T. H. Dunning, Jr., J. Chem. Phys. 98, 1358 (1993)
            Ca : Obtained from the Peterson Research Group Website (tyr0.chem.wsu.edu/~kipeters) Feb. 2017
                 J. Koput, K. A. Peterson, J. Phys. Chem. 106, 9595 (2002)
         Sc-Zn : Obtained from the ccRepo (grant-hill.group.shef.ac.uk/ccrepo) Feb. 2017
                 N. B. Balabanov, K. A. Peterson, J. Chem. Phys. 123, 064107 (2005)
                 N. B. Balabanov, K. A. Peterson, J. Chem. Phys. 125, 074110 (2006)
         Ga-Kr : Obtained from the ccRepo (grant-hill.group.shef.ac.uk/ccrepo) Feb. 2017
                 A. K. Wilson, D. E. Woon, K. A. Peterson, T. H. Dunning, Jr., J. Chem. Phys. 110, 7667 (1999)
             Y : Obtained from the ccRepo (grant-hill.group.shef.ac.uk/ccrepo) Feb. 2017
                 K. A. Peterson, D. Figgen, M. Dolg, H. Stoll, J. Chem. Phys. 126, 124101 (2007)
        Ag, Au : Obtained from the Peterson Research Group Website (tyr0.chem.wsu.edu/~kipeters) Feb. 2017
                 K. A. Peterson, C. Puzzarini, Theor. Chem. Acc. 114, 283 (2005)

----- AuxC basis set information -----
Your calculation utilizes the auxiliary basis: cc-pVTZ/C 
  Obtained from the EMSL Basis Set Exchange (bse.pnl.gov) Feb. 2017
  H-He, B-F, Al-Ar, Ga-Kr : F. Weigend, A. Kohn, C. Hattig, J. Chem. Phys. 116, 3175 (2002)
             Li-Be, Na-Mg : C. Haettig, Phys. Chem. Chem. Phys. 7, 59 (2005)
                       Ne : C. Haettig, Phys. Chem. Chem. Phys. 7, 59 (2005)
                            F. Weigend, A. Kohn, C. Hattig, J. Chem. Phys. 116, 3175 (2002)
                    Sc-Zn : J. G. Hill, J. A. Platts, J. Chem. Phys. 128, 044104 (2008)

================================================================================
                                        WARNINGS
                       Please study these warnings very carefully!
================================================================================


WARNING: No MP2 level density has been requested!
         To caclulate MP2 level properties use
         %mp2 Density relaxed end
         or
         %mp2 Density unrelaxed end

WARNING: Post HF methods need fully converged wavefunctions
  ===> : Setting SCFConvForced true
         You can overwrite this default with %scf ConvForced false 


INFO   : the flag for use of LIBINT has been found!

================================================================================
                                       INPUT FILE
================================================================================
NAME = CONFS/Conf556.orca
|  1> ! ri-mp2 cc-pvtz cc-pvtz/c TightSCF  NoKeepInts
|  2> 
|  3> %scf
|  4>   MaxCore 4096
|  5> end
|  6> *xyz  0  1
|  7>     C       15.1232499   14.0959098   15.3511790
|  8>     C       16.1720924   13.8940433   16.4657252
|  9>     O       17.0019687   15.0471958   16.7610990
| 10>     C       16.6621346   16.3724408   16.6375647
| 11>     O       15.7429091   16.7861757   15.9544372
| 12>     C       17.4917997   17.2480418   17.5390151
| 13>     C       17.3803397   18.6015049   17.5461966
| 14>     C       16.4574090   19.4529589   16.7002978
| 15>     N       18.2009994   19.3692300   18.3780983
| 16>     C       19.2195225   18.8753836   19.1481702
| 17>     S       20.2061895   19.8643824   20.0338403
| 18>     N       19.3832171   17.5140408   19.1456810
| 19>     C       18.4807945   16.5506726   18.4893980
| 20>     C       17.7640580   15.7162079   19.5475084
| 21>     C       18.0599660   14.3481714   19.6975186
| 22>     C       17.3990889   13.5758130   20.6675266
| 23>     C       16.4366643   14.1765929   21.4968464
| 24>     C       16.1434975   15.5398114   21.3538949
| 25>     O       15.2162607   16.1231037   22.1545116
| 26>     C       16.8024957   16.3056781   20.3873519
| 27>     H       14.3037738   14.7429066   15.6880662
| 28>     H       14.6840050   13.1326993   15.0654786
| 29>     H       15.5800352   14.5380612   14.4568405
| 30>     H       15.6401519   13.6034005   17.3812106
| 31>     H       16.8258311   13.0555079   16.1940144
| 32>     H       15.4082211   19.2162780   16.9191566
| 33>     H       16.6208049   19.2568123   15.6329940
| 34>     H       16.5953397   20.5282822   16.8627325
| 35>     H       18.0958241   20.3710926   18.3918089
| 36>     H       20.1181057   17.1767218   19.7538707
| 37>     H       19.1071186   15.8805857   17.8839305
| 38>     H       18.8012581   13.8808017   19.0549371
| 39>     H       17.6340980   12.5183666   20.7754643
| 40>     H       15.9242387   13.5848406   22.2482285
| 41>     H       14.8973398   15.4477796   22.7717410
| 42>     H       16.5661972   17.3605046   20.2976648
| 43> *
| 44> 
| 45>                          ****END OF INPUT****
================================================================================

                       ****************************
                       * Single Point Calculation *
                       ****************************

---------------------------------
CARTESIAN COORDINATES (ANGSTROEM)
---------------------------------
  C     15.123250   14.095910   15.351179
  C     16.172092   13.894043   16.465725
  O     17.001969   15.047196   16.761099
  C     16.662135   16.372441   16.637565
  O     15.742909   16.786176   15.954437
  C     17.491800   17.248042   17.539015
  C     17.380340   18.601505   17.546197
  C     16.457409   19.452959   16.700298
  N     18.200999   19.369230   18.378098
  C     19.219522   18.875384   19.148170
  S     20.206189   19.864382   20.033840
  N     19.383217   17.514041   19.145681
  C     18.480794   16.550673   18.489398
  C     17.764058   15.716208   19.547508
  C     18.059966   14.348171   19.697519
  C     17.399089   13.575813   20.667527
  C     16.436664   14.176593   21.496846
  C     16.143497   15.539811   21.353895
  O     15.216261   16.123104   22.154512
  C     16.802496   16.305678   20.387352
  H     14.303774   14.742907   15.688066
  H     14.684005   13.132699   15.065479
  H     15.580035   14.538061   14.456841
  H     15.640152   13.603400   17.381211
  H     16.825831   13.055508   16.194014
  H     15.408221   19.216278   16.919157
  H     16.620805   19.256812   15.632994
  H     16.595340   20.528282   16.862732
  H     18.095824   20.371093   18.391809
  H     20.118106   17.176722   19.753871
  H     19.107119   15.880586   17.883930
  H     18.801258   13.880802   19.054937
  H     17.634098   12.518367   20.775464
  H     15.924239   13.584841   22.248228
  H     14.897340   15.447780   22.771741
  H     16.566197   17.360505   20.297665

----------------------------
CARTESIAN COORDINATES (A.U.)
----------------------------
  NO LB      ZA    FRAG     MASS         X           Y           Z
   0 C     6.0000    0    12.011   28.578801   26.637409   29.009524
   1 C     6.0000    0    12.011   30.560826   26.255937   31.115711
   2 O     8.0000    0    15.999   32.129065   28.435079   31.673887
   3 C     6.0000    0    12.011   31.486871   30.939429   31.440441
   4 O     8.0000    0    15.999   29.749787   31.721275   30.149517
   5 C     6.0000    0    12.011   33.054711   32.594075   33.143935
   6 C     6.0000    0    12.011   32.844082   35.151750   33.157506
   7 C     6.0000    0    12.011   31.099996   36.760765   31.558989
   8 N     7.0000    0    14.007   34.394904   36.602540   34.729573
   9 C     6.0000    0    12.011   36.319634   35.669306   36.184798
  10 S    16.0000    0    32.060   38.184164   37.538243   37.858472
  11 N     7.0000    0    14.007   36.628972   33.096741   36.180094
  12 C     6.0000    0    12.011   34.923640   31.276239   34.939899
  13 C     6.0000    0    12.011   33.569205   29.699329   36.939437
  14 C     6.0000    0    12.011   34.128390   27.114114   37.222916
  15 C     6.0000    0    12.011   32.879513   25.654569   39.055965
  16 C     6.0000    0    12.011   31.060794   26.789878   40.623152
  17 C     6.0000    0    12.011   30.506789   29.365988   40.353013
  18 O     8.0000    0    15.999   28.754566   30.468250   41.865960
  19 C     6.0000    0    12.011   31.752115   30.813266   38.526512
  20 H     1.0000    0     1.008   27.030215   27.860056   29.646149
  21 H     1.0000    0     1.008   27.748748   24.817205   28.469629
  22 H     1.0000    0     1.008   29.442000   27.472954   27.319469
  23 H     1.0000    0     1.008   29.555604   25.706701   32.845728
  24 H     1.0000    0     1.008   31.796213   24.671334   30.602252
  25 H     1.0000    0     1.008   29.117318   36.313503   31.972572
  26 H     1.0000    0     1.008   31.408769   36.390101   29.542077
  27 H     1.0000    0     1.008   31.360647   38.792831   31.865946
  28 H     1.0000    0     1.008   34.196152   38.495786   34.755482
  29 H     1.0000    0     1.008   38.017710   32.459300   37.329406
  30 H     1.0000    0     1.008   36.107221   30.009958   33.795731
  31 H     1.0000    0     1.008   35.529229   26.230914   36.008613
  32 H     1.0000    0     1.008   33.323616   23.656285   39.259938
  33 H     1.0000    0     1.008   30.092450   25.671628   42.043059
  34 H     1.0000    0     1.008   28.151892   29.192073   43.032354
  35 H     1.0000    0     1.008   31.305576   32.806599   38.357028

--------------------------------
INTERNAL COORDINATES (ANGSTROEM)
--------------------------------
 C      0   0   0     0.000000000000     0.00000000     0.00000000
 C      1   0   0     1.543707843331     0.00000000     0.00000000
 O      2   1   0     1.451103388213   115.56959760     0.00000000
 C      3   2   1     1.373689283945   127.36305594    29.97056327
 O      4   3   2     1.217709024597   124.40096443   340.65358253
 C      4   3   2     1.505866565476   111.76624964   155.93271659
 C      6   4   3     1.358063794011   122.50935043   176.85622253
 C      7   6   4     1.514040874930   127.41200454   359.92235472
 N      7   6   4     1.398193338146   120.14551315   181.71683944
 C      9   7   6     1.369045033297   124.97854017     5.33456303
 S     10   9   7     1.654098522254   121.95640311   176.08832651
 N     10   9   7     1.371151464025   116.48348742   356.24160609
 C     12  10   9     1.474161529091   125.20847715   353.92686273
 C     13  12  10     1.526315879681   109.64049547   247.72434484
 C     14  13  12     1.407689052987   120.42982038   249.17305527
 C     15  14  13     1.405066389684   120.59109814   180.20844032
 C     16  15  14     1.405335877860   119.63808578   359.84300582
 C     17  16  15     1.401694183022   119.92167947   359.89428052
 O     18  17  16     1.356829057336   120.05605180   180.10124021
 C     18  17  16     1.398225947628   120.30676609     0.12978475
 H      1   2   3     1.097104791351   111.27917137   288.06185639
 H      1   2   3     1.096510496095   110.20727254   169.04399295
 H      1   2   3     1.097265703191   110.99699260    49.49107301
 H      2   1   3     1.097974248489   107.90516754   121.64890067
 H      2   1   3     1.097425470712   109.02004951   237.55038417
 H      8   7   6     1.097593855790   110.48885145    62.10922420
 H      8   7   6     1.097410183260   110.61565038   303.41540391
 H      8   7   6     1.096234513820   113.08894445   182.77663925
 H      9   7   6     1.007461410458   119.52838343   181.41096207
 H     12  10   9     1.011800411819   114.62138091   182.45470772
 H     13  12  10     1.099040138188   107.14796729   130.24334715
 H     15  14  13     1.086673547181   119.89150448   359.83362046
 H     16  15  14     1.088610450546   120.05758436   179.94750492
 H     17  16  15     1.085046469185   119.92916507   180.06758633
 H     19  18  17     0.968888699863   107.52994677     1.95778402
 H     20  18  17     1.084684148548   119.15319825   180.43169941

---------------------------
INTERNAL COORDINATES (A.U.)
---------------------------
 C      0   0   0     0.000000000000     0.00000000     0.00000000
 C      1   0   0     2.917185054683     0.00000000     0.00000000
 O      2   1   0     2.742187995729   115.56959760     0.00000000
 C      3   2   1     2.595896539758   127.36305594    29.97056327
 O      4   3   2     2.301136567292   124.40096443   340.65358253
 C      4   3   2     2.845675402979   111.76624964   155.93271659
 C      6   4   3     2.566368643075   122.50935043   176.85622253
 C      7   6   4     2.861122609181   127.41200454   359.92235472
 N      7   6   4     2.642202491370   120.14551315   181.71683944
 C      9   7   6     2.587120177937   124.97854017     5.33456303
 S     10   9   7     3.125793205585   121.95640311   176.08832651
 N     10   9   7     2.591100755132   116.48348742   356.24160609
 C     12  10   9     2.785761567144   125.20847715   353.92686273
 C     13  12  10     2.884319006452   109.64049547   247.72434484
 C     14  13  12     2.660146791865   120.42982038   249.17305527
 C     15  14  13     2.655190676480   120.59109814   180.20844032
 C     16  15  14     2.655699935330   119.63808578   359.84300582
 C     17  16  15     2.648818129421   119.92167947   359.89428052
 O     18  17  16     2.564035328912   120.05605180   180.10124021
 C     18  17  16     2.642264114360   120.30676609     0.12978475
 H      1   2   3     2.073227595866   111.27917137   288.06185639
 H      1   2   3     2.072104540590   110.20727254   169.04399295
 H      1   2   3     2.073531675176   110.99699260    49.49107301
 H      2   1   3     2.074870631742   107.90516754   121.64890067
 H      2   1   3     2.073833592035   109.02004951   237.55038417
 H      8   7   6     2.074151793718   110.48885145    62.10922420
 H      8   7   6     2.073804702938   110.61565038   303.41540391
 H      8   7   6     2.071583009672   113.08894445   182.77663925
 H      9   7   6     1.903826156259   119.52838343   181.41096207
 H     12  10   9     1.912025680527   114.62138091   182.45470772
 H     13  12  10     2.076884871363   107.14796729   130.24334715
 H     15  14  13     2.053515401149   119.89150448   359.83362046
 H     16  15  14     2.057175618056   120.05758436   179.94750492
 H     17  16  15     2.050440669338   119.92916507   180.06758633
 H     19  18  17     1.830934296992   107.52994677     1.95778402
 H     20  18  17     2.049755982561   119.15319825   180.43169941

---------------------
BASIS SET INFORMATION
---------------------
There are 5 groups of distinct atoms

 Group   1 Type C   : 18s5p2d1f contracted to 4s3p2d1f pattern {8811/311/11/1}
 Group   2 Type O   : 18s5p2d1f contracted to 4s3p2d1f pattern {8811/311/11/1}
 Group   3 Type N   : 18s5p2d1f contracted to 4s3p2d1f pattern {8811/311/11/1}
 Group   4 Type S   : 41s16p2d1f contracted to 5s4p2d1f pattern {13131311/7711/11/1}
 Group   5 Type H   : 5s2p1d contracted to 3s2p1d pattern {311/11/1}

Atom   0C    basis set group =>   1
Atom   1C    basis set group =>   1
Atom   2O    basis set group =>   2
Atom   3C    basis set group =>   1
Atom   4O    basis set group =>   2
Atom   5C    basis set group =>   1
Atom   6C    basis set group =>   1
Atom   7C    basis set group =>   1
Atom   8N    basis set group =>   3
Atom   9C    basis set group =>   1
Atom  10S    basis set group =>   4
Atom  11N    basis set group =>   3
Atom  12C    basis set group =>   1
Atom  13C    basis set group =>   1
Atom  14C    basis set group =>   1
Atom  15C    basis set group =>   1
Atom  16C    basis set group =>   1
Atom  17C    basis set group =>   1
Atom  18O    basis set group =>   2
Atom  19C    basis set group =>   1
Atom  20H    basis set group =>   5
Atom  21H    basis set group =>   5
Atom  22H    basis set group =>   5
Atom  23H    basis set group =>   5
Atom  24H    basis set group =>   5
Atom  25H    basis set group =>   5
Atom  26H    basis set group =>   5
Atom  27H    basis set group =>   5
Atom  28H    basis set group =>   5
Atom  29H    basis set group =>   5
Atom  30H    basis set group =>   5
Atom  31H    basis set group =>   5
Atom  32H    basis set group =>   5
Atom  33H    basis set group =>   5
Atom  34H    basis set group =>   5
Atom  35H    basis set group =>   5
---------------------------------
AUXILIARY/C BASIS SET INFORMATION
---------------------------------
There are 5 groups of distinct atoms

 Group   1 Type C   : 8s6p5d3f1g contracted to 8s6p5d3f1g pattern {11111111/111111/11111/111/1}
 Group   2 Type O   : 8s6p5d3f1g contracted to 8s6p5d3f1g pattern {11111111/111111/11111/111/1}
 Group   3 Type N   : 8s6p5d3f1g contracted to 8s6p5d3f1g pattern {11111111/111111/11111/111/1}
 Group   4 Type S   : 10s8p7d5f2g contracted to 10s8p7d5f2g pattern {1111111111/11111111/1111111/11111/11}
 Group   5 Type H   : 4s3p2d1f contracted to 4s3p2d1f pattern {1111/111/11/1}

Atom   0C    basis set group =>   1
Atom   1C    basis set group =>   1
Atom   2O    basis set group =>   2
Atom   3C    basis set group =>   1
Atom   4O    basis set group =>   2
Atom   5C    basis set group =>   1
Atom   6C    basis set group =>   1
Atom   7C    basis set group =>   1
Atom   8N    basis set group =>   3
Atom   9C    basis set group =>   1
Atom  10S    basis set group =>   4
Atom  11N    basis set group =>   3
Atom  12C    basis set group =>   1
Atom  13C    basis set group =>   1
Atom  14C    basis set group =>   1
Atom  15C    basis set group =>   1
Atom  16C    basis set group =>   1
Atom  17C    basis set group =>   1
Atom  18O    basis set group =>   2
Atom  19C    basis set group =>   1
Atom  20H    basis set group =>   5
Atom  21H    basis set group =>   5
Atom  22H    basis set group =>   5
Atom  23H    basis set group =>   5
Atom  24H    basis set group =>   5
Atom  25H    basis set group =>   5
Atom  26H    basis set group =>   5
Atom  27H    basis set group =>   5
Atom  28H    basis set group =>   5
Atom  29H    basis set group =>   5
Atom  30H    basis set group =>   5
Atom  31H    basis set group =>   5
Atom  32H    basis set group =>   5
Atom  33H    basis set group =>   5
Atom  34H    basis set group =>   5
Atom  35H    basis set group =>   5
------------------------------------------------------------------------------
                           ORCA GTO INTEGRAL CALCULATION
------------------------------------------------------------------------------

                         BASIS SET STATISTICS AND STARTUP INFO

 # of primitive gaussian shells          ...  682
 # of primitive gaussian functions       ... 1312
 # of contracted shells                  ...  298
 # of contracted basis functions         ...  828
 Highest angular momentum                ...    3
 Maximum contraction depth               ...   13
 Integral package used                   ... LIBINT
 Integral threshhold            Thresh   ...  2.500e-11
 Primitive cut-off              TCut     ...  2.500e-12


------------------------------ INTEGRAL EVALUATION ----------------------------


 * One electron integrals 
 Pre-screening matrix                    ... done
 Shell pair data                         ... done (   0.013 sec)

-------------------------------------------------------------------------------
                                 ORCA SCF
-------------------------------------------------------------------------------

------------
SCF SETTINGS
------------
Hamiltonian:
 Ab initio Hamiltonian  Method          .... Hartree-Fock(GTOs)


General Settings:
 Integral files         IntName         .... CONFS/Conf556.orca
 Hartree-Fock type      HFTyp           .... RHF
 Total Charge           Charge          ....    0
 Multiplicity           Mult            ....    1
 Number of Electrons    NEL             ....  154
 Basis Dimension        Dim             ....  828
 Nuclear Repulsion      ENuc            ....   1698.8217010184 Eh

Convergence Acceleration:
 DIIS                   CNVDIIS         .... on
   Start iteration      DIISMaxIt       ....    12
   Startup error        DIISStart       ....  0.200000
   # of expansion vecs  DIISMaxEq       ....     5
   Bias factor          DIISBfac        ....   1.050
   Max. coefficient     DIISMaxC        ....  10.000
 Newton-Raphson         CNVNR           .... off
 SOSCF                  CNVSOSCF        .... on
   Start iteration      SOSCFMaxIt      ....   150
   Startup grad/error   SOSCFStart      ....  0.003300
 Level Shifting         CNVShift        .... on
   Level shift para.    LevelShift      ....    0.2500
   Turn off err/grad.   ShiftErr        ....    0.0010
 Zerner damping         CNVZerner       .... off
 Static damping         CNVDamp         .... on
   Fraction old density DampFac         ....    0.7000
   Max. Damping (<1)    DampMax         ....    0.9800
   Min. Damping (>=0)   DampMin         ....    0.0000
   Turn off err/grad.   DampErr         ....    0.1000
 Fernandez-Rico         CNVRico         .... off

SCF Procedure:
 Maximum # iterations   MaxIter         ....   125
 SCF integral mode      SCFMode         .... Direct
   Integral package                     .... LIBINT
 Reset frequency        DirectResetFreq ....    20
 Integral Threshold     Thresh          ....  2.500e-11 Eh
 Primitive CutOff       TCut            ....  2.500e-12 Eh

Convergence Tolerance:
 Convergence Check Mode ConvCheckMode   .... Total+1el-Energy
 Convergence forced     ConvForced      .... 1
 Energy Change          TolE            ....  1.000e-08 Eh
 1-El. energy change                    ....  1.000e-05 Eh
 Orbital Gradient       TolG            ....  1.000e-05
 Orbital Rotation angle TolX            ....  1.000e-05
 DIIS Error             TolErr          ....  5.000e-07


Diagonalization of the overlap matrix:
Smallest eigenvalue                        ... 3.474e-05
Time for diagonalization                   ...    0.280 sec
Threshold for overlap eigenvalues          ... 1.000e-08
Number of eigenvalues below threshold      ... 0
Time for construction of square roots      ...    0.409 sec
Total time needed                          ...    0.690 sec

-------------------
DFT GRID GENERATION
-------------------

General Integration Accuracy     IntAcc      ...  4.340
Radial Grid Type                 RadialGrid  ... Gauss-Chebyshev
Angular Grid (max. acc.)         AngularGrid ... Lebedev-110
Angular grid pruning method      GridPruning ... 3 (G Style)
Weight generation scheme         WeightScheme... Becke
Basis function cutoff            BFCut       ...    1.0000e-11
Integration weight cutoff        WCut        ...    1.0000e-14
Grids for H and He will be reduced by one unit

# of grid points (after initial pruning)     ...  46246 (   0.0 sec)
# of grid points (after weights+screening)   ...  41325 (   0.3 sec)
nearest neighbour list constructed           ...    0.0 sec
Grid point re-assignment to atoms done       ...    0.0 sec
Grid point division into batches done        ...    0.0 sec
Reduced shell lists constructed in    0.8 sec

Total number of grid points                  ...    41325
Total number of batches                      ...      665
Average number of points per batch           ...       62
Average number of grid points per atom       ...     1148
Average number of shells per batch           ...   146.51 (49.16%)
Average number of basis functions per batch  ...   372.13 (44.94%)
Average number of large shells per batch     ...    93.54 (63.85%)
Average number of large basis fcns per batch ...   241.07 (64.78%)
Maximum spatial batch extension              ...  19.22, 20.95, 20.26 au
Average spatial batch extension              ...   3.66,  3.37,  3.48 au

Time for grid setup =    1.102 sec

------------------------------
INITIAL GUESS: MODEL POTENTIAL
------------------------------
Loading Hartree-Fock densities                     ... done
Calculating cut-offs                               ... done
Setting up the integral package                    ... done
Initializing the effective Hamiltonian             ... done
Starting the Coulomb interaction                   ... done (   2.8 sec)
Reading the grid                                   ... done
Mapping shells                                     ... done
Starting the XC term evaluation                    ... done (   1.0 sec)
Transforming the Hamiltonian                       ... done (   0.2 sec)
Diagonalizing the Hamiltonian                      ... done (   0.3 sec)
Back transforming the eigenvectors                 ... done (   0.1 sec)
Now organizing SCF variables                       ... done
                      ------------------
                      INITIAL GUESS DONE (   6.1 sec)
                      ------------------
--------------
SCF ITERATIONS
--------------
ITER       Energy         Delta-E        Max-DP      RMS-DP      [F,P]     Damp
               ***  Starting incremental Fock matrix formation  ***
  0  -1270.0091666569   0.000000000000 0.04930507  0.00042774  0.3042650 0.7000
  1  -1270.2771391205  -0.267972463588 0.03607251  0.00034276  0.1786417 0.7000
                               ***Turning on DIIS***
  2  -1270.4443135057  -0.167174385136 0.02583132  0.00023266  0.1096313 0.7000
  3  -1272.5891333581  -2.144819852406 0.06312116  0.00051587  0.0828992 0.0000
  4  -1270.7523996494   1.836733708637 0.00657334  0.00009159  0.0069541 0.0000
  5  -1270.8133726031  -0.060972953636 0.00297538  0.00004828  0.0050073 0.0000
                      *** Initiating the SOSCF procedure ***
                           *** Shutting down DIIS ***
                      *** Re-Reading the Fockian *** 
                      *** Removing any level shift *** 
ITER      Energy       Delta-E        Grad      Rot      Max-DP    RMS-DP
  6  -1270.79270120   0.0206713998  0.001566  0.001566  0.001706  0.000025
               *** Restarting incremental Fock matrix formation ***
  7  -1270.80758492  -0.0148837124  0.000881  0.002252  0.001265  0.000015
  8  -1270.80762951  -0.0000445963  0.000377  0.002505  0.001383  0.000016
  9  -1270.80764609  -0.0000165822  0.000163  0.000334  0.000353  0.000004
 10  -1270.80764817  -0.0000020794  0.000056  0.000148  0.000114  0.000001
 11  -1270.80764838  -0.0000002018  0.000024  0.000118  0.000053  0.000001
 12  -1270.80764844  -0.0000000639  0.000010  0.000040  0.000033  0.000000
 13  -1270.80764844   0.0000000015  0.000003  0.000011  0.000006  0.000000
                  ***Gradient check signals convergence***
              ***Rediagonalizing the Fockian in SOSCF/NRSCF***

               *****************************************************
               *                     SUCCESS                       *
               *           SCF CONVERGED AFTER  14 CYCLES          *
               *****************************************************


----------------
TOTAL SCF ENERGY
----------------

Total Energy       :        -1270.80764842 Eh          -34580.43415 eV

Components:
Nuclear Repulsion  :         1698.82170102 Eh           46227.28863 eV
Electronic Energy  :        -2969.62934944 Eh          -80807.72278 eV
One Electron Energy:        -5119.06526802 Eh         -139296.84766 eV
Two Electron Energy:         2149.43591858 Eh           58489.12487 eV

Virial components:
Potential Energy   :        -2539.69935063 Eh          -69108.73275 eV
Kinetic Energy     :         1268.89170220 Eh           34528.29860 eV
Virial Ratio       :            2.00150994


---------------
SCF CONVERGENCE
---------------

  Last Energy change         ...    1.4677e-08  Tolerance :   1.0000e-08
  Last MAX-Density change    ...    1.6857e-06  Tolerance :   1.0000e-07
  Last RMS-Density change    ...    2.7429e-08  Tolerance :   5.0000e-09
  Last Orbital Gradient      ...    1.3323e-06  Tolerance :   1.0000e-05
  Last Orbital Rotation      ...    3.0238e-06  Tolerance :   1.0000e-05

             **** THE GBW FILE WAS UPDATED (CONFS/Conf556.orca.gbw) ****
             **** DENSITY FILE WAS UPDATED (CONFS/Conf556.orca.scfp) ****
             **** ENERGY FILE WAS UPDATED (CONFS/Conf556.orca.en.tmp) ****
             **** THE GBW FILE WAS UPDATED (CONFS/Conf556.orca.gbw) ****
             **** DENSITY FILE WAS UPDATED (CONFS/Conf556.orca.scfp) ****
----------------
ORBITAL ENERGIES
----------------

  NO   OCC          E(Eh)            E(eV) 
   0   2.0000     -91.887895     -2500.3967 
   1   2.0000     -20.597249      -560.4796 
   2   2.0000     -20.596298      -560.4538 
   3   2.0000     -20.540625      -558.9388 
   4   2.0000     -15.627914      -425.2572 
   5   2.0000     -15.607126      -424.6915 
   6   2.0000     -11.397769      -310.1491 
   7   2.0000     -11.382888      -309.7441 
   8   2.0000     -11.334634      -308.4311 
   9   2.0000     -11.313432      -307.8541 
  10   2.0000     -11.307580      -307.6949 
  11   2.0000     -11.302510      -307.5569 
  12   2.0000     -11.259174      -306.3777 
  13   2.0000     -11.257818      -306.3408 
  14   2.0000     -11.254991      -306.2639 
  15   2.0000     -11.251146      -306.1592 
  16   2.0000     -11.242633      -305.9276 
  17   2.0000     -11.237840      -305.7972 
  18   2.0000     -11.237727      -305.7941 
  19   2.0000     -11.221421      -305.3504 
  20   2.0000      -8.892968      -241.9900 
  21   2.0000      -6.574546      -178.9025 
  22   2.0000      -6.572539      -178.8479 
  23   2.0000      -6.571955      -178.8320 
  24   2.0000      -1.442647       -39.2564 
  25   2.0000      -1.415938       -38.5296 
  26   2.0000      -1.354407       -36.8553 
  27   2.0000      -1.339019       -36.4366 
  28   2.0000      -1.237494       -33.6739 
  29   2.0000      -1.156923       -31.4815 
  30   2.0000      -1.118827       -30.4448 
  31   2.0000      -1.041831       -28.3497 
  32   2.0000      -1.035800       -28.1855 
  33   2.0000      -1.014642       -27.6098 
  34   2.0000      -0.994432       -27.0599 
  35   2.0000      -0.982723       -26.7412 
  36   2.0000      -0.921551       -25.0767 
  37   2.0000      -0.896601       -24.3977 
  38   2.0000      -0.846457       -23.0333 
  39   2.0000      -0.837476       -22.7889 
  40   2.0000      -0.833592       -22.6832 
  41   2.0000      -0.818536       -22.2735 
  42   2.0000      -0.745578       -20.2882 
  43   2.0000      -0.729979       -19.8637 
  44   2.0000      -0.717885       -19.5346 
  45   2.0000      -0.695222       -18.9180 
  46   2.0000      -0.687312       -18.7027 
  47   2.0000      -0.676841       -18.4178 
  48   2.0000      -0.667788       -18.1714 
  49   2.0000      -0.660460       -17.9720 
  50   2.0000      -0.650395       -17.6982 
  51   2.0000      -0.644114       -17.5272 
  52   2.0000      -0.634691       -17.2708 
  53   2.0000      -0.606522       -16.5043 
  54   2.0000      -0.600239       -16.3333 
  55   2.0000      -0.598342       -16.2817 
  56   2.0000      -0.596450       -16.2302 
  57   2.0000      -0.582512       -15.8509 
  58   2.0000      -0.575350       -15.6561 
  59   2.0000      -0.570041       -15.5116 
  60   2.0000      -0.561511       -15.2795 
  61   2.0000      -0.538454       -14.6521 
  62   2.0000      -0.535039       -14.5592 
  63   2.0000      -0.523997       -14.2587 
  64   2.0000      -0.523211       -14.2373 
  65   2.0000      -0.512232       -13.9385 
  66   2.0000      -0.501341       -13.6422 
  67   2.0000      -0.498466       -13.5639 
  68   2.0000      -0.483822       -13.1655 
  69   2.0000      -0.462953       -12.5976 
  70   2.0000      -0.451747       -12.2927 
  71   2.0000      -0.439235       -11.9522 
  72   2.0000      -0.352965        -9.6047 
  73   2.0000      -0.348889        -9.4938 
  74   2.0000      -0.327386        -8.9086 
  75   2.0000      -0.321029        -8.7356 
  76   2.0000      -0.315147        -8.5756 
  77   0.0000       0.077070         2.0972 
  78   0.0000       0.107238         2.9181 
  79   0.0000       0.125037         3.4024 
  80   0.0000       0.133163         3.6235 
  81   0.0000       0.138134         3.7588 
  82   0.0000       0.141328         3.8457 
  83   0.0000       0.149090         4.0569 
  84   0.0000       0.159158         4.3309 
  85   0.0000       0.165892         4.5142 
  86   0.0000       0.171236         4.6596 
  87   0.0000       0.178647         4.8612 
  88   0.0000       0.189501         5.1566 
  89   0.0000       0.195204         5.3118 
  90   0.0000       0.203440         5.5359 
  91   0.0000       0.206135         5.6092 
  92   0.0000       0.210656         5.7322 
  93   0.0000       0.219147         5.9633 
  94   0.0000       0.226209         6.1554 
  95   0.0000       0.234901         6.3920 
  96   0.0000       0.247164         6.7257 
  97   0.0000       0.250682         6.8214 
  98   0.0000       0.263584         7.1725 
  99   0.0000       0.267388         7.2760 
 100   0.0000       0.292892         7.9700 
 101   0.0000       0.305759         8.3201 
 102   0.0000       0.316284         8.6065 
 103   0.0000       0.319657         8.6983 
 104   0.0000       0.333137         9.0651 
 105   0.0000       0.334998         9.1158 
 106   0.0000       0.341454         9.2914 
 107   0.0000       0.347522         9.4565 
 108   0.0000       0.358063         9.7434 
 109   0.0000       0.366722         9.9790 
 110   0.0000       0.372648        10.1403 
 111   0.0000       0.379371        10.3232 
 112   0.0000       0.381233        10.3739 
 113   0.0000       0.389611        10.6018 
 114   0.0000       0.395353        10.7581 
 115   0.0000       0.407873        11.0988 
 116   0.0000       0.419247        11.4083 
 117   0.0000       0.430466        11.7136 
 118   0.0000       0.434005        11.8099 
 119   0.0000       0.435862        11.8604 
 120   0.0000       0.447418        12.1749 
 121   0.0000       0.450408        12.2562 
 122   0.0000       0.457355        12.4453 
 123   0.0000       0.461627        12.5615 
 124   0.0000       0.465316        12.6619 
 125   0.0000       0.469506        12.7759 
 126   0.0000       0.473666        12.8891 
 127   0.0000       0.482370        13.1260 
 128   0.0000       0.485892        13.2218 
 129   0.0000       0.495802        13.4915 
 130   0.0000       0.501003        13.6330 
 131   0.0000       0.507562        13.8115 
 132   0.0000       0.512637        13.9496 
 133   0.0000       0.514266        13.9939 
 134   0.0000       0.522202        14.2098 
 135   0.0000       0.529847        14.4179 
 136   0.0000       0.534688        14.5496 
 137   0.0000       0.538135        14.6434 
 138   0.0000       0.543259        14.7828 
 139   0.0000       0.547642        14.9021 
 140   0.0000       0.561231        15.2719 
 141   0.0000       0.562451        15.3051 
 142   0.0000       0.566328        15.4106 
 143   0.0000       0.568335        15.4652 
 144   0.0000       0.575716        15.6660 
 145   0.0000       0.579918        15.7804 
 146   0.0000       0.585268        15.9259 
 147   0.0000       0.589876        16.0513 
 148   0.0000       0.597208        16.2508 
 149   0.0000       0.602864        16.4048 
 150   0.0000       0.606679        16.5086 
 151   0.0000       0.608739        16.5646 
 152   0.0000       0.611834        16.6488 
 153   0.0000       0.617309        16.7978 
 154   0.0000       0.619830        16.8664 
 155   0.0000       0.626111        17.0373 
 156   0.0000       0.629217        17.1219 
 157   0.0000       0.636832        17.3291 
 158   0.0000       0.641347        17.4519 
 159   0.0000       0.643299        17.5050 
 160   0.0000       0.648142        17.6368 
 161   0.0000       0.652869        17.7655 
 162   0.0000       0.656354        17.8603 
 163   0.0000       0.664995        18.0954 
 164   0.0000       0.665627        18.1126 
 165   0.0000       0.668446        18.1893 
 166   0.0000       0.674663        18.3585 
 167   0.0000       0.680046        18.5050 
 168   0.0000       0.684313        18.6211 
 169   0.0000       0.697255        18.9733 
 170   0.0000       0.700847        19.0710 
 171   0.0000       0.702541        19.1171 
 172   0.0000       0.710242        19.3267 
 173   0.0000       0.720010        19.5925 
 174   0.0000       0.725101        19.7310 
 175   0.0000       0.729709        19.8564 
 176   0.0000       0.737310        20.0632 
 177   0.0000       0.744280        20.2529 
 178   0.0000       0.752784        20.4843 
 179   0.0000       0.757840        20.6219 
 180   0.0000       0.761181        20.7128 
 181   0.0000       0.766883        20.8680 
 182   0.0000       0.771945        21.0057 
 183   0.0000       0.779702        21.2168 
 184   0.0000       0.796418        21.6716 
 185   0.0000       0.805120        21.9084 
 186   0.0000       0.820099        22.3160 
 187   0.0000       0.823589        22.4110 
 188   0.0000       0.835127        22.7250 
 189   0.0000       0.835749        22.7419 
 190   0.0000       0.840139        22.8613 
 191   0.0000       0.853631        23.2285 
 192   0.0000       0.857035        23.3211 
 193   0.0000       0.859895        23.3989 
 194   0.0000       0.867621        23.6092 
 195   0.0000       0.875223        23.8160 
 196   0.0000       0.887790        24.1580 
 197   0.0000       0.889067        24.1927 
 198   0.0000       0.892507        24.2864 
 199   0.0000       0.902898        24.5691 
 200   0.0000       0.909274        24.7426 
 201   0.0000       0.924944        25.1690 
 202   0.0000       0.929152        25.2835 
 203   0.0000       0.940468        25.5914 
 204   0.0000       0.945106        25.7176 
 205   0.0000       0.948402        25.8073 
 206   0.0000       0.960511        26.1368 
 207   0.0000       0.968008        26.3408 
 208   0.0000       0.968933        26.3660 
 209   0.0000       0.977237        26.5920 
 210   0.0000       0.980299        26.6753 
 211   0.0000       0.987379        26.8679 
 212   0.0000       0.993451        27.0332 
 213   0.0000       1.001500        27.2522 
 214   0.0000       1.009089        27.4587 
 215   0.0000       1.020651        27.7733 
 216   0.0000       1.024875        27.8883 
 217   0.0000       1.031217        28.0608 
 218   0.0000       1.038590        28.2615 
 219   0.0000       1.045302        28.4441 
 220   0.0000       1.047099        28.4930 
 221   0.0000       1.059699        28.8359 
 222   0.0000       1.064784        28.9743 
 223   0.0000       1.067881        29.0585 
 224   0.0000       1.080551        29.4033 
 225   0.0000       1.090608        29.6770 
 226   0.0000       1.097853        29.8741 
 227   0.0000       1.105049        30.0699 
 228   0.0000       1.111885        30.2559 
 229   0.0000       1.124183        30.5906 
 230   0.0000       1.134058        30.8593 
 231   0.0000       1.136350        30.9217 
 232   0.0000       1.145569        31.1725 
 233   0.0000       1.149134        31.2695 
 234   0.0000       1.151457        31.3327 
 235   0.0000       1.162884        31.6437 
 236   0.0000       1.168068        31.7847 
 237   0.0000       1.179882        32.1062 
 238   0.0000       1.184084        32.2206 
 239   0.0000       1.188330        32.3361 
 240   0.0000       1.192671        32.4542 
 241   0.0000       1.202524        32.7223 
 242   0.0000       1.203668        32.7535 
 243   0.0000       1.217260        33.1233 
 244   0.0000       1.220424        33.2094 
 245   0.0000       1.226077        33.3632 
 246   0.0000       1.231170        33.5018 
 247   0.0000       1.236198        33.6386 
 248   0.0000       1.246323        33.9142 
 249   0.0000       1.255288        34.1581 
 250   0.0000       1.257141        34.2085 
 251   0.0000       1.272120        34.6161 
 252   0.0000       1.275773        34.7155 
 253   0.0000       1.280123        34.8339 
 254   0.0000       1.293765        35.2051 
 255   0.0000       1.294871        35.2352 
 256   0.0000       1.297851        35.3163 
 257   0.0000       1.319525        35.9061 
 258   0.0000       1.326636        36.0996 
 259   0.0000       1.328699        36.1557 
 260   0.0000       1.344831        36.5947 
 261   0.0000       1.353876        36.8408 
 262   0.0000       1.365923        37.1687 
 263   0.0000       1.369756        37.2730 
 264   0.0000       1.379256        37.5315 
 265   0.0000       1.387142        37.7461 
 266   0.0000       1.400376        38.1062 
 267   0.0000       1.407151        38.2905 
 268   0.0000       1.409352        38.3504 
 269   0.0000       1.419652        38.6307 
 270   0.0000       1.423525        38.7361 
 271   0.0000       1.427970        38.8570 
 272   0.0000       1.435403        39.0593 
 273   0.0000       1.437601        39.1191 
 274   0.0000       1.459101        39.7042 
 275   0.0000       1.468078        39.9484 
 276   0.0000       1.472610        40.0717 
 277   0.0000       1.484841        40.4046 
 278   0.0000       1.491886        40.5963 
 279   0.0000       1.492620        40.6163 
 280   0.0000       1.495236        40.6875 
 281   0.0000       1.505231        40.9594 
 282   0.0000       1.507547        41.0224 
 283   0.0000       1.510362        41.0990 
 284   0.0000       1.519393        41.3448 
 285   0.0000       1.526058        41.5261 
 286   0.0000       1.529092        41.6087 
 287   0.0000       1.538388        41.8617 
 288   0.0000       1.541456        41.9451 
 289   0.0000       1.549384        42.1609 
 290   0.0000       1.554262        42.2936 
 291   0.0000       1.559097        42.4252 
 292   0.0000       1.569959        42.7207 
 293   0.0000       1.572672        42.7946 
 294   0.0000       1.587956        43.2105 
 295   0.0000       1.591255        43.3003 
 296   0.0000       1.604923        43.6722 
 297   0.0000       1.608269        43.7632 
 298   0.0000       1.611971        43.8640 
 299   0.0000       1.621832        44.1323 
 300   0.0000       1.632030        44.4098 
 301   0.0000       1.647912        44.8420 
 302   0.0000       1.652828        44.9757 
 303   0.0000       1.657395        45.1000 
 304   0.0000       1.660390        45.1815 
 305   0.0000       1.676185        45.6113 
 306   0.0000       1.689306        45.9683 
 307   0.0000       1.691841        46.0373 
 308   0.0000       1.698811        46.2270 
 309   0.0000       1.707176        46.4546 
 310   0.0000       1.709720        46.5238 
 311   0.0000       1.722339        46.8672 
 312   0.0000       1.735542        47.2265 
 313   0.0000       1.746343        47.5204 
 314   0.0000       1.753795        47.7232 
 315   0.0000       1.759051        47.8662 
 316   0.0000       1.776956        48.3534 
 317   0.0000       1.778515        48.3959 
 318   0.0000       1.785079        48.5745 
 319   0.0000       1.794625        48.8342 
 320   0.0000       1.802931        49.0602 
 321   0.0000       1.813870        49.3579 
 322   0.0000       1.822142        49.5830 
 323   0.0000       1.832317        49.8599 
 324   0.0000       1.846396        50.2430 
 325   0.0000       1.855707        50.4963 
 326   0.0000       1.868544        50.8457 
 327   0.0000       1.885867        51.3170 
 328   0.0000       1.897643        51.6375 
 329   0.0000       1.911790        52.0224 
 330   0.0000       1.920370        52.2559 
 331   0.0000       1.930534        52.5325 
 332   0.0000       1.933841        52.6225 
 333   0.0000       1.943049        52.8730 
 334   0.0000       1.953378        53.1541 
 335   0.0000       1.966738        53.5177 
 336   0.0000       1.982236        53.9394 
 337   0.0000       1.997662        54.3591 
 338   0.0000       2.010760        54.7155 
 339   0.0000       2.025197        55.1084 
 340   0.0000       2.029670        55.2301 
 341   0.0000       2.041129        55.5419 
 342   0.0000       2.042747        55.5860 
 343   0.0000       2.076698        56.5098 
 344   0.0000       2.093980        56.9801 
 345   0.0000       2.115038        57.5531 
 346   0.0000       2.124180        57.8019 
 347   0.0000       2.130771        57.9812 
 348   0.0000       2.152275        58.5664 
 349   0.0000       2.156827        58.6902 
 350   0.0000       2.168811        59.0163 
 351   0.0000       2.182731        59.3951 
 352   0.0000       2.213213        60.2246 
 353   0.0000       2.214348        60.2555 
 354   0.0000       2.231568        60.7240 
 355   0.0000       2.257448        61.4283 
 356   0.0000       2.274836        61.9014 
 357   0.0000       2.286717        62.2247 
 358   0.0000       2.298866        62.5553 
 359   0.0000       2.306431        62.7612 
 360   0.0000       2.310719        62.8779 
 361   0.0000       2.332838        63.4797 
 362   0.0000       2.342174        63.7338 
 363   0.0000       2.349843        63.9425 
 364   0.0000       2.361281        64.2537 
 365   0.0000       2.379673        64.7542 
 366   0.0000       2.394691        65.1628 
 367   0.0000       2.402364        65.3717 
 368   0.0000       2.421620        65.8956 
 369   0.0000       2.428963        66.0954 
 370   0.0000       2.454796        66.7984 
 371   0.0000       2.462520        67.0086 
 372   0.0000       2.471813        67.2615 
 373   0.0000       2.475738        67.3683 
 374   0.0000       2.483023        67.5665 
 375   0.0000       2.493560        67.8532 
 376   0.0000       2.506856        68.2150 
 377   0.0000       2.528728        68.8102 
 378   0.0000       2.534585        68.9696 
 379   0.0000       2.541496        69.1576 
 380   0.0000       2.561608        69.7049 
 381   0.0000       2.575737        70.0894 
 382   0.0000       2.582962        70.2860 
 383   0.0000       2.596615        70.6575 
 384   0.0000       2.616635        71.2023 
 385   0.0000       2.624428        71.4143 
 386   0.0000       2.634381        71.6851 
 387   0.0000       2.644213        71.9527 
 388   0.0000       2.660996        72.4094 
 389   0.0000       2.663027        72.4647 
 390   0.0000       2.687548        73.1319 
 391   0.0000       2.692119        73.2563 
 392   0.0000       2.708727        73.7082 
 393   0.0000       2.711430        73.7818 
 394   0.0000       2.718473        73.9734 
 395   0.0000       2.736887        74.4745 
 396   0.0000       2.746365        74.7324 
 397   0.0000       2.751118        74.8617 
 398   0.0000       2.762084        75.1601 
 399   0.0000       2.778114        75.5963 
 400   0.0000       2.784105        75.7593 
 401   0.0000       2.786111        75.8139 
 402   0.0000       2.800661        76.2099 
 403   0.0000       2.822374        76.8007 
 404   0.0000       2.829580        76.9968 
 405   0.0000       2.834355        77.1267 
 406   0.0000       2.845184        77.4214 
 407   0.0000       2.856210        77.7214 
 408   0.0000       2.861213        77.8576 
 409   0.0000       2.872015        78.1515 
 410   0.0000       2.877782        78.3084 
 411   0.0000       2.888697        78.6054 
 412   0.0000       2.897387        78.8419 
 413   0.0000       2.897848        78.8545 
 414   0.0000       2.903477        79.0076 
 415   0.0000       2.918584        79.4187 
 416   0.0000       2.929323        79.7109 
 417   0.0000       2.939791        79.9958 
 418   0.0000       2.946746        80.1850 
 419   0.0000       2.958000        80.4913 
 420   0.0000       2.971945        80.8707 
 421   0.0000       2.981270        81.1245 
 422   0.0000       2.989045        81.3360 
 423   0.0000       2.995207        81.5037 
 424   0.0000       3.002772        81.7096 
 425   0.0000       3.005140        81.7740 
 426   0.0000       3.008018        81.8523 
 427   0.0000       3.025289        82.3223 
 428   0.0000       3.028206        82.4017 
 429   0.0000       3.040509        82.7365 
 430   0.0000       3.049590        82.9836 
 431   0.0000       3.053894        83.1007 
 432   0.0000       3.058122        83.2157 
 433   0.0000       3.066691        83.4489 
 434   0.0000       3.075128        83.6785 
 435   0.0000       3.089771        84.0770 
 436   0.0000       3.091211        84.1161 
 437   0.0000       3.101173        84.3872 
 438   0.0000       3.107491        84.5591 
 439   0.0000       3.110578        84.6431 
 440   0.0000       3.114186        84.7413 
 441   0.0000       3.121366        84.9367 
 442   0.0000       3.126091        85.0653 
 443   0.0000       3.130740        85.1918 
 444   0.0000       3.144168        85.5571 
 445   0.0000       3.151989        85.7700 
 446   0.0000       3.158064        85.9353 
 447   0.0000       3.170823        86.2825 
 448   0.0000       3.182775        86.6077 
 449   0.0000       3.187814        86.7448 
 450   0.0000       3.194417        86.9245 
 451   0.0000       3.201355        87.1133 
 452   0.0000       3.215607        87.5011 
 453   0.0000       3.217366        87.5490 
 454   0.0000       3.224524        87.7438 
 455   0.0000       3.231992        87.9470 
 456   0.0000       3.246759        88.3488 
 457   0.0000       3.251810        88.4862 
 458   0.0000       3.254810        88.5679 
 459   0.0000       3.259065        88.6837 
 460   0.0000       3.266659        88.8903 
 461   0.0000       3.272654        89.0534 
 462   0.0000       3.284239        89.3687 
 463   0.0000       3.292580        89.5957 
 464   0.0000       3.296564        89.7041 
 465   0.0000       3.302064        89.8537 
 466   0.0000       3.309616        90.0592 
 467   0.0000       3.318000        90.2874 
 468   0.0000       3.321439        90.3810 
 469   0.0000       3.329063        90.5884 
 470   0.0000       3.338031        90.8324 
 471   0.0000       3.342017        90.9409 
 472   0.0000       3.348500        91.1173 
 473   0.0000       3.355206        91.2998 
 474   0.0000       3.363831        91.5345 
 475   0.0000       3.366540        91.6082 
 476   0.0000       3.372454        91.7691 
 477   0.0000       3.378027        91.9208 
 478   0.0000       3.385442        92.1226 
 479   0.0000       3.392240        92.3076 
 480   0.0000       3.396084        92.4122 
 481   0.0000       3.403286        92.6081 
 482   0.0000       3.405987        92.6816 
 483   0.0000       3.407801        92.7310 
 484   0.0000       3.415091        92.9293 
 485   0.0000       3.418554        93.0236 
 486   0.0000       3.425544        93.2138 
 487   0.0000       3.427274        93.2609 
 488   0.0000       3.432005        93.3896 
 489   0.0000       3.438160        93.5571 
 490   0.0000       3.446816        93.7926 
 491   0.0000       3.450247        93.8860 
 492   0.0000       3.452519        93.9478 
 493   0.0000       3.454349        93.9976 
 494   0.0000       3.462404        94.2168 
 495   0.0000       3.472535        94.4925 
 496   0.0000       3.477613        94.6307 
 497   0.0000       3.483700        94.7963 
 498   0.0000       3.484811        94.8265 
 499   0.0000       3.490649        94.9854 
 500   0.0000       3.498178        95.1903 
 501   0.0000       3.512426        95.5780 
 502   0.0000       3.528236        96.0082 
 503   0.0000       3.534936        96.1905 
 504   0.0000       3.542326        96.3916 
 505   0.0000       3.554386        96.7197 
 506   0.0000       3.558165        96.8226 
 507   0.0000       3.563072        96.9561 
 508   0.0000       3.576669        97.3261 
 509   0.0000       3.584276        97.5331 
 510   0.0000       3.585263        97.5600 
 511   0.0000       3.596869        97.8758 
 512   0.0000       3.606368        98.1343 
 513   0.0000       3.612615        98.3042 
 514   0.0000       3.617721        98.4432 
 515   0.0000       3.626501        98.6821 
 516   0.0000       3.629719        98.7697 
 517   0.0000       3.631303        98.8128 
 518   0.0000       3.638120        98.9983 
 519   0.0000       3.645369        99.1955 
 520   0.0000       3.647484        99.2531 
 521   0.0000       3.652449        99.3882 
 522   0.0000       3.653911        99.4280 
 523   0.0000       3.662429        99.6598 
 524   0.0000       3.667378        99.7944 
 525   0.0000       3.674450        99.9869 
 526   0.0000       3.678963       100.1097 
 527   0.0000       3.682566       100.2077 
 528   0.0000       3.701005       100.7095 
 529   0.0000       3.706552       100.8604 
 530   0.0000       3.712218       101.0146 
 531   0.0000       3.716173       101.1222 
 532   0.0000       3.721281       101.2612 
 533   0.0000       3.737612       101.7056 
 534   0.0000       3.743533       101.8667 
 535   0.0000       3.750703       102.0618 
 536   0.0000       3.751116       102.0730 
 537   0.0000       3.754474       102.1644 
 538   0.0000       3.760294       102.3228 
 539   0.0000       3.770972       102.6134 
 540   0.0000       3.779917       102.8568 
 541   0.0000       3.785284       103.0028 
 542   0.0000       3.791701       103.1774 
 543   0.0000       3.801235       103.4369 
 544   0.0000       3.814085       103.7865 
 545   0.0000       3.815383       103.8219 
 546   0.0000       3.824873       104.0801 
 547   0.0000       3.825985       104.1103 
 548   0.0000       3.827149       104.1420 
 549   0.0000       3.844731       104.6205 
 550   0.0000       3.850168       104.7684 
 551   0.0000       3.855681       104.9184 
 552   0.0000       3.872106       105.3653 
 553   0.0000       3.887526       105.7850 
 554   0.0000       3.892842       105.9296 
 555   0.0000       3.896831       106.0382 
 556   0.0000       3.903850       106.2292 
 557   0.0000       3.914801       106.5271 
 558   0.0000       3.921404       106.7068 
 559   0.0000       3.927884       106.8832 
 560   0.0000       3.943382       107.3049 
 561   0.0000       3.950112       107.4880 
 562   0.0000       3.954653       107.6116 
 563   0.0000       3.972620       108.1005 
 564   0.0000       3.975138       108.1690 
 565   0.0000       3.983247       108.3897 
 566   0.0000       3.988813       108.5411 
 567   0.0000       3.996592       108.7528 
 568   0.0000       4.013924       109.2244 
 569   0.0000       4.023150       109.4755 
 570   0.0000       4.026347       109.5625 
 571   0.0000       4.041430       109.9729 
 572   0.0000       4.042079       109.9906 
 573   0.0000       4.053589       110.3038 
 574   0.0000       4.059399       110.4619 
 575   0.0000       4.073641       110.8494 
 576   0.0000       4.084590       111.1473 
 577   0.0000       4.086022       111.1863 
 578   0.0000       4.103253       111.6552 
 579   0.0000       4.105082       111.7050 
 580   0.0000       4.117823       112.0517 
 581   0.0000       4.125554       112.2620 
 582   0.0000       4.133479       112.4777 
 583   0.0000       4.135198       112.5245 
 584   0.0000       4.138307       112.6091 
 585   0.0000       4.144651       112.7817 
 586   0.0000       4.154767       113.0569 
 587   0.0000       4.166446       113.3748 
 588   0.0000       4.172742       113.5461 
 589   0.0000       4.178546       113.7040 
 590   0.0000       4.180875       113.7674 
 591   0.0000       4.191977       114.0695 
 592   0.0000       4.201655       114.3328 
 593   0.0000       4.204651       114.4144 
 594   0.0000       4.210647       114.5775 
 595   0.0000       4.213476       114.6545 
 596   0.0000       4.218285       114.7854 
 597   0.0000       4.226860       115.0187 
 598   0.0000       4.233063       115.1875 
 599   0.0000       4.235670       115.2584 
 600   0.0000       4.247709       115.5860 
 601   0.0000       4.253018       115.7305 
 602   0.0000       4.259146       115.8973 
 603   0.0000       4.271556       116.2349 
 604   0.0000       4.292835       116.8140 
 605   0.0000       4.297040       116.9284 
 606   0.0000       4.311463       117.3209 
 607   0.0000       4.316431       117.4560 
 608   0.0000       4.328470       117.7837 
 609   0.0000       4.331362       117.8624 
 610   0.0000       4.335590       117.9774 
 611   0.0000       4.343706       118.1983 
 612   0.0000       4.347311       118.2963 
 613   0.0000       4.357410       118.5712 
 614   0.0000       4.362958       118.7221 
 615   0.0000       4.370736       118.9338 
 616   0.0000       4.375787       119.0712 
 617   0.0000       4.389184       119.4358 
 618   0.0000       4.391661       119.5032 
 619   0.0000       4.403909       119.8365 
 620   0.0000       4.417455       120.2051 
 621   0.0000       4.420745       120.2946 
 622   0.0000       4.425801       120.4322 
 623   0.0000       4.431068       120.5755 
 624   0.0000       4.439749       120.8117 
 625   0.0000       4.449453       121.0758 
 626   0.0000       4.459136       121.3393 
 627   0.0000       4.462693       121.4360 
 628   0.0000       4.467674       121.5716 
 629   0.0000       4.497748       122.3900 
 630   0.0000       4.499639       122.4414 
 631   0.0000       4.508091       122.6714 
 632   0.0000       4.521186       123.0277 
 633   0.0000       4.528326       123.2220 
 634   0.0000       4.537123       123.4614 
 635   0.0000       4.537956       123.4841 
 636   0.0000       4.551251       123.8458 
 637   0.0000       4.557811       124.0243 
 638   0.0000       4.558675       124.0479 
 639   0.0000       4.573362       124.4475 
 640   0.0000       4.587919       124.8436 
 641   0.0000       4.595275       125.0438 
 642   0.0000       4.604386       125.2917 
 643   0.0000       4.608939       125.4156 
 644   0.0000       4.616949       125.6336 
 645   0.0000       4.621460       125.7563 
 646   0.0000       4.635095       126.1274 
 647   0.0000       4.638806       126.2283 
 648   0.0000       4.642480       126.3283 
 649   0.0000       4.647969       126.4777 
 650   0.0000       4.653619       126.6314 
 651   0.0000       4.663480       126.8998 
 652   0.0000       4.671797       127.1261 
 653   0.0000       4.683827       127.4534 
 654   0.0000       4.692561       127.6911 
 655   0.0000       4.703546       127.9900 
 656   0.0000       4.712947       128.2458 
 657   0.0000       4.718442       128.3953 
 658   0.0000       4.732316       128.7729 
 659   0.0000       4.738976       128.9541 
 660   0.0000       4.755856       129.4134 
 661   0.0000       4.768462       129.7564 
 662   0.0000       4.774438       129.9191 
 663   0.0000       4.780744       130.0907 
 664   0.0000       4.812412       130.9524 
 665   0.0000       4.815905       131.0474 
 666   0.0000       4.820553       131.1739 
 667   0.0000       4.839606       131.6924 
 668   0.0000       4.860404       132.2583 
 669   0.0000       4.878118       132.7403 
 670   0.0000       4.909747       133.6010 
 671   0.0000       4.925402       134.0270 
 672   0.0000       4.938683       134.3884 
 673   0.0000       4.954468       134.8179 
 674   0.0000       4.975289       135.3845 
 675   0.0000       4.999115       136.0328 
 676   0.0000       5.013368       136.4207 
 677   0.0000       5.022106       136.6584 
 678   0.0000       5.027346       136.8010 
 679   0.0000       5.038227       137.0971 
 680   0.0000       5.053497       137.5127 
 681   0.0000       5.064316       137.8070 
 682   0.0000       5.086323       138.4059 
 683   0.0000       5.091129       138.5367 
 684   0.0000       5.106804       138.9632 
 685   0.0000       5.116204       139.2190 
 686   0.0000       5.127268       139.5201 
 687   0.0000       5.135106       139.7333 
 688   0.0000       5.142650       139.9386 
 689   0.0000       5.150839       140.1615 
 690   0.0000       5.167980       140.6279 
 691   0.0000       5.177999       140.9005 
 692   0.0000       5.187162       141.1498 
 693   0.0000       5.194570       141.3514 
 694   0.0000       5.196865       141.4139 
 695   0.0000       5.212225       141.8319 
 696   0.0000       5.218143       141.9929 
 697   0.0000       5.224634       142.1695 
 698   0.0000       5.228483       142.2742 
 699   0.0000       5.253739       142.9615 
 700   0.0000       5.268485       143.3628 
 701   0.0000       5.276866       143.5908 
 702   0.0000       5.284610       143.8016 
 703   0.0000       5.318286       144.7179 
 704   0.0000       5.325050       144.9020 
 705   0.0000       5.331146       145.0678 
 706   0.0000       5.344720       145.4372 
 707   0.0000       5.356978       145.7708 
 708   0.0000       5.375733       146.2811 
 709   0.0000       5.382772       146.4727 
 710   0.0000       5.395170       146.8100 
 711   0.0000       5.404249       147.0571 
 712   0.0000       5.428627       147.7205 
 713   0.0000       5.445433       148.1778 
 714   0.0000       5.468946       148.8176 
 715   0.0000       5.486228       149.2878 
 716   0.0000       5.490294       149.3985 
 717   0.0000       5.511522       149.9762 
 718   0.0000       5.521567       150.2495 
 719   0.0000       5.533832       150.5832 
 720   0.0000       5.537618       150.6862 
 721   0.0000       5.549187       151.0011 
 722   0.0000       5.552211       151.0833 
 723   0.0000       5.576197       151.7360 
 724   0.0000       5.588373       152.0674 
 725   0.0000       5.602127       152.4416 
 726   0.0000       5.614309       152.7731 
 727   0.0000       5.620137       152.9317 
 728   0.0000       5.633591       153.2978 
 729   0.0000       5.638737       153.4378 
 730   0.0000       5.645384       153.6187 
 731   0.0000       5.660857       154.0397 
 732   0.0000       5.670845       154.3115 
 733   0.0000       5.684396       154.6803 
 734   0.0000       5.698516       155.0645 
 735   0.0000       5.709107       155.3527 
 736   0.0000       5.732742       155.9958 
 737   0.0000       5.735345       156.0667 
 738   0.0000       5.749706       156.4575 
 739   0.0000       5.759087       156.7127 
 740   0.0000       5.767373       156.9382 
 741   0.0000       5.781314       157.3176 
 742   0.0000       5.796821       157.7395 
 743   0.0000       5.817973       158.3151 
 744   0.0000       5.819059       158.3447 
 745   0.0000       5.841232       158.9480 
 746   0.0000       5.857420       159.3885 
 747   0.0000       5.897267       160.4728 
 748   0.0000       5.909280       160.7997 
 749   0.0000       5.930559       161.3787 
 750   0.0000       5.936276       161.5343 
 751   0.0000       5.972873       162.5301 
 752   0.0000       5.974160       162.5652 
 753   0.0000       5.987621       162.9315 
 754   0.0000       6.010648       163.5580 
 755   0.0000       6.015556       163.6916 
 756   0.0000       6.053686       164.7292 
 757   0.0000       6.066362       165.0741 
 758   0.0000       6.076331       165.3454 
 759   0.0000       6.096770       165.9015 
 760   0.0000       6.123085       166.6176 
 761   0.0000       6.163573       167.7193 
 762   0.0000       6.215837       169.1415 
 763   0.0000       6.220598       169.2711 
 764   0.0000       6.230187       169.5320 
 765   0.0000       6.263600       170.4412 
 766   0.0000       6.274868       170.7478 
 767   0.0000       6.299934       171.4299 
 768   0.0000       6.342599       172.5909 
 769   0.0000       6.351520       172.8336 
 770   0.0000       6.372190       173.3961 
 771   0.0000       6.390086       173.8831 
 772   0.0000       6.406833       174.3388 
 773   0.0000       6.439543       175.2289 
 774   0.0000       6.460013       175.7859 
 775   0.0000       6.482686       176.4028 
 776   0.0000       6.507058       177.0661 
 777   0.0000       6.529861       177.6866 
 778   0.0000       6.556418       178.4092 
 779   0.0000       6.594471       179.4447 
 780   0.0000       6.651652       181.0006 
 781   0.0000       6.685077       181.9102 
 782   0.0000       6.728849       183.1013 
 783   0.0000       6.794072       184.8761 
 784   0.0000       6.827005       185.7722 
 785   0.0000       6.910770       188.0516 
 786   0.0000       6.916464       188.2066 
 787   0.0000       6.921641       188.3474 
 788   0.0000       6.930361       188.5847 
 789   0.0000       7.049074       191.8151 
 790   0.0000       7.063682       192.2126 
 791   0.0000       7.081400       192.6947 
 792   0.0000       7.084952       192.7913 
 793   0.0000       7.151477       194.6016 
 794   0.0000       7.174142       195.2183 
 795   0.0000       7.240167       197.0150 
 796   0.0000       7.262959       197.6352 
 797   0.0000       7.282088       198.1557 
 798   0.0000       7.342524       199.8002 
 799   0.0000       7.371114       200.5782 
 800   0.0000       7.460086       202.9993 
 801   0.0000       7.541241       205.2076 
 802   0.0000       7.582922       206.3418 
 803   0.0000       7.593742       206.6362 
 804   0.0000       7.726465       210.2478 
 805   0.0000       7.816688       212.7029 
 806   0.0000       7.841448       213.3766 
 807   0.0000       7.935596       215.9386 
 808   0.0000       7.991197       217.4515 
 809   0.0000       9.328410       253.8389 
 810   0.0000       9.494251       258.3517 
 811   0.0000      10.815884       294.3152 
 812   0.0000      11.351920       308.9015 
 813   0.0000      11.707441       318.5757 
 814   0.0000      12.567738       341.9855 
 815   0.0000      12.907541       351.2320 
 816   0.0000      12.965575       352.8112 
 817   0.0000      13.067089       355.5736 
 818   0.0000      13.165767       358.2587 
 819   0.0000      13.376733       363.9994 
 820   0.0000      13.541793       368.4909 
 821   0.0000      13.720733       373.3601 
 822   0.0000      13.920294       378.7904 
 823   0.0000      13.985188       380.5563 
 824   0.0000      14.072947       382.9443 
 825   0.0000      14.593828       397.1183 
 826   0.0000      14.845916       403.9779 
 827   0.0000      15.977733       434.7762 

                    ********************************
                    * MULLIKEN POPULATION ANALYSIS *
                    ********************************

-----------------------
MULLIKEN ATOMIC CHARGES
-----------------------
   0 C :   -0.282719
   1 C :    0.048223
   2 O :   -0.369925
   3 C :    0.457939
   4 O :   -0.430257
   5 C :   -0.202926
   6 C :    0.148460
   7 C :   -0.272749
   8 N :   -0.120727
   9 C :    0.212683
  10 S :   -0.441786
  11 N :   -0.204853
  12 C :    0.057471
  13 C :    0.069480
  14 C :   -0.192369
  15 C :   -0.130713
  16 C :   -0.280685
  17 C :    0.316584
  18 O :   -0.356472
  19 C :   -0.270003
  20 H :    0.113349
  21 H :    0.094878
  22 H :    0.103768
  23 H :    0.092952
  24 H :    0.095914
  25 H :    0.131756
  26 H :    0.130117
  27 H :    0.094941
  28 H :    0.197168
  29 H :    0.194365
  30 H :    0.148945
  31 H :    0.150934
  32 H :    0.160557
  33 H :    0.129998
  34 H :    0.240607
  35 H :    0.165094
Sum of atomic charges:   -0.0000000

--------------------------------
MULLIKEN REDUCED ORBITAL CHARGES
--------------------------------
  0 C s       :     3.251103  s :     3.251103
      pz      :     0.959618  p :     2.953150
      px      :     0.979513
      py      :     1.014019
      dz2     :     0.018515  d :     0.074056
      dxz     :     0.017894
      dyz     :     0.009728
      dx2y2   :     0.010213
      dxy     :     0.017707
      f0      :     0.000410  f :     0.004409
      f+1     :     0.001233
      f-1     :     0.000285
      f+2     :     0.000715
      f-2     :     0.000930
      f+3     :     0.000420
      f-3     :     0.000416
  1 C s       :     3.178923  s :     3.178923
      pz      :     0.971844  p :     2.614381
      px      :     0.868973
      py      :     0.773564
      dz2     :     0.026480  d :     0.147273
      dxz     :     0.030004
      dyz     :     0.024389
      dx2y2   :     0.025101
      dxy     :     0.041298
      f0      :     0.001224  f :     0.011200
      f+1     :     0.001725
      f-1     :     0.001118
      f+2     :     0.000933
      f-2     :     0.002224
      f+3     :     0.002022
      f-3     :     0.001954
  2 O s       :     3.714023  s :     3.714023
      pz      :     1.799340  p :     4.622363
      px      :     1.648400
      py      :     1.174623
      dz2     :     0.003515  d :     0.031278
      dxz     :     0.002512
      dyz     :     0.006163
      dx2y2   :     0.007190
      dxy     :     0.011898
      f0      :     0.000249  f :     0.002260
      f+1     :     0.000120
      f-1     :     0.000492
      f+2     :     0.000199
      f-2     :     0.000183
      f+3     :     0.000556
      f-3     :     0.000461
  3 C s       :     3.051731  s :     3.051731
      pz      :     0.728095  p :     2.164125
      px      :     0.729573
      py      :     0.706456
      dz2     :     0.057030  d :     0.299752
      dxz     :     0.033686
      dyz     :     0.063409
      dx2y2   :     0.072133
      dxy     :     0.073493
      f0      :     0.002371  f :     0.026453
      f+1     :     0.003985
      f-1     :     0.002393
      f+2     :     0.004722
      f-2     :     0.003455
      f+3     :     0.005106
      f-3     :     0.004421
  4 O s       :     3.771333  s :     3.771333
      pz      :     1.461622  p :     4.621497
      px      :     1.401071
      py      :     1.758805
      dz2     :     0.007469  d :     0.035025
      dxz     :     0.009238
      dyz     :     0.004571
      dx2y2   :     0.007310
      dxy     :     0.006437
      f0      :     0.000220  f :     0.002401
      f+1     :     0.000467
      f-1     :     0.000156
      f+2     :     0.000408
      f-2     :     0.000499
      f+3     :     0.000294
      f-3     :     0.000358
  5 C s       :     3.190088  s :     3.190088
      pz      :     1.031923  p :     2.922301
      px      :     1.031255
      py      :     0.859123
      dz2     :     0.011283  d :     0.080067
      dxz     :     0.007218
      dyz     :     0.026973
      dx2y2   :     0.008140
      dxy     :     0.026452
      f0      :     0.000947  f :     0.010471
      f+1     :     0.001193
      f-1     :     0.001180
      f+2     :     0.002056
      f-2     :     0.001781
      f+3     :     0.001916
      f-3     :     0.001398
  6 C s       :     3.188909  s :     3.188909
      pz      :     0.814138  p :     2.473243
      px      :     0.827241
      py      :     0.831865
      dz2     :     0.030258  d :     0.175052
      dxz     :     0.018623
      dyz     :     0.046554
      dx2y2   :     0.026343
      dxy     :     0.053275
      f0      :     0.001717  f :     0.014336
      f+1     :     0.001675
      f-1     :     0.001789
      f+2     :     0.002423
      f-2     :     0.002105
      f+3     :     0.002638
      f-3     :     0.001988
  7 C s       :     3.273286  s :     3.273286
      pz      :     0.993022  p :     2.925417
      px      :     0.981370
      py      :     0.951026
      dz2     :     0.019618  d :     0.069393
      dxz     :     0.008836
      dyz     :     0.009843
      dx2y2   :     0.020980
      dxy     :     0.010116
      f0      :     0.000982  f :     0.004652
      f+1     :     0.000490
      f-1     :     0.000530
      f+2     :     0.000303
      f-2     :     0.000824
      f+3     :     0.000631
      f-3     :     0.000893
  8 N s       :     3.337908  s :     3.337908
      pz      :     1.371819  p :     3.718488
      px      :     1.267793
      py      :     1.078876
      dz2     :     0.010374  d :     0.059394
      dxz     :     0.010836
      dyz     :     0.009492
      dx2y2   :     0.016662
      dxy     :     0.012030
      f0      :     0.000570  f :     0.004938
      f+1     :     0.000987
      f-1     :     0.000390
      f+2     :     0.000910
      f-2     :     0.001039
      f+3     :     0.000476
      f-3     :     0.000566
  9 C s       :     3.154655  s :     3.154655
      pz      :     0.746899  p :     2.353179
      px      :     0.781189
      py      :     0.825091
      dz2     :     0.048149  d :     0.261877
      dxz     :     0.029756
      dyz     :     0.058260
      dx2y2   :     0.070626
      dxy     :     0.055086
      f0      :     0.001839  f :     0.017606
      f+1     :     0.002749
      f-1     :     0.001957
      f+2     :     0.003396
      f-2     :     0.001720
      f+3     :     0.003136
      f-3     :     0.002809
 10 S s       :     5.855929  s :     5.855929
      pz      :     3.460648  p :    10.491084
      px      :     3.458873
      py      :     3.571564
      dz2     :     0.011916  d :     0.084651
      dxz     :     0.017024
      dyz     :     0.022374
      dx2y2   :     0.006365
      dxy     :     0.026972
      f0      :     0.001071  f :     0.010122
      f+1     :     0.001027
      f-1     :     0.001241
      f+2     :     0.000768
      f-2     :     0.003375
      f+3     :     0.001126
      f-3     :     0.001513
 11 N s       :     3.374189  s :     3.374189
      pz      :     1.449257  p :     3.768096
      px      :     1.306103
      py      :     1.012736
      dz2     :     0.004994  d :     0.058109
      dxz     :     0.008215
      dyz     :     0.013739
      dx2y2   :     0.014411
      dxy     :     0.016750
      f0      :     0.000590  f :     0.004458
      f+1     :     0.000395
      f-1     :     0.000600
      f+2     :     0.000680
      f-2     :     0.000638
      f+3     :     0.000754
      f-3     :     0.000801
 12 C s       :     3.130032  s :     3.130032
      pz      :     0.877375  p :     2.618765
      px      :     0.865990
      py      :     0.875401
      dz2     :     0.031313  d :     0.182487
      dxz     :     0.034406
      dyz     :     0.044461
      dx2y2   :     0.023815
      dxy     :     0.048491
      f0      :     0.001018  f :     0.011245
      f+1     :     0.001634
      f-1     :     0.001538
      f+2     :     0.001462
      f-2     :     0.003059
      f+3     :     0.001221
      f-3     :     0.001313
 13 C s       :     3.100937  s :     3.100937
      pz      :     0.880342  p :     2.709239
      px      :     0.908145
      py      :     0.920752
      dz2     :     0.020121  d :     0.108989
      dxz     :     0.010102
      dyz     :     0.031740
      dx2y2   :     0.019704
      dxy     :     0.027321
      f0      :     0.001053  f :     0.011354
      f+1     :     0.001611
      f-1     :     0.001463
[...]
      f-1     :     0.005281
      f+2     :     0.007740
      f-2     :     0.004703
      f+3     :     0.006725
      f-3     :     0.006799
 15 C s       :     2.705905  s :     2.705905
      pz      :     0.922371  p :     2.797148
      px      :     0.908637
      py      :     0.966140
      dz2     :     0.106666  d :     0.417388
      dxz     :     0.069648
      dyz     :     0.070226
      dx2y2   :     0.103107
      dxy     :     0.067741
      f0      :     0.004062  f :     0.041068
      f+1     :     0.005665
      f-1     :     0.006829
      f+2     :     0.007588
      f-2     :     0.006180
      f+3     :     0.005537
      f-3     :     0.005207
 16 C s       :     2.701764  s :     2.701764
      pz      :     0.945023  p :     2.870471
      px      :     0.948855
      py      :     0.976593
      dz2     :     0.053939  d :     0.390191
      dxz     :     0.053812
      dyz     :     0.098055
      dx2y2   :     0.089074
      dxy     :     0.095312
      f0      :     0.004514  f :     0.040262
      f+1     :     0.004680
      f-1     :     0.005114
      f+2     :     0.006506
      f-2     :     0.004897
      f+3     :     0.008576
      f-3     :     0.005974
 17 C s       :     2.701726  s :     2.701726
      pz      :     0.858571  p :     2.680231
      px      :     0.818493
      py      :     1.003167
      dz2     :     0.140277  d :     0.708383
      dxz     :     0.101735
      dyz     :     0.160936
      dx2y2   :     0.148384
      dxy     :     0.157051
      f0      :     0.011711  f :     0.099208
      f+1     :     0.014288
      f-1     :     0.012215
      f+2     :     0.018023
      f-2     :     0.014090
      f+3     :     0.015940
      f-3     :     0.012940
 18 O s       :     3.177145  s :     3.177145
      pz      :     1.384375  p :     4.347078
      px      :     1.453775
      py      :     1.508928
      dz2     :     0.009687  d :     0.075476
      dxz     :     0.016577
      dyz     :     0.021989
      dx2y2   :     0.011714
      dxy     :     0.015508
      f0      :     0.000650  f :     0.005062
      f+1     :     0.000628
      f-1     :     0.000582
      f+2     :     0.000789
      f-2     :     0.001091
      f+3     :     0.000646
      f-3     :     0.000676
 19 C s       :     2.695125  s :     2.695125
      pz      :     0.943227  p :     2.845407
      px      :     0.937501
      py      :     0.964680
      dz2     :     0.087289  d :     0.387500
      dxz     :     0.068831
      dyz     :     0.072028
      dx2y2   :     0.089663
      dxy     :     0.069690
      f0      :     0.003955  f :     0.040769
      f+1     :     0.006140
      f-1     :     0.006405
      f+2     :     0.007442
      f-2     :     0.006726
      f+3     :     0.005333
      f-3     :     0.004768
 20 H s       :     0.845793  s :     0.845793
      pz      :     0.040495  p :     0.152269
      px      :     0.058007
      py      :     0.053767
      dz2     :     0.003374  d :     0.027735
      dxz     :     0.005823
      dyz     :     0.003365
      dx2y2   :     0.008441
      dxy     :     0.006732
 21 H s       :     0.849325  s :     0.849325
      pz      :     0.042127  p :     0.152020
      px      :     0.044957
      py      :     0.064936
      dz2     :     0.002770  d :     0.027521
      dxz     :     0.002500
      dyz     :     0.007338
      dx2y2   :     0.007070
      dxy     :     0.007844
 22 H s       :     0.847041  s :     0.847041
      pz      :     0.061980  p :     0.150268
      px      :     0.043225
      py      :     0.045063
      dz2     :     0.008392  d :     0.027599
      dxz     :     0.006795
      dyz     :     0.006377
      dx2y2   :     0.003024
      dxy     :     0.003012
 23 H s       :     0.854673  s :     0.854673
      pz      :     0.068078  p :     0.146725
      px      :     0.046775
      py      :     0.031872
      dz2     :     0.007784  d :     0.027183
      dxz     :     0.008215
      dyz     :     0.006104
      dx2y2   :     0.002422
      dxy     :     0.002658
 24 H s       :     0.854362  s :     0.854362
      pz      :     0.043551  p :     0.144499
      px      :     0.046801
      py      :     0.054146
      dz2     :     0.003471  d :     0.026978
      dxz     :     0.004541
      dyz     :     0.005345
      dx2y2   :     0.006075
      dxy     :     0.007546
 25 H s       :     0.826014  s :     0.826014
      pz      :     0.040027  p :     0.151210
      px      :     0.071689
      py      :     0.039493
      dz2     :     0.003150  d :     0.027750
      dxz     :     0.008499
      dyz     :     0.000475
      dx2y2   :     0.007613
      dxy     :     0.008013
 26 H s       :     0.825654  s :     0.825654
      pz      :     0.072854  p :     0.150984
      px      :     0.039420
      py      :     0.038710
      dz2     :     0.009529  d :     0.027765
      dxz     :     0.008784
      dyz     :     0.008256
      dx2y2   :     0.000922
      dxy     :     0.000274
 27 H s       :     0.845570  s :     0.845570
      pz      :     0.039940  p :     0.150393
      px      :     0.039271
      py      :     0.071182
      dz2     :     0.002879  d :     0.027709
      dxz     :     0.000201
      dyz     :     0.008748
      dx2y2   :     0.007103
      dxy     :     0.008778
 28 H s       :     0.742078  s :     0.742078
      pz      :     0.069937  p :     0.253859
      px      :     0.062582
      py      :     0.121339
      dz2     :     0.005245  d :     0.061852
      dxz     :     0.000532
      dyz     :     0.020637
      dx2y2   :     0.016138
      dxy     :     0.019299
 29 H s       :     0.749163  s :     0.749163
      pz      :     0.103115  p :     0.254214
      px      :     0.102788
      py      :     0.048311
      dz2     :     0.016600  d :     0.061416
      dxz     :     0.013900
      dyz     :     0.008180
      dx2y2   :     0.012230
      dxy     :     0.010506
 30 H s       :     0.833633  s :     0.833633
      pz      :     0.050237  p :     0.149208
      px      :     0.047244
      py      :     0.051727
      dz2     :     0.005298  d :     0.028507
      dxz     :     0.005760
      dyz     :     0.005929
      dx2y2   :     0.005017
      dxy     :     0.006503
 31 H s       :     0.845529  s :     0.845529
      pz      :     0.055281  p :     0.157290
      px      :     0.061332
      py      :     0.040678
      dz2     :     0.005843  d :     0.027554
      dxz     :     0.006255
      dyz     :     0.004571
      dx2y2   :     0.005488
      dxy     :     0.005396
 32 H s       :     0.843646  s :     0.843646
      pz      :     0.036483  p :     0.151398
      px      :     0.038591
      py      :     0.076323
      dz2     :     0.002725  d :     0.026464
      dxz     :     0.000489
      dyz     :     0.007726
      dx2y2   :     0.007658
      dxy     :     0.007866
 33 H s       :     0.848768  s :     0.848768
      pz      :     0.061180  p :     0.159220
      px      :     0.050638
      py      :     0.047402
      dz2     :     0.007043  d :     0.027772
      dxz     :     0.005533
      dyz     :     0.006216
      dx2y2   :     0.004645
      dxy     :     0.004336
 34 H s       :     0.706557  s :     0.706557
      pz      :     0.115540  p :     0.347853
      px      :     0.092504
      py      :     0.139809
      dz2     :     0.025090  d :     0.099584
      dxz     :     0.014134
      dyz     :     0.023825
      dx2y2   :     0.018004
      dxy     :     0.018530
 35 H s       :     0.838736  s :     0.838736
      pz      :     0.038021  p :     0.156948
      px      :     0.041049
      py      :     0.077878
      dz2     :     0.002786  d :     0.028037
      dxz     :     0.000511
      dyz     :     0.008366
      dx2y2   :     0.007902
      dxy     :     0.008472


                      *****************************
                      * MAYER POPULATION ANALYSIS *
                      *****************************

  NA   - Mulliken gross atomic population
  ZA   - Total nuclear charge
  QA   - Mulliken gross atomic charge
  VA   - Mayer's total valence
  BVA  - Mayer's bonded valence
  FA   - Mayer's free valence

  ATOM       NA         ZA         QA         VA         BVA        FA
  0 C      6.2827     6.0000    -0.2827     3.8807     3.8807    -0.0000
  1 C      5.9518     6.0000     0.0482     3.8746     3.8746     0.0000
  2 O      8.3699     8.0000    -0.3699     2.0448     2.0448    -0.0000
  3 C      5.5421     6.0000     0.4579     4.2063     4.2063    -0.0000
  4 O      8.4303     8.0000    -0.4303     2.0775     2.0775    -0.0000
  5 C      6.2029     6.0000    -0.2029     3.6651     3.6651    -0.0000
  6 C      5.8515     6.0000     0.1485     3.8837     3.8837    -0.0000
  7 C      6.2727     6.0000    -0.2727     3.9041     3.9041    -0.0000
  8 N      7.1207     7.0000    -0.1207     3.3067     3.3067     0.0000
  9 C      5.7873     6.0000     0.2127     4.1517     4.1517     0.0000
 10 S     16.4418    16.0000    -0.4418     1.7529     1.7529     0.0000
 11 N      7.2049     7.0000    -0.2049     3.2522     3.2522     0.0000
 12 C      5.9425     6.0000     0.0575     3.9422     3.9422     0.0000
 13 C      5.9305     6.0000     0.0695     3.7095     3.7095     0.0000
 14 C      6.1924     6.0000    -0.1924     3.8473     3.8473     0.0000
 15 C      6.1307     6.0000    -0.1307     3.7991     3.7991     0.0000
 16 C      6.2807     6.0000    -0.2807     3.7958     3.7958    -0.0000
 17 C      5.6834     6.0000     0.3166     3.8734     3.8734     0.0000
 18 O      8.3565     8.0000    -0.3565     2.1193     2.1193     0.0000
 19 C      6.2700     6.0000    -0.2700     3.8617     3.8617     0.0000
 20 H      0.8867     1.0000     0.1133     0.9848     0.9848     0.0000
 21 H      0.9051     1.0000     0.0949     0.9787     0.9787    -0.0000
 22 H      0.8962     1.0000     0.1038     0.9849     0.9849    -0.0000
 23 H      0.9070     1.0000     0.0930     0.9677     0.9677    -0.0000
 24 H      0.9041     1.0000     0.0959     0.9734     0.9734     0.0000
 25 H      0.8682     1.0000     0.1318     0.9802     0.9802     0.0000
 26 H      0.8699     1.0000     0.1301     0.9813     0.9813     0.0000
 27 H      0.9051     1.0000     0.0949     0.9860     0.9860    -0.0000
 28 H      0.8028     1.0000     0.1972     1.0230     1.0230    -0.0000
 29 H      0.8056     1.0000     0.1944     1.0191     1.0191    -0.0000
 30 H      0.8511     1.0000     0.1489     0.9946     0.9946     0.0000
 31 H      0.8491     1.0000     0.1509     0.9848     0.9848    -0.0000
 32 H      0.8394     1.0000     0.1606     0.9767     0.9767    -0.0000
 33 H      0.8700     1.0000     0.1300     0.9920     0.9920     0.0000
 34 H      0.7594     1.0000     0.2406     1.0107     1.0107    -0.0000
 35 H      0.8349     1.0000     0.1651     0.9871     0.9871     0.0000

  Mayer bond orders larger than 0.100000
B(  0-C ,  1-C ) :   0.9830 B(  0-C , 20-H ) :   0.9728 B(  0-C , 21-H ) :   0.9746 
B(  0-C , 22-H ) :   0.9751 B(  1-C ,  2-O ) :   0.8946 B(  1-C , 23-H ) :   0.9723 
B(  1-C , 24-H ) :   0.9811 B(  2-O ,  3-C ) :   1.1353 B(  3-C ,  4-O ) :   1.9771 
B(  3-C ,  5-C ) :   1.0678 B(  5-C ,  6-C ) :   1.6556 B(  5-C , 12-C ) :   0.9759 
B(  6-C ,  7-C ) :   0.9674 B(  6-C ,  8-N ) :   1.1610 B(  7-C , 25-H ) :   0.9600 
B(  7-C , 26-H ) :   0.9607 B(  7-C , 27-H ) :   0.9910 B(  8-N ,  9-C ) :   1.1837 
B(  8-N , 28-H ) :   0.9479 B(  9-C , 10-S ) :   1.6052 B(  9-C , 11-N ) :   1.3061 
B( 11-N , 12-C ) :   0.9846 B( 11-N , 29-H ) :   0.9516 B( 12-C , 13-C ) :   0.9358 
B( 12-C , 30-H ) :   1.0024 B( 13-C , 14-C ) :   1.3516 B( 13-C , 19-C ) :   1.3840 
B( 14-C , 15-C ) :   1.3909 B( 14-C , 31-H ) :   0.9724 B( 15-C , 16-C ) :   1.3626 
B( 15-C , 32-H ) :   0.9707 B( 16-C , 17-C ) :   1.3314 B( 16-C , 33-H ) :   0.9852 
B( 17-C , 18-O ) :   1.1103 B( 17-C , 19-C ) :   1.3716 B( 18-O , 34-H ) :   0.9799 
B( 19-C , 35-H ) :   0.9583 

-------
TIMINGS
-------

Total SCF time: 0 days 1 hours 28 min 15 sec 

Total time                  ....    5295.014 sec
Sum of individual times     ....    5287.383 sec  ( 99.9%)

Fock matrix formation       ....    5262.345 sec  ( 99.4%)
Diagonalization             ....       4.479 sec  (  0.1%)
Density matrix formation    ....       0.198 sec  (  0.0%)
Population analysis         ....       0.690 sec  (  0.0%)
Initial guess               ....       5.009 sec  (  0.1%)
Orbital Transformation      ....       0.000 sec  (  0.0%)
Orbital Orthonormalization  ....       0.000 sec  (  0.0%)
DIIS solution               ....       7.419 sec  (  0.1%)
SOSCF solution              ....       6.141 sec  (  0.1%)

------------------------------------------------------------------------------
                                ORCA  MP2 
------------------------------------------------------------------------------

Freezing NCore=48 chemical core electrons

-------------
RI-MP2 ENERGY
-------------
Dimension of the basis                    ...  828
Memory devoted to MP2                     ...  256 MB   
Data format for buffers                   ... DOUBLE
Compression type for matrix containers    ... UNCOMPRESSED
Overall scaling of the MP2 energy         ...   1.000e+00
Calculating two index integrals           ... done (    0.037 sec)
Cholesky decomposition of V**-1           ... done (    1.640 sec)

-----------------
RI-TRANSFORMATION (AUX index driven)
-----------------

Dimension of the orbital-basis         ... 828
Dimension of the aux-basis             ... 2141
Transformation of internal/external MOs...   24-  76 to   77- 827
Number Format for Storage              ... Double (8 Byte)
Integral mode                          ... Direct

First Phase: integral generation and transformation of MO indices
  Aux angular momentum 0               ... done (    8.630 sec)
  Aux angular momentum 1               ... done (   14.407 sec)
  Aux angular momentum 2               ... done (   18.011 sec)
  Aux angular momentum 3               ... done (   15.194 sec)
  Aux angular momentum 4               ... done (    5.153 sec)
Closing buffer VIA ( 0.63 GB; CompressionRatio= 1.00)
  Phase 1 completed in    61.582 sec
Second Phase: sorting and transformation of aux index

IA-Transformation
Memory available                       ... 167 MB 
Max. # MO pairs treated in a batch     ... 12    
# of internal orbitals                 ... 53
# batches for internal orbitals        ... 5
Closing buffer IAV ( 0.63 GB; CompressionRatio= 1.00)
(ia|v) transformation done in    73.556 sec

  Phase 2 completed in    73.572 sec
RI-Integral transformation completed in   135.170 sec
Opening buffers                              ... done

Starting loop over batches of integrals:

Operator 0  - window                       ... ( 24- 76)x( 77-827)
Operator 0  - Memory available             ...   256 MB
Operator 0  - Memory needed per MO         ...  12.3 MB
Operator 0  - Number of orbitals per batch ... 13
Operator 0  - Number of batches            ... 5

OPERATOR  0   PASS   0:  MOs    24 ...   36
  Reading integrals       ... ok
  Internal MO  26
  Internal MO  29
  Internal MO  32
  Internal MO  35
OPERATOR  0   PASS   1:  MOs    37 ...   49
  Reading integrals       ... ok
  Internal MO  38
  Internal MO  41
  Internal MO  44
  Internal MO  47
OPERATOR  0   PASS   2:  MOs    50 ...   62
  Reading integrals       ... ok
  Internal MO  50
  Internal MO  53
  Internal MO  56
  Internal MO  59
  Internal MO  62
OPERATOR  0   PASS   3:  MOs    63 ...   75
  Reading integrals       ... ok
  Internal MO  65
  Internal MO  68
  Internal MO  71
  Internal MO  74
OPERATOR  0   PASS   4:  MOs    76 ...   76
  Reading integrals       ... ok
Time spent in pair loops =   496.513 sec
Deleting buffer (Ka|jb)[aa] ...done

-----------------------------------------------
 RI-MP2 CORRELATION ENERGY:     -3.530915583 Eh
-----------------------------------------------


-------
TIMINGS
-------

Total time                :  633.721 sec
Integral trafo            :  135.180 sec ( 21.3%)
I/O of integrals          :    5.956 sec (  0.9%)
K(i,j) Operators          :  389.492 sec ( 61.5%)
T(i,j) pair energies      :    3.630 sec (  0.6%)
V-calculation             :    0.037 sec (  0.0%)
V**(-1/2)                 :    1.640 sec (  0.3%)
Gamma(ia|P)               :    0.000 sec (  0.0%)
Gamma-Trafo               :    0.000 sec (  0.0%)
D(virtual)                :    0.000 sec (  0.0%)
D(internal)               :    0.000 sec (  0.0%)
W(virtual)                :    0.000 sec (  0.0%)
W(internal)               :    0.000 sec (  0.0%)
L(virtual)                :    0.000 sec (  0.0%)
L(internal)               :    0.000 sec (  0.0%)
G(D)                      :    0.000 sec (  0.0%)
G(Z)                      :    0.000 sec (  0.0%)
Z-Vector Solution         :    0.000 sec (  0.0%)
3-Index Derivative        :    0.000 sec (  0.0%)
2-Index Derivative        :    0.000 sec (  0.0%)
Separable Gradient        :    0.000 sec (  0.0%)


---------------------------------------
MP2 TOTAL ENERGY:    -1274.338564006 Eh
---------------------------------------

-------------------------   --------------------
FINAL SINGLE POINT ENERGY     -1274.338564006164
-------------------------   --------------------


                            ***************************************
                            *     ORCA property calculations      *
                            ***************************************


  WARNING: The energy has been calculated at the MP2 level but the densities
           used in the property calculations are still SCF densities
           MP2 response densities have not been calculated 
           use %mp2 Density relaxed end
           or  %mp2 Density unrelaxed end

                                    ---------------------
                                    Active property flags
                                    ---------------------
   (+) Dipole Moment


------------------------------------------------------------------------------
                       ORCA ELECTRIC PROPERTIES CALCULATION
------------------------------------------------------------------------------

Dipole Moment Calculation                       ... on
Quadrupole Moment Calculation                   ... off
Polarizability Calculation                      ... off
GBWName                                         ... CONFS/Conf556.orca.gbw
Electron density file                           ... CONFS/Conf556.orca.scfp
The origin for moment calculation is the CENTER OF MASS  = (32.889833, 31.521432 35.374387)

-------------
DIPOLE MOMENT
-------------
                                X             Y             Z
Electronic contribution:     10.05710      10.12159       9.22185
Nuclear contribution   :    -11.07767     -11.91725      -9.56127
                        -----------------------------------------
Total Dipole Moment    :     -1.02057      -1.79566      -0.33942
                        -----------------------------------------
Magnitude (a.u.)       :      2.09312
Magnitude (Debye)      :      5.32029



--------------------
Rotational spectrum 
--------------------
 
Rotational constants in cm-1:     0.011433     0.008715     0.006068 
Rotational constants in MHz :   342.757028   261.271902   181.906931 

 Dipole components along the rotational axes: 
x,y,z [a.u.] :    -2.083074    -0.187796    -0.081786 
x,y,z [Debye]:    -5.294752    -0.477339    -0.207883 

 

Timings for individual modules:

Sum of individual times         ...     5930.784 sec (=  98.846 min)
GTO integral calculation        ...        1.586 sec (=   0.026 min)   0.0 %
SCF iterations                  ...     5295.099 sec (=  88.252 min)  89.3 %
MP2 module                      ...      634.099 sec (=  10.568 min)  10.7 %
                             ****ORCA TERMINATED NORMALLY****
TOTAL RUN TIME: 0 days 1 hours 38 minutes 51 seconds 684 msec
