
                                 *****************
                                 * O   R   C   A *
                                 *****************

           --- An Ab Initio, DFT and Semiempirical electronic structure package ---

                  #######################################################
                  #                        -***-                        #
                  #          Department of theory and spectroscopy      #
                  #               Directorship: Frank Neese             #
                  #        Max Planck Institute fuer Kohlenforschung    #
                  #                Kaiser Wilhelm Platz 1               #
                  #                 D-45470 Muelheim/Ruhr               #
                  #                      Germany                        #
                  #                                                     #
                  #                  All rights reserved                #
                  #                        -***-                        #
                  #######################################################


                         Program Version 4.2.0 -  RELEASE  -


 With contributions from (in alphabetic order):
   Daniel Aravena         : Magnetic Suceptibility
   Michael Atanasov       : Ab Initio Ligand Field Theory (pilot matlab implementation)
   Alexander A. Auer      : GIAO ZORA, VPT2
   Ute Becker             : Parallelization
   Giovanni Bistoni       : ED, misc. LED, open-shell LED, HFLED
   Martin Brehm           : Molecular dynamics
   Dmytro Bykov           : SCF Hessian
   Vijay G. Chilkuri      : MRCI spin determinant printing, contributions to CSF-ICE
   Dipayan Datta          : RHF DLPNO-CCSD density
   Achintya Kumar Dutta   : EOM-CC, STEOM-CC
   Dmitry Ganyushin       : Spin-Orbit,Spin-Spin,Magnetic field MRCI
   Miquel Garcia          : C-PCM Hessian, Gaussian charge scheme
   Yang Guo               : DLPNO-NEVPT2, CIM, IAO-localization
   Andreas Hansen         : Spin unrestricted coupled pair/coupled cluster methods
   Benjamin Helmich-Paris : CASSCF linear response (MC-RPA)
   Lee Huntington         : MR-EOM, pCC
   Robert Izsak           : Overlap fitted RIJCOSX, COSX-SCS-MP3, EOM
   Christian Kollmar      : KDIIS, OOCD, Brueckner-CCSD(T), CCSD density
   Simone Kossmann        : Meta GGA functionals, TD-DFT gradient, OOMP2, MP2 Hessian
   Martin Krupicka        : AUTO-CI
   Lucas Lang             : DCDCAS
   Dagmar Lenk            : GEPOL surface, SMD
   Dimitrios Liakos       : Extrapolation schemes; Compound Job, initial MDCI parallelization
   Dimitrios Manganas     : Further ROCIS development; embedding schemes
   Dimitrios Pantazis     : SARC Basis sets
   Taras Petrenko         : DFT Hessian,TD-DFT gradient, ASA, ECA, R-Raman, ABS, FL, XAS/XES, NRVS
   Peter Pinski           : DLPNO-MP2, DLPNO-MP2 Gradient
   Christoph Reimann      : Effective Core Potentials
   Marius Retegan         : Local ZFS, SOC
   Christoph Riplinger    : Optimizer, TS searches, QM/MM, DLPNO-CCSD(T), (RO)-DLPNO pert. Triples
   Tobias Risthaus        : Range-separated hybrids, TD-DFT gradient, RPA, STAB
   Michael Roemelt        : Original ROCIS implementation
   Masaaki Saitow         : Open-shell DLPNO-CCSD energy and density
   Barbara Sandhoefer     : DKH picture change effects
   Avijit Sen             : IP-ROCIS
   Kantharuban Sivalingam : CASSCF convergence, NEVPT2, FIC-MRCI
   Bernardo de Souza      : ESD, SOC TD-DFT
   Georgi Stoychev        : AutoAux, RI-MP2 NMR
   Willem Van den Heuvel  : Paramagnetic NMR
   Boris Wezisla          : Elementary symmetry handling
   Frank Wennmohs         : Technical directorship


 We gratefully acknowledge several colleagues who have allowed us to
 interface, adapt or use parts of their codes:
   Stefan Grimme, W. Hujo, H. Kruse,             : VdW corrections, initial TS optimization,
                  C. Bannwarth                     DFT functionals, gCP, sTDA/sTD-DF
   Ed Valeev, F. Pavosevic, A. Kumar             : LibInt (2-el integral package), F12 methods
   Garnet Chan, S. Sharma, J. Yang, R. Olivares  : DMRG
   Ulf Ekstrom                                   : XCFun DFT Library
   Mihaly Kallay                                 : mrcc  (arbitrary order and MRCC methods)
   Andreas Klamt, Michael Diedenhofen            : otool_cosmo (COSMO solvation model)
   Jiri Pittner, Ondrej Demel                    : Mk-CCSD
   Frank Weinhold                                : gennbo (NPA and NBO analysis)
   Christopher J. Cramer and Donald G. Truhlar   : smd solvation model
   Lars Goerigk                                  : TD-DFT with DH, B97 family of functionals
   V. Asgeirsson, H. Jonsson                     : NEB implementation
   FAccTs GmbH                                   : IRC, NEB, NEB-TS, Multilevel, MM, QM/MM, CI optimization
   S Lehtola, MJT Oliveira, MAL Marques          : LibXC Library


 Your calculation uses the libint2 library for the computation of 2-el integrals
 For citations please refer to: http://libint.valeyev.net

 Your ORCA version has been built with support for libXC version: 4.2.3
 For citations please refer to: https://tddft.org/programs/libxc/

 This ORCA versions uses:
   CBLAS   interface :  Fast vector & matrix operations
   LAPACKE interface :  Fast linear algebra routines
   SCALAPACK package :  Parallel linear algebra routines


----- Orbital basis set information -----
Your calculation utilizes the basis: cc-pVTZ 
       H, B-Ne : Obtained from the ccRepo (grant-hill.group.shef.ac.uk/ccrepo) Feb. 2017
                 T. H. Dunning, Jr., J. Chem. Phys. 90, 1007 (1989)
            He : Obtained from the ccRepo (grant-hill.group.shef.ac.uk/ccrepo) Feb. 2017
                 D. E. Woon, T. H. Dunning, Jr., J. Chem. Phys. 100, 2975 (1994)
  Li-Be, Na-Mg : Obtained from the ccRepo (grant-hill.group.shef.ac.uk/ccrepo) Feb. 2017
                 B. P. Prascher, D. E. Woon, K. A. Peterson, T. H. Dunning, Jr., A. K. Wilson, Theor. Chem. Acc. 128, 69 (2011)
         Al-Ar : Obtained from the ccRepo (grant-hill.group.shef.ac.uk/ccrepo) Feb. 2017
                 D. E. Woon, T. H. Dunning, Jr., J. Chem. Phys. 98, 1358 (1993)
            Ca : Obtained from the Peterson Research Group Website (tyr0.chem.wsu.edu/~kipeters) Feb. 2017
                 J. Koput, K. A. Peterson, J. Phys. Chem. 106, 9595 (2002)
         Sc-Zn : Obtained from the ccRepo (grant-hill.group.shef.ac.uk/ccrepo) Feb. 2017
                 N. B. Balabanov, K. A. Peterson, J. Chem. Phys. 123, 064107 (2005)
                 N. B. Balabanov, K. A. Peterson, J. Chem. Phys. 125, 074110 (2006)
         Ga-Kr : Obtained from the ccRepo (grant-hill.group.shef.ac.uk/ccrepo) Feb. 2017
                 A. K. Wilson, D. E. Woon, K. A. Peterson, T. H. Dunning, Jr., J. Chem. Phys. 110, 7667 (1999)
             Y : Obtained from the ccRepo (grant-hill.group.shef.ac.uk/ccrepo) Feb. 2017
                 K. A. Peterson, D. Figgen, M. Dolg, H. Stoll, J. Chem. Phys. 126, 124101 (2007)
        Ag, Au : Obtained from the Peterson Research Group Website (tyr0.chem.wsu.edu/~kipeters) Feb. 2017
                 K. A. Peterson, C. Puzzarini, Theor. Chem. Acc. 114, 283 (2005)

----- AuxC basis set information -----
Your calculation utilizes the auxiliary basis: cc-pVTZ/C 
  Obtained from the EMSL Basis Set Exchange (bse.pnl.gov) Feb. 2017
  H-He, B-F, Al-Ar, Ga-Kr : F. Weigend, A. Kohn, C. Hattig, J. Chem. Phys. 116, 3175 (2002)
             Li-Be, Na-Mg : C. Haettig, Phys. Chem. Chem. Phys. 7, 59 (2005)
                       Ne : C. Haettig, Phys. Chem. Chem. Phys. 7, 59 (2005)
                            F. Weigend, A. Kohn, C. Hattig, J. Chem. Phys. 116, 3175 (2002)
                    Sc-Zn : J. G. Hill, J. A. Platts, J. Chem. Phys. 128, 044104 (2008)

================================================================================
                                        WARNINGS
                       Please study these warnings very carefully!
================================================================================


WARNING: No MP2 level density has been requested!
         To caclulate MP2 level properties use
         %mp2 Density relaxed end
         or
         %mp2 Density unrelaxed end

WARNING: Post HF methods need fully converged wavefunctions
  ===> : Setting SCFConvForced true
         You can overwrite this default with %scf ConvForced false 


INFO   : the flag for use of LIBINT has been found!

================================================================================
                                       INPUT FILE
================================================================================
NAME = CONFS/Conf766.orca
|  1> ! ri-mp2 cc-pvtz cc-pvtz/c TightSCF  NoKeepInts
|  2> 
|  3> %scf
|  4>   MaxCore 4096
|  5> end
|  6> *xyz  0  1
|  7>     C       15.0723221   13.9862416   15.9608959
|  8>     C       16.0644913   14.5574541   16.9881125
|  9>     O       17.1330736   15.1868494   16.2582105
| 10>     C       17.1209694   16.5463650   16.1485946
| 11>     O       16.4880510   17.0668945   15.2486802
| 12>     C       17.6074835   17.2820675   17.3710393
| 13>     C       17.3554253   18.6025074   17.5691450
| 14>     C       16.4870962   19.5125074   16.7268565
| 15>     N       17.9753530   19.2813665   18.6233082
| 16>     C       19.0224564   18.7846250   19.3538149
| 17>     S       19.8507008   19.7119077   20.4444060
| 18>     N       19.3610375   17.4764112   19.1168928
| 19>     C       18.5357565   16.5311038   18.3438722
| 20>     C       17.7997231   15.6222910   19.3225575
| 21>     C       18.2499571   14.3058091   19.5371887
| 22>     C       17.5826137   13.4598019   20.4388019
| 23>     C       16.4614293   13.9361394   21.1392265
| 24>     C       16.0204306   15.2514645   20.9412675
| 25>     O       14.9404832   15.7162665   21.6177295
| 26>     C       16.6848111   16.0905885   20.0415627
| 27>     H       14.6471381   14.7899982   15.3461078
| 28>     H       14.2485903   13.4681052   16.4664122
| 29>     H       15.5727594   13.2719953   15.2952928
| 30>     H       15.5537862   15.2654619   17.6543532
| 31>     H       16.4601687   13.7303356   17.5903298
| 32>     H       15.4871264   19.0803482   16.5939375
| 33>     H       16.9219441   19.6422107   15.7273506
| 34>     H       16.3578891   20.5088100   17.1656208
| 35>     H       17.7504287   20.2488979   18.7926962
| 36>     H       20.1245248   17.1305021   19.6838212
| 37>     H       19.2140036   15.9103227   17.7410930
| 38>     H       19.1178830   13.9342225   18.9983220
| 39>     H       17.9366485   12.4419614   20.5954287
| 40>     H       15.9438609   13.2867508   21.8380112
| 41>     H       14.6636288   15.0249887   22.2383480
| 42>     H       16.3329546   17.1084268   19.9147121
| 43> *
| 44> 
| 45>                          ****END OF INPUT****
================================================================================

                       ****************************
                       * Single Point Calculation *
                       ****************************

---------------------------------
CARTESIAN COORDINATES (ANGSTROEM)
---------------------------------
  C     15.072322   13.986242   15.960896
  C     16.064491   14.557454   16.988112
  O     17.133074   15.186849   16.258211
  C     17.120969   16.546365   16.148595
  O     16.488051   17.066895   15.248680
  C     17.607484   17.282067   17.371039
  C     17.355425   18.602507   17.569145
  C     16.487096   19.512507   16.726857
  N     17.975353   19.281367   18.623308
  C     19.022456   18.784625   19.353815
  S     19.850701   19.711908   20.444406
  N     19.361037   17.476411   19.116893
  C     18.535756   16.531104   18.343872
  C     17.799723   15.622291   19.322557
  C     18.249957   14.305809   19.537189
  C     17.582614   13.459802   20.438802
  C     16.461429   13.936139   21.139226
  C     16.020431   15.251465   20.941267
  O     14.940483   15.716266   21.617729
  C     16.684811   16.090588   20.041563
  H     14.647138   14.789998   15.346108
  H     14.248590   13.468105   16.466412
  H     15.572759   13.271995   15.295293
  H     15.553786   15.265462   17.654353
  H     16.460169   13.730336   17.590330
  H     15.487126   19.080348   16.593937
  H     16.921944   19.642211   15.727351
  H     16.357889   20.508810   17.165621
  H     17.750429   20.248898   18.792696
  H     20.124525   17.130502   19.683821
  H     19.214004   15.910323   17.741093
  H     19.117883   13.934223   18.998322
  H     17.936649   12.441961   20.595429
  H     15.943861   13.286751   21.838011
  H     14.663629   15.024989   22.238348
  H     16.332955   17.108427   19.914712

----------------------------
CARTESIAN COORDINATES (A.U.)
----------------------------
  NO LB      ZA    FRAG     MASS         X           Y           Z
   0 C     6.0000    0    12.011   28.482561   26.430166   30.161722
   1 C     6.0000    0    12.011   30.357489   27.509601   32.102880
   2 O     8.0000    0    15.999   32.376817   28.698986   30.723565
   3 C     6.0000    0    12.011   32.353943   31.268098   30.516421
   4 O     8.0000    0    15.999   31.157901   32.251757   28.815829
   5 C     6.0000    0    12.011   33.273322   32.658375   32.826507
   6 C     6.0000    0    12.011   32.797001   35.153644   33.200872
   7 C     6.0000    0    12.011   31.156097   36.873295   31.609178
   8 N     7.0000    0    14.007   33.968494   36.436502   35.192952
   9 C     6.0000    0    12.011   35.947233   35.497797   36.573410
  10 S    16.0000    0    32.060   37.512388   37.250107   38.634328
  11 N     7.0000    0    14.007   36.587059   33.025631   36.125692
  12 C     6.0000    0    12.011   35.027503   31.239259   34.664895
  13 C     6.0000    0    12.011   33.636602   29.521852   36.514342
  14 C     6.0000    0    12.011   34.487421   27.034061   36.919936
  15 C     6.0000    0    12.011   33.226325   25.435339   38.623738
  16 C     6.0000    0    12.011   31.107593   26.335487   39.947349
  17 C     6.0000    0    12.011   30.274226   28.821091   39.573260
  18 O     8.0000    0    15.999   28.233422   29.699440   40.851588
  19 C     6.0000    0    12.011   31.529724   30.406806   37.873065
  20 H     1.0000    0     1.008   27.679080   27.949046   28.999941
  21 H     1.0000    0     1.008   26.925933   25.451030   31.117009
  22 H     1.0000    0     1.008   29.428250   25.080436   28.903915
  23 H     1.0000    0     1.008   29.392396   28.847542   33.361893
  24 H     1.0000    0     1.008   31.105211   25.946574   33.240906
  25 H     1.0000    0     1.008   29.266427   36.056633   31.357997
  26 H     1.0000    0     1.008   31.977840   37.118399   29.720385
  27 H     1.0000    0     1.008   30.911931   38.756034   32.438322
  28 H     1.0000    0     1.008   33.543449   38.264872   35.513049
  29 H     1.0000    0     1.008   38.029840   32.371958   37.197031
  30 H     1.0000    0     1.008   36.309205   30.066153   33.525807
  31 H     1.0000    0     1.008   36.127563   26.331864   35.901626
  32 H     1.0000    0     1.008   33.895353   23.511900   38.919720
  33 H     1.0000    0     1.008   30.129531   25.108320   41.267860
  34 H     1.0000    0     1.008   27.710243   28.393114   42.024387
  35 H     1.0000    0     1.008   30.864811   32.330241   37.633352

--------------------------------
INTERNAL COORDINATES (ANGSTROEM)
--------------------------------
 C      0   0   0     0.000000000000     0.00000000     0.00000000
 C      1   0   0     1.538134384539     0.00000000     0.00000000
 O      2   1   0     1.439014768909   107.61902502     0.00000000
 C      3   2   1     1.363981240279   118.04211356   101.55210448
 O      4   3   2     1.217120613890   119.36078824   274.06789691
 C      4   3   2     1.507423358769   114.73483274    78.85767524
 C      6   4   3     1.358801212125   122.18379968   196.86082374
 C      7   6   4     1.513785104676   127.55008888     5.78406872
 N      7   6   4     1.398720873911   119.95401648   188.54677262
 C      9   7   6     1.369969958378   124.37794370    12.42892589
 S     10   9   7     1.653853360867   122.07959681   171.25378973
 N     10   9   7     1.371930242125   116.25058833   352.17263609
 C     12  10   9     1.473857407445   124.33152754   348.03761266
 C     13  12  10     1.524962552916   108.41483912   258.20358936
 C     14  13  12     1.407800340885   120.05188921   257.15734170
 C     15  14  13     1.404984611442   120.59846994   179.83473295
 C     16  15  14     1.405185572440   119.65242999   359.54463219
 C     17  16  15     1.401337838557   119.92457802   359.63153437
 O     18  17  16     1.356439502305   120.11472970   180.15598476
 C     18  17  16     1.398212881967   120.30944951     0.49089982
 H      1   2   3     1.097620386929   110.60903806   298.32476598
 H      1   2   3     1.096606646388   110.61855484   178.38957614
 H      1   2   3     1.097092865269   110.65304243    58.31267723
 H      2   1   3     1.098167297985   110.15798468   122.09528371
 H      2   1   3     1.096973698104   108.61964640   241.06140448
 H      8   7   6     1.097437303730   110.69159268    52.97159322
 H      8   7   6     1.097691981523   110.51407109   294.25113005
 H      8   7   6     1.096278913603   113.03125541   173.49037375
 H      9   7   6     1.007670702790   119.58863513   182.96232001
 H     12  10   9     1.011915892479   114.54527447   181.22348170
 H     13  12  10     1.099423060850   107.71456024   141.28046889
 H     15  14  13     1.087082926717   119.96115735   359.47224149
 H     16  15  14     1.088977445831   120.04567872   179.79417548
 H     17  16  15     1.085303026552   119.90813344   180.10875872
 H     19  18  17     0.969371279807   107.59641212     4.85356114
 H     20  18  17     1.084384099966   118.97346542   180.78476010

---------------------------
INTERNAL COORDINATES (A.U.)
---------------------------
 C      0   0   0     0.000000000000     0.00000000     0.00000000
 C      1   0   0     2.906652743946     0.00000000     0.00000000
 O      2   1   0     2.719343815907   107.61902502     0.00000000
 C      3   2   1     2.577550995934   118.04211356   101.55210448
 O      4   3   2     2.300024632202   119.36078824   274.06789691
 C      4   3   2     2.848617315950   114.73483274    78.85767524
 C      6   4   3     2.567762161356   122.18379968   196.86082374
 C      7   6   4     2.860639273447   127.55008888     5.78406872
 N      7   6   4     2.643199389491   119.95401648   188.54677262
 C      9   7   6     2.588868033034   124.37794370    12.42892589
 S     10   9   7     3.125329917703   122.07959681   171.25378973
 N     10   9   7     2.592572432460   116.25058833   352.17263609
 C     12  10   9     2.785186860522   124.33152754   348.03761266
 C     13  12  10     2.881761589496   108.41483912   258.20358936
 C     14  13  12     2.660357095514   120.05188921   257.15734170
 C     15  14  13     2.655036138000   120.59846994   179.83473295
 C     16  15  14     2.655415899250   119.65242999   359.54463219
 C     17  16  15     2.648144735975   119.92457802   359.63153437
 O     18  17  16     2.563299176590   120.11472970   180.15598476
 C     18  17  16     2.642239423839   120.30944951     0.49089982
 H      1   2   3     2.074201930304   110.60903806   298.32476598
 H      1   2   3     2.072286238311   110.61855484   178.38957614
 H      1   2   3     2.073205058838   110.65304243    58.31267723
 H      2   1   3     2.075235442420   110.15798468   122.09528371
 H      2   1   3     2.072979865532   108.61964640   241.06140448
 H      8   7   6     2.073855953198   110.69159268    52.97159322
 H      8   7   6     2.074337224480   110.51407109   294.25113005
 H      8   7   6     2.071666913103   113.03125541   173.49037375
 H      9   7   6     1.904221661448   119.58863513   182.96232001
 H     12  10   9     1.912243907347   114.54527447   181.22348170
 H     13  12  10     2.077608490323   107.71456024   141.28046889
 H     15  14  13     2.054289016356   119.96115735   359.47224149
 H     16  15  14     2.057869138638   120.04567872   179.79417548
 H     17  16  15     2.050925492499   119.90813344   180.10875872
 H     19  18  17     1.831846240924   107.59641212     4.85356114
 H     20  18  17     2.049188972915   118.97346542   180.78476010

---------------------
BASIS SET INFORMATION
---------------------
There are 5 groups of distinct atoms

 Group   1 Type C   : 18s5p2d1f contracted to 4s3p2d1f pattern {8811/311/11/1}
 Group   2 Type O   : 18s5p2d1f contracted to 4s3p2d1f pattern {8811/311/11/1}
 Group   3 Type N   : 18s5p2d1f contracted to 4s3p2d1f pattern {8811/311/11/1}
 Group   4 Type S   : 41s16p2d1f contracted to 5s4p2d1f pattern {13131311/7711/11/1}
 Group   5 Type H   : 5s2p1d contracted to 3s2p1d pattern {311/11/1}

Atom   0C    basis set group =>   1
Atom   1C    basis set group =>   1
Atom   2O    basis set group =>   2
Atom   3C    basis set group =>   1
Atom   4O    basis set group =>   2
Atom   5C    basis set group =>   1
Atom   6C    basis set group =>   1
Atom   7C    basis set group =>   1
Atom   8N    basis set group =>   3
Atom   9C    basis set group =>   1
Atom  10S    basis set group =>   4
Atom  11N    basis set group =>   3
Atom  12C    basis set group =>   1
Atom  13C    basis set group =>   1
Atom  14C    basis set group =>   1
Atom  15C    basis set group =>   1
Atom  16C    basis set group =>   1
Atom  17C    basis set group =>   1
Atom  18O    basis set group =>   2
Atom  19C    basis set group =>   1
Atom  20H    basis set group =>   5
Atom  21H    basis set group =>   5
Atom  22H    basis set group =>   5
Atom  23H    basis set group =>   5
Atom  24H    basis set group =>   5
Atom  25H    basis set group =>   5
Atom  26H    basis set group =>   5
Atom  27H    basis set group =>   5
Atom  28H    basis set group =>   5
Atom  29H    basis set group =>   5
Atom  30H    basis set group =>   5
Atom  31H    basis set group =>   5
Atom  32H    basis set group =>   5
Atom  33H    basis set group =>   5
Atom  34H    basis set group =>   5
Atom  35H    basis set group =>   5
---------------------------------
AUXILIARY/C BASIS SET INFORMATION
---------------------------------
There are 5 groups of distinct atoms

 Group   1 Type C   : 8s6p5d3f1g contracted to 8s6p5d3f1g pattern {11111111/111111/11111/111/1}
 Group   2 Type O   : 8s6p5d3f1g contracted to 8s6p5d3f1g pattern {11111111/111111/11111/111/1}
 Group   3 Type N   : 8s6p5d3f1g contracted to 8s6p5d3f1g pattern {11111111/111111/11111/111/1}
 Group   4 Type S   : 10s8p7d5f2g contracted to 10s8p7d5f2g pattern {1111111111/11111111/1111111/11111/11}
 Group   5 Type H   : 4s3p2d1f contracted to 4s3p2d1f pattern {1111/111/11/1}

Atom   0C    basis set group =>   1
Atom   1C    basis set group =>   1
Atom   2O    basis set group =>   2
Atom   3C    basis set group =>   1
Atom   4O    basis set group =>   2
Atom   5C    basis set group =>   1
Atom   6C    basis set group =>   1
Atom   7C    basis set group =>   1
Atom   8N    basis set group =>   3
Atom   9C    basis set group =>   1
Atom  10S    basis set group =>   4
Atom  11N    basis set group =>   3
Atom  12C    basis set group =>   1
Atom  13C    basis set group =>   1
Atom  14C    basis set group =>   1
Atom  15C    basis set group =>   1
Atom  16C    basis set group =>   1
Atom  17C    basis set group =>   1
Atom  18O    basis set group =>   2
Atom  19C    basis set group =>   1
Atom  20H    basis set group =>   5
Atom  21H    basis set group =>   5
Atom  22H    basis set group =>   5
Atom  23H    basis set group =>   5
Atom  24H    basis set group =>   5
Atom  25H    basis set group =>   5
Atom  26H    basis set group =>   5
Atom  27H    basis set group =>   5
Atom  28H    basis set group =>   5
Atom  29H    basis set group =>   5
Atom  30H    basis set group =>   5
Atom  31H    basis set group =>   5
Atom  32H    basis set group =>   5
Atom  33H    basis set group =>   5
Atom  34H    basis set group =>   5
Atom  35H    basis set group =>   5
------------------------------------------------------------------------------
                           ORCA GTO INTEGRAL CALCULATION
------------------------------------------------------------------------------

                         BASIS SET STATISTICS AND STARTUP INFO

 # of primitive gaussian shells          ...  682
 # of primitive gaussian functions       ... 1312
 # of contracted shells                  ...  298
 # of contracted basis functions         ...  828
 Highest angular momentum                ...    3
 Maximum contraction depth               ...   13
 Integral package used                   ... LIBINT
 Integral threshhold            Thresh   ...  2.500e-11
 Primitive cut-off              TCut     ...  2.500e-12


------------------------------ INTEGRAL EVALUATION ----------------------------


 * One electron integrals 
 Pre-screening matrix                    ... done
 Shell pair data                         ... done (   0.013 sec)

-------------------------------------------------------------------------------
                                 ORCA SCF
-------------------------------------------------------------------------------

------------
SCF SETTINGS
------------
Hamiltonian:
 Ab initio Hamiltonian  Method          .... Hartree-Fock(GTOs)


General Settings:
 Integral files         IntName         .... CONFS/Conf766.orca
 Hartree-Fock type      HFTyp           .... RHF
 Total Charge           Charge          ....    0
 Multiplicity           Mult            ....    1
 Number of Electrons    NEL             ....  154
 Basis Dimension        Dim             ....  828
 Nuclear Repulsion      ENuc            ....   1720.7919371944 Eh

Convergence Acceleration:
 DIIS                   CNVDIIS         .... on
   Start iteration      DIISMaxIt       ....    12
   Startup error        DIISStart       ....  0.200000
   # of expansion vecs  DIISMaxEq       ....     5
   Bias factor          DIISBfac        ....   1.050
   Max. coefficient     DIISMaxC        ....  10.000
 Newton-Raphson         CNVNR           .... off
 SOSCF                  CNVSOSCF        .... on
   Start iteration      SOSCFMaxIt      ....   150
   Startup grad/error   SOSCFStart      ....  0.003300
 Level Shifting         CNVShift        .... on
   Level shift para.    LevelShift      ....    0.2500
   Turn off err/grad.   ShiftErr        ....    0.0010
 Zerner damping         CNVZerner       .... off
 Static damping         CNVDamp         .... on
   Fraction old density DampFac         ....    0.7000
   Max. Damping (<1)    DampMax         ....    0.9800
   Min. Damping (>=0)   DampMin         ....    0.0000
   Turn off err/grad.   DampErr         ....    0.1000
 Fernandez-Rico         CNVRico         .... off

SCF Procedure:
 Maximum # iterations   MaxIter         ....   125
 SCF integral mode      SCFMode         .... Direct
   Integral package                     .... LIBINT
 Reset frequency        DirectResetFreq ....    20
 Integral Threshold     Thresh          ....  2.500e-11 Eh
 Primitive CutOff       TCut            ....  2.500e-12 Eh

Convergence Tolerance:
 Convergence Check Mode ConvCheckMode   .... Total+1el-Energy
 Convergence forced     ConvForced      .... 1
 Energy Change          TolE            ....  1.000e-08 Eh
 1-El. energy change                    ....  1.000e-05 Eh
 Orbital Gradient       TolG            ....  1.000e-05
 Orbital Rotation angle TolX            ....  1.000e-05
 DIIS Error             TolErr          ....  5.000e-07


Diagonalization of the overlap matrix:
Smallest eigenvalue                        ... 3.111e-05
Time for diagonalization                   ...    0.299 sec
Threshold for overlap eigenvalues          ... 1.000e-08
Number of eigenvalues below threshold      ... 0
Time for construction of square roots      ...    0.346 sec
Total time needed                          ...    0.647 sec

-------------------
DFT GRID GENERATION
-------------------

General Integration Accuracy     IntAcc      ...  4.340
Radial Grid Type                 RadialGrid  ... Gauss-Chebyshev
Angular Grid (max. acc.)         AngularGrid ... Lebedev-110
Angular grid pruning method      GridPruning ... 3 (G Style)
Weight generation scheme         WeightScheme... Becke
Basis function cutoff            BFCut       ...    1.0000e-11
Integration weight cutoff        WCut        ...    1.0000e-14
Grids for H and He will be reduced by one unit

# of grid points (after initial pruning)     ...  46246 (   0.0 sec)
# of grid points (after weights+screening)   ...  41235 (   0.3 sec)
nearest neighbour list constructed           ...    0.0 sec
Grid point re-assignment to atoms done       ...    0.0 sec
Grid point division into batches done        ...    0.0 sec
Reduced shell lists constructed in    0.8 sec

Total number of grid points                  ...    41235
Total number of batches                      ...      661
Average number of points per batch           ...       62
Average number of grid points per atom       ...     1145
Average number of shells per batch           ...   151.78 (50.93%)
Average number of basis functions per batch  ...   386.75 (46.71%)
Average number of large shells per batch     ...    97.85 (64.47%)
Average number of large basis fcns per batch ...   250.90 (64.87%)
Maximum spatial batch extension              ...  27.48, 24.15, 20.66 au
Average spatial batch extension              ...   3.67,  3.42,  3.51 au

Time for grid setup =    1.147 sec

------------------------------
INITIAL GUESS: MODEL POTENTIAL
------------------------------
Loading Hartree-Fock densities                     ... done
Calculating cut-offs                               ... done
Setting up the integral package                    ... done
Initializing the effective Hamiltonian             ... done
Starting the Coulomb interaction                   ... done (   2.9 sec)
Reading the grid                                   ... done
Mapping shells                                     ... done
Starting the XC term evaluation                    ... done (   1.1 sec)
Transforming the Hamiltonian                       ... done (   0.2 sec)
Diagonalizing the Hamiltonian                      ... done (   0.3 sec)
Back transforming the eigenvectors                 ... done (   0.1 sec)
Now organizing SCF variables                       ... done
                      ------------------
                      INITIAL GUESS DONE (   6.2 sec)
                      ------------------
--------------
SCF ITERATIONS
--------------
ITER       Energy         Delta-E        Max-DP      RMS-DP      [F,P]     Damp
               ***  Starting incremental Fock matrix formation  ***
  0  -1269.9945225783   0.000000000000 0.04933536  0.00043496  0.3176043 0.7000
  1  -1270.2629212918  -0.268398713436 0.03608906  0.00034952  0.1893224 0.7000
                               ***Turning on DIIS***
  2  -1270.4300316831  -0.167110391310 0.02583895  0.00023375  0.1096732 0.7000
  3  -1272.5518785699  -2.121846886862 0.06311542  0.00050336  0.0828614 0.0000
  4  -1270.7385158500   1.813362719965 0.00757235  0.00009858  0.0071880 0.0000
  5  -1270.7982632929  -0.059747442923 0.00373548  0.00005247  0.0053072 0.0000
  6  -1270.7779029915   0.020360301392 0.00197101  0.00002737  0.0034204 0.0000
                      *** Initiating the SOSCF procedure ***
                           *** Shutting down DIIS ***
                      *** Re-Reading the Fockian *** 
                      *** Removing any level shift *** 
ITER      Energy       Delta-E        Grad      Rot      Max-DP    RMS-DP
  7  -1270.79231498  -0.0144119930  0.001285  0.001285  0.001293  0.000015
               *** Restarting incremental Fock matrix formation ***
  8  -1270.79295551  -0.0006405302  0.000696  0.001798  0.000864  0.000008
  9  -1270.79297200  -0.0000164865  0.000325  0.002099  0.001151  0.000011
 10  -1270.79297900  -0.0000069994  0.000077  0.000144  0.000184  0.000002
 11  -1270.79297961  -0.0000006074  0.000037  0.000076  0.000063  0.000001
 12  -1270.79297975  -0.0000001379  0.000011  0.000049  0.000032  0.000000
 13  -1270.79297976  -0.0000000185  0.000009  0.000041  0.000016  0.000000
                  ***Gradient check signals convergence***
              ***Rediagonalizing the Fockian in SOSCF/NRSCF***

               *****************************************************
               *                     SUCCESS                       *
               *           SCF CONVERGED AFTER  14 CYCLES          *
               *****************************************************


----------------
TOTAL SCF ENERGY
----------------

Total Energy       :        -1270.79297978 Eh          -34580.03499 eV

Components:
Nuclear Repulsion  :         1720.79193719 Eh           46825.12915 eV
Electronic Energy  :        -2991.58491697 Eh          -81405.16415 eV
One Electron Energy:        -5162.45083741 Eh         -140477.42902 eV
Two Electron Energy:         2170.86592044 Eh           59072.26487 eV

Virial components:
Potential Energy   :        -2539.81878327 Eh          -69111.98268 eV
Kinetic Energy     :         1269.02580349 Eh           34531.94768 eV
Virial Ratio       :            2.00139255


---------------
SCF CONVERGENCE
---------------

  Last Energy change         ...   -1.2153e-08  Tolerance :   1.0000e-08
  Last MAX-Density change    ...    3.0187e-06  Tolerance :   1.0000e-07
  Last RMS-Density change    ...    4.7348e-08  Tolerance :   5.0000e-09
  Last Orbital Gradient      ...    1.8483e-06  Tolerance :   1.0000e-05
  Last Orbital Rotation      ...    5.5039e-06  Tolerance :   1.0000e-05

             **** THE GBW FILE WAS UPDATED (CONFS/Conf766.orca.gbw) ****
             **** DENSITY FILE WAS UPDATED (CONFS/Conf766.orca.scfp) ****
             **** ENERGY FILE WAS UPDATED (CONFS/Conf766.orca.en.tmp) ****
             **** THE GBW FILE WAS UPDATED (CONFS/Conf766.orca.gbw) ****
             **** DENSITY FILE WAS UPDATED (CONFS/Conf766.orca.scfp) ****
----------------
ORBITAL ENERGIES
----------------

  NO   OCC          E(Eh)            E(eV) 
   0   2.0000     -91.891880     -2500.5052 
   1   2.0000     -20.603253      -560.6430 
   2   2.0000     -20.580305      -560.0186 
   3   2.0000     -20.548671      -559.1578 
   4   2.0000     -15.632557      -425.3835 
   5   2.0000     -15.610751      -424.7901 
   6   2.0000     -11.393115      -310.0224 
   7   2.0000     -11.386374      -309.8390 
   8   2.0000     -11.339090      -308.5523 
   9   2.0000     -11.321030      -308.0609 
  10   2.0000     -11.313833      -307.8650 
  11   2.0000     -11.294554      -307.3404 
  12   2.0000     -11.265666      -306.5544 
  13   2.0000     -11.262347      -306.4640 
  14   2.0000     -11.260603      -306.4166 
  15   2.0000     -11.254556      -306.2520 
  16   2.0000     -11.250138      -306.1318 
  17   2.0000     -11.244700      -305.9839 
  18   2.0000     -11.244340      -305.9740 
  19   2.0000     -11.218043      -305.2585 
  20   2.0000      -8.896891      -242.0967 
  21   2.0000      -6.578453      -179.0088 
  22   2.0000      -6.576463      -178.9546 
  23   2.0000      -6.575864      -178.9383 
  24   2.0000      -1.447330       -39.3839 
  25   2.0000      -1.422928       -38.7198 
  26   2.0000      -1.353216       -36.8229 
  27   2.0000      -1.343727       -36.5647 
  28   2.0000      -1.242056       -33.7981 
  29   2.0000      -1.163736       -31.6669 
  30   2.0000      -1.122368       -30.5412 
  31   2.0000      -1.047648       -28.5080 
  32   2.0000      -1.030002       -28.0278 
  33   2.0000      -1.022276       -27.8176 
  34   2.0000      -0.999309       -27.1926 
  35   2.0000      -0.986945       -26.8561 
  36   2.0000      -0.926940       -25.2233 
  37   2.0000      -0.878948       -23.9174 
  38   2.0000      -0.851255       -23.1638 
  39   2.0000      -0.845447       -23.0058 
  40   2.0000      -0.840293       -22.8655 
  41   2.0000      -0.831609       -22.6292 
  42   2.0000      -0.757445       -20.6111 
  43   2.0000      -0.736797       -20.0493 
  44   2.0000      -0.720592       -19.6083 
  45   2.0000      -0.702626       -19.1194 
  46   2.0000      -0.693361       -18.8673 
  47   2.0000      -0.679081       -18.4787 
  48   2.0000      -0.669876       -18.2283 
  49   2.0000      -0.663510       -18.0550 
  50   2.0000      -0.650725       -17.7071 
  51   2.0000      -0.648858       -17.6563 
  52   2.0000      -0.640219       -17.4213 
  53   2.0000      -0.614136       -16.7115 
  54   2.0000      -0.607070       -16.5192 
  55   2.0000      -0.602757       -16.4019 
  56   2.0000      -0.585460       -15.9312 
  57   2.0000      -0.582403       -15.8480 
  58   2.0000      -0.579651       -15.7731 
  59   2.0000      -0.573434       -15.6039 
  60   2.0000      -0.565300       -15.3826 
  61   2.0000      -0.541720       -14.7410 
  62   2.0000      -0.537859       -14.6359 
  63   2.0000      -0.531149       -14.4533 
  64   2.0000      -0.518523       -14.1097 
  65   2.0000      -0.511422       -13.9165 
  66   2.0000      -0.506644       -13.7865 
  67   2.0000      -0.498635       -13.5686 
  68   2.0000      -0.485642       -13.2150 
  69   2.0000      -0.465887       -12.6774 
  70   2.0000      -0.452303       -12.3078 
  71   2.0000      -0.442820       -12.0497 
  72   2.0000      -0.359598        -9.7852 
  73   2.0000      -0.355601        -9.6764 
  74   2.0000      -0.332088        -9.0366 
  75   2.0000      -0.327905        -8.9227 
  76   2.0000      -0.318900        -8.6777 
  77   0.0000       0.068423         1.8619 
  78   0.0000       0.098792         2.6883 
  79   0.0000       0.120528         3.2797 
  80   0.0000       0.126901         3.4532 
  81   0.0000       0.130515         3.5515 
  82   0.0000       0.138313         3.7637 
  83   0.0000       0.148922         4.0524 
  84   0.0000       0.149573         4.0701 
  85   0.0000       0.159606         4.3431 
  86   0.0000       0.168906         4.5962 
  87   0.0000       0.183407         4.9908 
  88   0.0000       0.190176         5.1750 
  89   0.0000       0.192917         5.2495 
  90   0.0000       0.204592         5.5672 
  91   0.0000       0.209078         5.6893 
  92   0.0000       0.218110         5.9351 
  93   0.0000       0.219766         5.9801 
  94   0.0000       0.230196         6.2640 
  95   0.0000       0.234067         6.3693 
  96   0.0000       0.244030         6.6404 
  97   0.0000       0.249869         6.7993 
  98   0.0000       0.260025         7.0756 
  99   0.0000       0.277225         7.5437 
 100   0.0000       0.294896         8.0245 
 101   0.0000       0.300617         8.1802 
 102   0.0000       0.311181         8.4677 
 103   0.0000       0.316452         8.6111 
 104   0.0000       0.319630         8.6976 
 105   0.0000       0.326799         8.8926 
 106   0.0000       0.336698         9.1620 
 107   0.0000       0.341724         9.2988 
 108   0.0000       0.361916         9.8482 
 109   0.0000       0.364172         9.9096 
 110   0.0000       0.370572        10.0838 
 111   0.0000       0.376365        10.2414 
 112   0.0000       0.381658        10.3855 
 113   0.0000       0.389656        10.6031 
 114   0.0000       0.397789        10.8244 
 115   0.0000       0.406791        11.0693 
 116   0.0000       0.414667        11.2837 
 117   0.0000       0.428762        11.6672 
 118   0.0000       0.434037        11.8108 
 119   0.0000       0.437903        11.9159 
 120   0.0000       0.441049        12.0016 
 121   0.0000       0.450651        12.2628 
 122   0.0000       0.456042        12.4095 
 123   0.0000       0.458937        12.4883 
 124   0.0000       0.465598        12.6696 
 125   0.0000       0.469379        12.7724 
 126   0.0000       0.473147        12.8750 
 127   0.0000       0.480170        13.0661 
 128   0.0000       0.487625        13.2689 
 129   0.0000       0.495674        13.4880 
 130   0.0000       0.501295        13.6409 
 131   0.0000       0.508267        13.8306 
 132   0.0000       0.512450        13.9445 
 133   0.0000       0.519395        14.1334 
 134   0.0000       0.523444        14.2436 
 135   0.0000       0.527716        14.3599 
 136   0.0000       0.531316        14.4578 
 137   0.0000       0.540629        14.7113 
 138   0.0000       0.544562        14.8183 
 139   0.0000       0.548204        14.9174 
 140   0.0000       0.554655        15.0929 
 141   0.0000       0.559079        15.2133 
 142   0.0000       0.562173        15.2975 
 143   0.0000       0.570981        15.5372 
 144   0.0000       0.576714        15.6932 
 145   0.0000       0.584412        15.9027 
 146   0.0000       0.591652        16.0997 
 147   0.0000       0.594955        16.1895 
 148   0.0000       0.598212        16.2782 
 149   0.0000       0.600935        16.3523 
 150   0.0000       0.603155        16.4127 
 151   0.0000       0.609273        16.5792 
 152   0.0000       0.612366        16.6633 
 153   0.0000       0.622005        16.9256 
 154   0.0000       0.624447        16.9921 
 155   0.0000       0.625742        17.0273 
 156   0.0000       0.630064        17.1449 
 157   0.0000       0.634824        17.2744 
 158   0.0000       0.639082        17.3903 
 159   0.0000       0.643358        17.5067 
 160   0.0000       0.648460        17.6455 
 161   0.0000       0.656544        17.8655 
 162   0.0000       0.658625        17.9221 
 163   0.0000       0.660836        17.9822 
 164   0.0000       0.669618        18.2212 
 165   0.0000       0.674255        18.3474 
 166   0.0000       0.680423        18.5152 
 167   0.0000       0.684696        18.6315 
 168   0.0000       0.686835        18.6897 
 169   0.0000       0.690881        18.7998 
 170   0.0000       0.700627        19.0650 
 171   0.0000       0.708265        19.2729 
 172   0.0000       0.712346        19.3839 
 173   0.0000       0.719132        19.5686 
 174   0.0000       0.727491        19.7960 
 175   0.0000       0.731598        19.9078 
 176   0.0000       0.732764        19.9395 
 177   0.0000       0.736671        20.0458 
 178   0.0000       0.762460        20.7476 
 179   0.0000       0.764656        20.8073 
 180   0.0000       0.772540        21.0219 
 181   0.0000       0.783393        21.3172 
 182   0.0000       0.786596        21.4044 
 183   0.0000       0.802885        21.8476 
 184   0.0000       0.807105        21.9624 
 185   0.0000       0.813399        22.1337 
 186   0.0000       0.819271        22.2935 
 187   0.0000       0.826403        22.4876 
 188   0.0000       0.828287        22.5388 
 189   0.0000       0.838766        22.8240 
 190   0.0000       0.846190        23.0260 
 191   0.0000       0.850664        23.1477 
 192   0.0000       0.860194        23.4071 
 193   0.0000       0.864240        23.5172 
 194   0.0000       0.870943        23.6996 
 195   0.0000       0.875893        23.8343 
 196   0.0000       0.888544        24.1785 
 197   0.0000       0.893759        24.3204 
 198   0.0000       0.901267        24.5247 
 199   0.0000       0.913700        24.8631 
 200   0.0000       0.915394        24.9092 
 201   0.0000       0.923994        25.1431 
 202   0.0000       0.924757        25.1639 
 203   0.0000       0.930015        25.3070 
 204   0.0000       0.935605        25.4591 
 205   0.0000       0.952361        25.9151 
 206   0.0000       0.960238        26.1294 
 207   0.0000       0.961779        26.1713 
 208   0.0000       0.973270        26.4840 
 209   0.0000       0.974697        26.5229 
 210   0.0000       0.988230        26.8911 
 211   0.0000       0.991904        26.9911 
 212   0.0000       1.001675        27.2570 
 213   0.0000       1.003139        27.2968 
 214   0.0000       1.014117        27.5955 
 215   0.0000       1.019956        27.7544 
 216   0.0000       1.026171        27.9235 
 217   0.0000       1.032585        28.0981 
 218   0.0000       1.038319        28.2541 
 219   0.0000       1.043539        28.3961 
 220   0.0000       1.047624        28.5073 
 221   0.0000       1.057714        28.7819 
 222   0.0000       1.065313        28.9886 
 223   0.0000       1.078631        29.3510 
 224   0.0000       1.084996        29.5242 
 225   0.0000       1.092247        29.7216 
 226   0.0000       1.106985        30.1226 
 227   0.0000       1.110335        30.2138 
 228   0.0000       1.118925        30.4475 
 229   0.0000       1.126002        30.6401 
 230   0.0000       1.132211        30.8090 
 231   0.0000       1.135607        30.9014 
 232   0.0000       1.138973        30.9930 
 233   0.0000       1.146713        31.2036 
 234   0.0000       1.155992        31.4561 
 235   0.0000       1.160596        31.5814 
 236   0.0000       1.173089        31.9214 
 237   0.0000       1.176979        32.0272 
 238   0.0000       1.185081        32.2477 
 239   0.0000       1.187757        32.3205 
 240   0.0000       1.198330        32.6082 
 241   0.0000       1.204567        32.7779 
 242   0.0000       1.205614        32.8064 
 243   0.0000       1.211878        32.9769 
 244   0.0000       1.217596        33.1325 
 245   0.0000       1.226510        33.3750 
 246   0.0000       1.230183        33.4750 
 247   0.0000       1.234322        33.5876 
 248   0.0000       1.239354        33.7245 
 249   0.0000       1.249359        33.9968 
 250   0.0000       1.260898        34.3108 
 251   0.0000       1.273557        34.6553 
 252   0.0000       1.280803        34.8524 
 253   0.0000       1.286903        35.0184 
 254   0.0000       1.298677        35.3388 
 255   0.0000       1.309298        35.6278 
 256   0.0000       1.309683        35.6383 
 257   0.0000       1.326101        36.0850 
 258   0.0000       1.339936        36.4615 
 259   0.0000       1.346300        36.6347 
 260   0.0000       1.348395        36.6917 
 261   0.0000       1.353522        36.8312 
 262   0.0000       1.361788        37.0561 
 263   0.0000       1.375725        37.4354 
 264   0.0000       1.381662        37.5969 
 265   0.0000       1.392363        37.8881 
 266   0.0000       1.397471        38.0271 
 267   0.0000       1.398804        38.0634 
 268   0.0000       1.411880        38.4192 
 269   0.0000       1.415090        38.5066 
 270   0.0000       1.423152        38.7259 
 271   0.0000       1.425195        38.7815 
 272   0.0000       1.443752        39.2865 
 273   0.0000       1.451179        39.4886 
 274   0.0000       1.461394        39.7666 
 275   0.0000       1.465129        39.8682 
 276   0.0000       1.477942        40.2169 
 277   0.0000       1.489771        40.5387 
 278   0.0000       1.491556        40.5873 
 279   0.0000       1.496959        40.7343 
 280   0.0000       1.500801        40.8389 
 281   0.0000       1.507003        41.0076 
 282   0.0000       1.513729        41.1907 
 283   0.0000       1.516580        41.2683 
 284   0.0000       1.529495        41.6197 
 285   0.0000       1.531997        41.6878 
 286   0.0000       1.534362        41.7521 
 287   0.0000       1.539646        41.8959 
 288   0.0000       1.545202        42.0471 
 289   0.0000       1.552064        42.2338 
 290   0.0000       1.560036        42.4507 
 291   0.0000       1.566627        42.6301 
 292   0.0000       1.573606        42.8200 
 293   0.0000       1.580053        42.9954 
 294   0.0000       1.585491        43.1434 
 295   0.0000       1.600346        43.5476 
 296   0.0000       1.602569        43.6081 
 297   0.0000       1.607816        43.7509 
 298   0.0000       1.618736        44.0480 
 299   0.0000       1.630466        44.3672 
 300   0.0000       1.637244        44.5517 
 301   0.0000       1.640926        44.6519 
 302   0.0000       1.652803        44.9750 
 303   0.0000       1.667645        45.3789 
 304   0.0000       1.670236        45.4494 
 305   0.0000       1.676881        45.6303 
 306   0.0000       1.696731        46.1704 
 307   0.0000       1.699823        46.2545 
 308   0.0000       1.714839        46.6631 
 309   0.0000       1.720409        46.8147 
 310   0.0000       1.735645        47.2293 
 311   0.0000       1.740362        47.3576 
 312   0.0000       1.741666        47.3931 
 313   0.0000       1.757583        47.8263 
 314   0.0000       1.763486        47.9869 
 315   0.0000       1.770934        48.1896 
 316   0.0000       1.787356        48.6364 
 317   0.0000       1.796324        48.8805 
 318   0.0000       1.803261        49.0692 
 319   0.0000       1.812455        49.3194 
 320   0.0000       1.817404        49.4541 
 321   0.0000       1.831543        49.8388 
 322   0.0000       1.838870        50.0382 
 323   0.0000       1.846073        50.2342 
 324   0.0000       1.861348        50.6499 
 325   0.0000       1.866946        50.8022 
 326   0.0000       1.895930        51.5909 
 327   0.0000       1.901483        51.7420 
 328   0.0000       1.912599        52.0445 
 329   0.0000       1.918934        52.2169 
 330   0.0000       1.930098        52.5206 
 331   0.0000       1.939967        52.7892 
 332   0.0000       1.945684        52.9448 
 333   0.0000       1.960820        53.3566 
 334   0.0000       1.974774        53.7363 
 335   0.0000       1.990642        54.1681 
 336   0.0000       1.999686        54.4142 
 337   0.0000       2.005883        54.5829 
 338   0.0000       2.015814        54.8531 
 339   0.0000       2.023591        55.0647 
 340   0.0000       2.031266        55.2735 
 341   0.0000       2.049048        55.7574 
 342   0.0000       2.062922        56.1350 
 343   0.0000       2.070561        56.3428 
 344   0.0000       2.092187        56.9313 
 345   0.0000       2.115295        57.5601 
 346   0.0000       2.124759        57.8176 
 347   0.0000       2.138784        58.1993 
 348   0.0000       2.142943        58.3124 
 349   0.0000       2.155980        58.6672 
 350   0.0000       2.179407        59.3047 
 351   0.0000       2.198193        59.8159 
 352   0.0000       2.209619        60.1268 
 353   0.0000       2.213019        60.2193 
 354   0.0000       2.227716        60.6192 
 355   0.0000       2.254375        61.3447 
 356   0.0000       2.275700        61.9250 
 357   0.0000       2.283133        62.1272 
 358   0.0000       2.286105        62.2081 
 359   0.0000       2.299161        62.5633 
 360   0.0000       2.305979        62.7489 
 361   0.0000       2.326355        63.3033 
 362   0.0000       2.334438        63.5233 
 363   0.0000       2.364382        64.3381 
 364   0.0000       2.370518        64.5051 
 365   0.0000       2.379711        64.7552 
 366   0.0000       2.383147        64.8487 
 367   0.0000       2.403021        65.3895 
 368   0.0000       2.409936        65.5777 
 369   0.0000       2.441348        66.4324 
 370   0.0000       2.450319        66.6766 
 371   0.0000       2.461517        66.9813 
 372   0.0000       2.463945        67.0474 
 373   0.0000       2.473402        67.3047 
 374   0.0000       2.492724        67.8305 
 375   0.0000       2.496235        67.9260 
 376   0.0000       2.508608        68.2627 
 377   0.0000       2.519929        68.5708 
 378   0.0000       2.535337        68.9900 
 379   0.0000       2.548677        69.3530 
 380   0.0000       2.572120        69.9909 
 381   0.0000       2.577076        70.1258 
 382   0.0000       2.578163        70.1554 
 383   0.0000       2.594702        70.6054 
 384   0.0000       2.600463        70.7622 
 385   0.0000       2.614569        71.1460 
 386   0.0000       2.635864        71.7255 
 387   0.0000       2.641974        71.8918 
 388   0.0000       2.657284        72.3084 
 389   0.0000       2.662994        72.4638 
 390   0.0000       2.681441        72.9657 
 391   0.0000       2.694784        73.3288 
 392   0.0000       2.702936        73.5506 
 393   0.0000       2.719161        73.9921 
 394   0.0000       2.731435        74.3261 
 395   0.0000       2.733723        74.3884 
 396   0.0000       2.744011        74.6683 
 397   0.0000       2.754204        74.9457 
 398   0.0000       2.759477        75.0892 
 399   0.0000       2.767661        75.3119 
 400   0.0000       2.780433        75.6594 
 401   0.0000       2.793583        76.0172 
 402   0.0000       2.811707        76.5104 
 403   0.0000       2.814128        76.5763 
 404   0.0000       2.820720        76.7557 
 405   0.0000       2.831240        77.0420 
 406   0.0000       2.838925        77.2511 
 407   0.0000       2.852062        77.6086 
 408   0.0000       2.856642        77.7332 
 409   0.0000       2.861799        77.8735 
 410   0.0000       2.872912        78.1759 
 411   0.0000       2.885404        78.5158 
 412   0.0000       2.902080        78.9696 
 413   0.0000       2.914023        79.2946 
 414   0.0000       2.918054        79.4043 
 415   0.0000       2.929521        79.7163 
 416   0.0000       2.936399        79.9035 
 417   0.0000       2.947224        80.1980 
 418   0.0000       2.953045        80.3564 
 419   0.0000       2.960345        80.5551 
 420   0.0000       2.970189        80.8230 
 421   0.0000       2.976580        80.9968 
 422   0.0000       2.984815        81.2209 
 423   0.0000       3.002013        81.6889 
 424   0.0000       3.007130        81.8282 
 425   0.0000       3.008597        81.8681 
 426   0.0000       3.015254        82.0492 
 427   0.0000       3.031478        82.4907 
 428   0.0000       3.034790        82.5808 
 429   0.0000       3.038587        82.6841 
 430   0.0000       3.045661        82.8767 
 431   0.0000       3.061663        83.3121 
 432   0.0000       3.069845        83.5347 
 433   0.0000       3.074133        83.6514 
 434   0.0000       3.082180        83.8704 
 435   0.0000       3.089155        84.0602 
 436   0.0000       3.092847        84.1607 
 437   0.0000       3.094364        84.2019 
 438   0.0000       3.105040        84.4924 
 439   0.0000       3.109360        84.6100 
 440   0.0000       3.114856        84.7595 
 441   0.0000       3.120408        84.9106 
 442   0.0000       3.124623        85.0253 
 443   0.0000       3.132064        85.2278 
 444   0.0000       3.147487        85.6475 
 445   0.0000       3.149960        85.7148 
 446   0.0000       3.160834        86.0107 
 447   0.0000       3.169788        86.2543 
 448   0.0000       3.182707        86.6059 
 449   0.0000       3.189754        86.7976 
 450   0.0000       3.202111        87.1339 
 451   0.0000       3.203633        87.1753 
 452   0.0000       3.212315        87.4115 
 453   0.0000       3.220977        87.6473 
 454   0.0000       3.228895        87.8627 
 455   0.0000       3.239012        88.1380 
 456   0.0000       3.241159        88.1964 
 457   0.0000       3.249536        88.4244 
 458   0.0000       3.261316        88.7449 
 459   0.0000       3.268304        88.9351 
 460   0.0000       3.273171        89.0675 
 461   0.0000       3.281578        89.2963 
 462   0.0000       3.284611        89.3788 
 463   0.0000       3.292364        89.5898 
 464   0.0000       3.296956        89.7147 
 465   0.0000       3.307964        90.0143 
 466   0.0000       3.319484        90.3278 
 467   0.0000       3.322577        90.4119 
 468   0.0000       3.322910        90.4210 
 469   0.0000       3.328218        90.5654 
 470   0.0000       3.336055        90.7787 
 471   0.0000       3.342324        90.9493 
 472   0.0000       3.349900        91.1554 
 473   0.0000       3.357151        91.3527 
 474   0.0000       3.360499        91.4438 
 475   0.0000       3.368765        91.6687 
 476   0.0000       3.372783        91.7781 
 477   0.0000       3.378540        91.9347 
 478   0.0000       3.381820        92.0240 
 479   0.0000       3.393942        92.3539 
 480   0.0000       3.401016        92.5464 
 481   0.0000       3.413343        92.8818 
 482   0.0000       3.415831        92.9495 
 483   0.0000       3.417922        93.0064 
 484   0.0000       3.423422        93.1560 
 485   0.0000       3.425198        93.2044 
 486   0.0000       3.430875        93.3589 
 487   0.0000       3.436824        93.5207 
 488   0.0000       3.438351        93.5623 
 489   0.0000       3.443166        93.6933 
 490   0.0000       3.443854        93.7120 
 491   0.0000       3.459606        94.1407 
 492   0.0000       3.461483        94.1917 
 493   0.0000       3.470871        94.4472 
 494   0.0000       3.480831        94.7182 
 495   0.0000       3.484602        94.8208 
 496   0.0000       3.485984        94.8585 
 497   0.0000       3.492495        95.0356 
 498   0.0000       3.502669        95.3125 
 499   0.0000       3.514331        95.6298 
 500   0.0000       3.524168        95.8975 
 501   0.0000       3.527391        95.9852 
 502   0.0000       3.541491        96.3689 
 503   0.0000       3.545275        96.4718 
 504   0.0000       3.550341        96.6097 
 505   0.0000       3.558886        96.8422 
 506   0.0000       3.568930        97.1155 
 507   0.0000       3.577963        97.3613 
 508   0.0000       3.584239        97.5321 
 509   0.0000       3.586901        97.6045 
 510   0.0000       3.590446        97.7010 
 511   0.0000       3.595215        97.8308 
 512   0.0000       3.607335        98.1606 
 513   0.0000       3.610365        98.2430 
 514   0.0000       3.619856        98.5013 
 515   0.0000       3.621658        98.5503 
 516   0.0000       3.628746        98.7432 
 517   0.0000       3.631759        98.8252 
 518   0.0000       3.639260        99.0293 
 519   0.0000       3.644483        99.1714 
 520   0.0000       3.648610        99.2837 
 521   0.0000       3.653615        99.4199 
 522   0.0000       3.656546        99.4997 
 523   0.0000       3.668334        99.8205 
 524   0.0000       3.675812       100.0239 
 525   0.0000       3.679130       100.1142 
 526   0.0000       3.687438       100.3403 
 527   0.0000       3.691719       100.4568 
 528   0.0000       3.703550       100.7787 
 529   0.0000       3.708115       100.9029 
 530   0.0000       3.716282       101.1252 
 531   0.0000       3.725846       101.3854 
 532   0.0000       3.732593       101.5690 
 533   0.0000       3.737003       101.6890 
 534   0.0000       3.742903       101.8496 
 535   0.0000       3.749668       102.0336 
 536   0.0000       3.755356       102.1884 
 537   0.0000       3.760148       102.3188 
 538   0.0000       3.766746       102.4984 
 539   0.0000       3.772091       102.6438 
 540   0.0000       3.783001       102.9407 
 541   0.0000       3.793687       103.2315 
 542   0.0000       3.802590       103.4737 
 543   0.0000       3.804525       103.5264 
 544   0.0000       3.812261       103.7369 
 545   0.0000       3.814852       103.8074 
 546   0.0000       3.831337       104.2560 
 547   0.0000       3.837209       104.4158 
 548   0.0000       3.843838       104.5962 
 549   0.0000       3.851384       104.8015 
 550   0.0000       3.858657       104.9994 
 551   0.0000       3.861438       105.0751 
 552   0.0000       3.872290       105.3704 
 553   0.0000       3.885453       105.7286 
 554   0.0000       3.896180       106.0204 
 555   0.0000       3.908077       106.3442 
 556   0.0000       3.915634       106.5498 
 557   0.0000       3.923484       106.7634 
 558   0.0000       3.929132       106.9171 
 559   0.0000       3.936076       107.1061 
 560   0.0000       3.942709       107.2866 
 561   0.0000       3.962480       107.8246 
 562   0.0000       3.966384       107.9308 
 563   0.0000       3.969668       108.0201 
 564   0.0000       3.975294       108.1732 
 565   0.0000       3.992434       108.6396 
 566   0.0000       4.001419       108.8841 
 567   0.0000       4.011384       109.1553 
 568   0.0000       4.014766       109.2473 
 569   0.0000       4.025128       109.5293 
 570   0.0000       4.036916       109.8501 
 571   0.0000       4.040824       109.9564 
 572   0.0000       4.049552       110.1939 
 573   0.0000       4.057281       110.4042 
 574   0.0000       4.066874       110.6653 
 575   0.0000       4.068997       110.7230 
 576   0.0000       4.084961       111.1574 
 577   0.0000       4.087814       111.2351 
 578   0.0000       4.093716       111.3957 
 579   0.0000       4.107611       111.7738 
 580   0.0000       4.118393       112.0672 
 581   0.0000       4.127582       112.3172 
 582   0.0000       4.136010       112.5466 
 583   0.0000       4.138374       112.6109 
 584   0.0000       4.149568       112.9155 
 585   0.0000       4.153449       113.0211 
 586   0.0000       4.161752       113.2470 
 587   0.0000       4.168067       113.4189 
 588   0.0000       4.173158       113.5574 
 589   0.0000       4.177901       113.6865 
 590   0.0000       4.181472       113.7836 
 591   0.0000       4.190409       114.0268 
 592   0.0000       4.195375       114.1620 
 593   0.0000       4.202981       114.3689 
 594   0.0000       4.209270       114.5401 
 595   0.0000       4.213210       114.6473 
 596   0.0000       4.222020       114.8870 
 597   0.0000       4.226773       115.0163 
 598   0.0000       4.240855       115.3995 
 599   0.0000       4.248559       115.6092 
 600   0.0000       4.258172       115.8708 
 601   0.0000       4.265500       116.0702 
 602   0.0000       4.275197       116.3340 
 603   0.0000       4.281577       116.5076 
 604   0.0000       4.289519       116.7237 
 605   0.0000       4.300535       117.0235 
 606   0.0000       4.307679       117.2179 
 607   0.0000       4.310482       117.2942 
 608   0.0000       4.323418       117.6462 
 609   0.0000       4.329798       117.8198 
 610   0.0000       4.336160       117.9929 
 611   0.0000       4.348216       118.3210 
 612   0.0000       4.355740       118.5257 
 613   0.0000       4.364661       118.7685 
 614   0.0000       4.370406       118.9248 
 615   0.0000       4.374910       119.0473 
 616   0.0000       4.380346       119.1953 
 617   0.0000       4.385877       119.3458 
 618   0.0000       4.396772       119.6422 
 619   0.0000       4.403308       119.8201 
 620   0.0000       4.408593       119.9639 
 621   0.0000       4.416989       120.1924 
 622   0.0000       4.428812       120.5141 
 623   0.0000       4.435523       120.6967 
 624   0.0000       4.441694       120.8646 
 625   0.0000       4.446829       121.0044 
 626   0.0000       4.455094       121.2293 
 627   0.0000       4.472206       121.6949 
 628   0.0000       4.475480       121.7840 
 629   0.0000       4.488960       122.1508 
 630   0.0000       4.498508       122.4106 
 631   0.0000       4.503475       122.5458 
 632   0.0000       4.513510       122.8188 
 633   0.0000       4.525538       123.1461 
 634   0.0000       4.532737       123.3420 
 635   0.0000       4.544218       123.6545 
 636   0.0000       4.550158       123.8161 
 637   0.0000       4.558483       124.0426 
 638   0.0000       4.570792       124.3776 
 639   0.0000       4.576453       124.5316 
 640   0.0000       4.588389       124.8564 
 641   0.0000       4.601186       125.2046 
 642   0.0000       4.609127       125.4207 
 643   0.0000       4.613244       125.5327 
 644   0.0000       4.622890       125.7952 
 645   0.0000       4.625028       125.8534 
 646   0.0000       4.633279       126.0779 
 647   0.0000       4.640467       126.2735 
 648   0.0000       4.644593       126.3858 
 649   0.0000       4.649148       126.5097 
 650   0.0000       4.661688       126.8510 
 651   0.0000       4.682557       127.4189 
 652   0.0000       4.689085       127.5965 
 653   0.0000       4.696066       127.7865 
 654   0.0000       4.705289       128.0374 
 655   0.0000       4.712409       128.2312 
 656   0.0000       4.721769       128.4859 
 657   0.0000       4.731456       128.7495 
 658   0.0000       4.736162       128.8775 
 659   0.0000       4.746331       129.1542 
 660   0.0000       4.751937       129.3068 
 661   0.0000       4.779228       130.0494 
 662   0.0000       4.786706       130.2529 
 663   0.0000       4.803552       130.7113 
 664   0.0000       4.820558       131.1741 
 665   0.0000       4.830222       131.4370 
 666   0.0000       4.840864       131.7266 
 667   0.0000       4.858652       132.2106 
 668   0.0000       4.869460       132.5047 
 669   0.0000       4.897186       133.2592 
 670   0.0000       4.906349       133.5085 
 671   0.0000       4.945144       134.5642 
 672   0.0000       4.952004       134.7509 
 673   0.0000       4.961635       135.0129 
 674   0.0000       4.971901       135.2923 
 675   0.0000       5.002069       136.1132 
 676   0.0000       5.028761       136.8395 
 677   0.0000       5.029351       136.8556 
 678   0.0000       5.041320       137.1813 
 679   0.0000       5.051768       137.4656 
 680   0.0000       5.058712       137.6546 
 681   0.0000       5.074559       138.0858 
 682   0.0000       5.096036       138.6702 
 683   0.0000       5.101933       138.8307 
 684   0.0000       5.110507       139.0640 
 685   0.0000       5.120870       139.3460 
 686   0.0000       5.126871       139.5093 
 687   0.0000       5.137148       139.7889 
 688   0.0000       5.154122       140.2508 
 689   0.0000       5.161405       140.4490 
 690   0.0000       5.162947       140.4909 
 691   0.0000       5.178084       140.9028 
 692   0.0000       5.188195       141.1780 
 693   0.0000       5.196843       141.4133 
 694   0.0000       5.203892       141.6051 
 695   0.0000       5.212890       141.8500 
 696   0.0000       5.216115       141.9377 
 697   0.0000       5.223315       142.1336 
 698   0.0000       5.233528       142.4115 
 699   0.0000       5.242569       142.6576 
 700   0.0000       5.274538       143.5275 
 701   0.0000       5.288133       143.8974 
 702   0.0000       5.299261       144.2002 
 703   0.0000       5.314052       144.6027 
 704   0.0000       5.322972       144.8454 
 705   0.0000       5.326224       144.9339 
 706   0.0000       5.347830       145.5219 
 707   0.0000       5.370606       146.1416 
 708   0.0000       5.377824       146.3380 
 709   0.0000       5.381990       146.4514 
 710   0.0000       5.384748       146.5265 
 711   0.0000       5.417073       147.4061 
 712   0.0000       5.420988       147.5126 
 713   0.0000       5.444504       148.1525 
 714   0.0000       5.462720       148.6482 
 715   0.0000       5.481415       149.1569 
 716   0.0000       5.504454       149.7838 
 717   0.0000       5.512605       150.0056 
 718   0.0000       5.524196       150.3210 
 719   0.0000       5.530532       150.4934 
 720   0.0000       5.535135       150.6187 
 721   0.0000       5.544566       150.8753 
 722   0.0000       5.557779       151.2348 
 723   0.0000       5.570262       151.5745 
 724   0.0000       5.580219       151.8455 
 725   0.0000       5.593415       152.2046 
 726   0.0000       5.603424       152.4769 
 727   0.0000       5.617615       152.8631 
 728   0.0000       5.626127       153.0947 
 729   0.0000       5.644478       153.5940 
 730   0.0000       5.658321       153.9707 
 731   0.0000       5.665897       154.1769 
 732   0.0000       5.671366       154.3257 
 733   0.0000       5.680089       154.5631 
 734   0.0000       5.706588       155.2841 
 735   0.0000       5.715557       155.5282 
 736   0.0000       5.726700       155.8314 
 737   0.0000       5.742883       156.2718 
 738   0.0000       5.744917       156.3271 
 739   0.0000       5.753413       156.5583 
 740   0.0000       5.762135       156.7957 
 741   0.0000       5.774611       157.1351 
 742   0.0000       5.794172       157.6674 
 743   0.0000       5.811895       158.1497 
 744   0.0000       5.838246       158.8667 
 745   0.0000       5.847166       159.1095 
 746   0.0000       5.874085       159.8420 
 747   0.0000       5.877403       159.9323 
 748   0.0000       5.913276       160.9084 
 749   0.0000       5.926972       161.2811 
 750   0.0000       5.950233       161.9141 
 751   0.0000       5.966935       162.3686 
 752   0.0000       5.987920       162.9396 
 753   0.0000       5.997357       163.1964 
 754   0.0000       6.014876       163.6731 
 755   0.0000       6.030643       164.1021 
 756   0.0000       6.043797       164.4601 
 757   0.0000       6.064369       165.0199 
 758   0.0000       6.082782       165.5209 
 759   0.0000       6.096303       165.8888 
 760   0.0000       6.117204       166.4576 
 761   0.0000       6.179745       168.1594 
 762   0.0000       6.216666       169.1641 
 763   0.0000       6.227594       169.4614 
 764   0.0000       6.243362       169.8905 
 765   0.0000       6.284662       171.0143 
 766   0.0000       6.295047       171.2970 
 767   0.0000       6.317103       171.8971 
 768   0.0000       6.342575       172.5902 
 769   0.0000       6.358466       173.0227 
 770   0.0000       6.364352       173.1828 
 771   0.0000       6.379900       173.6059 
 772   0.0000       6.396894       174.0683 
 773   0.0000       6.411758       174.4728 
 774   0.0000       6.449616       175.5030 
 775   0.0000       6.457561       175.7192 
 776   0.0000       6.494880       176.7347 
 777   0.0000       6.548514       178.1941 
 778   0.0000       6.582560       179.1206 
 779   0.0000       6.632796       180.4876 
 780   0.0000       6.649229       180.9347 
 781   0.0000       6.707317       182.5154 
 782   0.0000       6.752628       183.7484 
 783   0.0000       6.778426       184.4503 
 784   0.0000       6.827546       185.7870 
 785   0.0000       6.881118       187.2447 
 786   0.0000       6.902468       187.8257 
 787   0.0000       6.919372       188.2857 
 788   0.0000       6.952541       189.1883 
 789   0.0000       7.030948       191.3218 
 790   0.0000       7.047393       191.7693 
 791   0.0000       7.057405       192.0418 
 792   0.0000       7.077279       192.5826 
 793   0.0000       7.130280       194.0248 
 794   0.0000       7.252183       197.3419 
 795   0.0000       7.258984       197.5270 
 796   0.0000       7.279181       198.0766 
 797   0.0000       7.287652       198.3071 
 798   0.0000       7.340836       199.7543 
 799   0.0000       7.386050       200.9846 
 800   0.0000       7.391813       201.1414 
 801   0.0000       7.561589       205.7613 
 802   0.0000       7.581379       206.2998 
 803   0.0000       7.610042       207.0798 
 804   0.0000       7.716152       209.9672 
 805   0.0000       7.811824       212.5705 
 806   0.0000       7.822226       212.8536 
 807   0.0000       7.859462       213.8668 
 808   0.0000       7.930191       215.7915 
 809   0.0000       9.449638       257.1377 
 810   0.0000       9.625597       261.9258 
 811   0.0000      10.746291       292.4214 
 812   0.0000      11.353475       308.9438 
 813   0.0000      12.022395       327.1460 
 814   0.0000      12.709545       345.8443 
 815   0.0000      12.923992       351.6797 
 816   0.0000      13.056043       355.2730 
 817   0.0000      13.231608       360.0504 
 818   0.0000      13.384334       364.2062 
 819   0.0000      13.522772       367.9733 
 820   0.0000      13.571207       369.2913 
 821   0.0000      13.781847       375.0231 
 822   0.0000      13.961202       379.9036 
 823   0.0000      14.066943       382.7810 
 824   0.0000      14.094861       383.5407 
 825   0.0000      14.498046       394.5119 
 826   0.0000      14.776742       402.0956 
 827   0.0000      16.014623       435.7801 

                    ********************************
                    * MULLIKEN POPULATION ANALYSIS *
                    ********************************

-----------------------
MULLIKEN ATOMIC CHARGES
-----------------------
   0 C :   -0.258604
   1 C :    0.020656
   2 O :   -0.380444
   3 C :    0.494913
   4 O :   -0.398606
   5 C :   -0.281362
   6 C :    0.154717
   7 C :   -0.270187
   8 N :   -0.124290
   9 C :    0.213513
  10 S :   -0.435019
  11 N :   -0.199953
  12 C :    0.045650
  13 C :    0.066897
  14 C :   -0.207021
  15 C :   -0.126799
  16 C :   -0.274036
  17 C :    0.316426
  18 O :   -0.356049
  19 C :   -0.265557
  20 H :    0.106390
  21 H :    0.084933
  22 H :    0.095119
  23 H :    0.097690
  24 H :    0.114512
  25 H :    0.127288
  26 H :    0.137231
  27 H :    0.094574
  28 H :    0.198885
  29 H :    0.192426
  30 H :    0.150735
  31 H :    0.151130
  32 H :    0.165835
  33 H :    0.133852
  34 H :    0.242421
  35 H :    0.172134
Sum of atomic charges:   -0.0000000

--------------------------------
MULLIKEN REDUCED ORBITAL CHARGES
--------------------------------
  0 C s       :     3.260462  s :     3.260462
      pz      :     0.960597  p :     2.921654
      px      :     0.958669
      py      :     1.002388
      dz2     :     0.003053  d :     0.071999
      dxz     :     0.022142
      dyz     :     0.025855
      dx2y2   :     0.006702
      dxy     :     0.014247
      f0      :     0.000186  f :     0.004489
      f+1     :     0.000476
      f-1     :     0.000262
      f+2     :     0.000875
      f-2     :     0.002085
      f+3     :     0.000191
      f-3     :     0.000414
  1 C s       :     3.162571  s :     3.162571
      pz      :     0.923625  p :     2.642345
      px      :     0.767862
      py      :     0.950859
      dz2     :     0.023007  d :     0.162478
      dxz     :     0.038604
      dyz     :     0.037833
      dx2y2   :     0.026797
      dxy     :     0.036237
      f0      :     0.001015  f :     0.011949
      f+1     :     0.002656
      f-1     :     0.000972
      f+2     :     0.001802
      f-2     :     0.002858
      f+3     :     0.001319
      f-3     :     0.001326
  2 O s       :     3.719747  s :     3.719747
      pz      :     1.734622  p :     4.625308
      px      :     1.595305
      py      :     1.295382
      dz2     :     0.004974  d :     0.033094
      dxz     :     0.005515
      dyz     :     0.004480
      dx2y2   :     0.012548
      dxy     :     0.005577
      f0      :     0.000306  f :     0.002294
      f+1     :     0.000174
      f-1     :     0.000410
      f+2     :     0.000292
      f-2     :     0.000302
      f+3     :     0.000249
      f-3     :     0.000561
  3 C s       :     2.997376  s :     2.997376
      pz      :     0.817554  p :     2.197885
      px      :     0.671173
      py      :     0.709158
      dz2     :     0.073687  d :     0.283440
      dxz     :     0.034188
      dyz     :     0.070133
      dx2y2   :     0.052310
      dxy     :     0.053122
      f0      :     0.004525  f :     0.026386
      f+1     :     0.002594
      f-1     :     0.003581
      f+2     :     0.006103
      f-2     :     0.002548
      f+3     :     0.004261
      f-3     :     0.002773
  4 O s       :     3.779246  s :     3.779246
      pz      :     1.452081  p :     4.581641
      px      :     1.381826
      py      :     1.747733
      dz2     :     0.009854  d :     0.035279
      dxz     :     0.008826
      dyz     :     0.007639
      dx2y2   :     0.004223
      dxy     :     0.004737
      f0      :     0.000371  f :     0.002440
      f+1     :     0.000383
      f-1     :     0.000451
      f+2     :     0.000368
      f-2     :     0.000551
      f+3     :     0.000126
      f-3     :     0.000189
  5 C s       :     3.192040  s :     3.192040
      pz      :     0.956368  p :     2.999626
      px      :     1.127957
      py      :     0.915302
      dz2     :     0.013628  d :     0.079234
      dxz     :     0.006420
      dyz     :     0.027142
      dx2y2   :     0.010662
      dxy     :     0.021383
      f0      :     0.000841  f :     0.010461
      f+1     :     0.001171
      f-1     :     0.002024
      f+2     :     0.001866
      f-2     :     0.001665
      f+3     :     0.001536
      f-3     :     0.001360
  6 C s       :     3.191275  s :     3.191275
      pz      :     0.803658  p :     2.461915
      px      :     0.820678
      py      :     0.837579
      dz2     :     0.038861  d :     0.177680
      dxz     :     0.022537
      dyz     :     0.040516
      dx2y2   :     0.024376
      dxy     :     0.051391
      f0      :     0.002241  f :     0.014412
      f+1     :     0.001438
      f-1     :     0.002281
      f+2     :     0.002139
      f-2     :     0.002306
      f+3     :     0.002261
      f-3     :     0.001746
  7 C s       :     3.272231  s :     3.272231
      pz      :     0.988199  p :     2.923818
      px      :     0.987012
      py      :     0.948607
      dz2     :     0.013487  d :     0.069492
      dxz     :     0.010965
      dyz     :     0.016163
      dx2y2   :     0.016760
      dxy     :     0.012116
      f0      :     0.000587  f :     0.004646
      f+1     :     0.000804
      f-1     :     0.000334
      f+2     :     0.000639
      f-2     :     0.000987
      f+3     :     0.000383
      f-3     :     0.000911
  8 N s       :     3.342862  s :     3.342862
      pz      :     1.287678  p :     3.717161
      px      :     1.293805
      py      :     1.135679
      dz2     :     0.012425  d :     0.059352
      dxz     :     0.011753
      dyz     :     0.010598
      dx2y2   :     0.013911
      dxy     :     0.010664
      f0      :     0.000563  f :     0.004915
      f+1     :     0.001011
      f-1     :     0.000502
      f+2     :     0.000946
      f-2     :     0.000950
      f+3     :     0.000454
      f-3     :     0.000489
  9 C s       :     3.156464  s :     3.156464
      pz      :     0.774660  p :     2.351746
      px      :     0.761055
      py      :     0.816031
      dz2     :     0.052236  d :     0.260687
      dxz     :     0.033897
      dyz     :     0.054994
      dx2y2   :     0.069237
      dxy     :     0.050323
      f0      :     0.001916  f :     0.017589
      f+1     :     0.002445
      f-1     :     0.002135
      f+2     :     0.003119
      f-2     :     0.002410
      f+3     :     0.002740
      f-3     :     0.002824
 10 S s       :     5.855932  s :     5.855932
      pz      :     3.339193  p :    10.484057
      px      :     3.549209
      py      :     3.595655
      dz2     :     0.016719  d :     0.084900
      dxz     :     0.018198
      dyz     :     0.025141
      dx2y2   :     0.004383
      dxy     :     0.020460
      f0      :     0.001080  f :     0.010129
      f+1     :     0.001284
      f-1     :     0.001971
      f+2     :     0.000880
      f-2     :     0.003285
      f+3     :     0.000811
      f-3     :     0.000819
 11 N s       :     3.376055  s :     3.376055
      pz      :     1.430439  p :     3.761457
      px      :     1.283155
      py      :     1.047863
      dz2     :     0.005662  d :     0.057986
      dxz     :     0.009273
      dyz     :     0.013693
      dx2y2   :     0.013036
      dxy     :     0.016322
      f0      :     0.000626  f :     0.004456
      f+1     :     0.000374
      f-1     :     0.000579
      f+2     :     0.000704
      f-2     :     0.000767
      f+3     :     0.000716
      f-3     :     0.000689
 12 C s       :     3.134156  s :     3.134156
      pz      :     0.860825  p :     2.626989
      px      :     0.885166
      py      :     0.880997
      dz2     :     0.031343  d :     0.181949
      dxz     :     0.034499
      dyz     :     0.043473
      dx2y2   :     0.024482
      dxy     :     0.048151
      f0      :     0.001068  f :     0.011256
      f+1     :     0.001542
      f-1     :     0.001702
      f+2     :     0.001600
      f-2     :     0.003034
      f+3     :     0.001153
      f-3     :     0.001158
 13 C s       :     3.097461  s :     3.097461
      pz      :     0.888917  p :     2.716281
      px      :     0.912214
      py      :     0.915149
      dz2     :     0.018304  d :     0.108024
      dxz     :     0.012471
      dyz     :     0.029475
      dx2y2   :     0.022009
      dxy     :     0.025765
      f0      :     0.000960  f :     0.011337
      f+1     :     0.001648
      f-1     :     0.001251
[...]
      f-1     :     0.004973
      f+2     :     0.007620
      f-2     :     0.005081
      f+3     :     0.006436
      f-3     :     0.008375
 15 C s       :     2.705948  s :     2.705948
      pz      :     0.899452  p :     2.793273
      px      :     0.933812
      py      :     0.960008
      dz2     :     0.093046  d :     0.417590
      dxz     :     0.073100
      dyz     :     0.059060
      dx2y2   :     0.104120
      dxy     :     0.088264
      f0      :     0.003513  f :     0.041131
      f+1     :     0.005519
      f-1     :     0.005785
      f+2     :     0.007502
      f-2     :     0.005930
      f+3     :     0.007037
      f-3     :     0.005845
 16 C s       :     2.701682  s :     2.701682
      pz      :     0.935765  p :     2.868160
      px      :     0.962086
      py      :     0.970308
      dz2     :     0.044131  d :     0.390127
      dxz     :     0.060390
      dyz     :     0.084949
      dx2y2   :     0.094865
      dxy     :     0.105792
      f0      :     0.003885  f :     0.040296
      f+1     :     0.004925
      f-1     :     0.004166
      f+2     :     0.006045
      f-2     :     0.005072
      f+3     :     0.008654
      f-3     :     0.007549
 17 C s       :     2.701497  s :     2.701497
      pz      :     0.854347  p :     2.679459
      px      :     0.819669
      py      :     1.005443
      dz2     :     0.127216  d :     0.710116
      dxz     :     0.111195
      dyz     :     0.136885
      dx2y2   :     0.167045
      dxy     :     0.167774
      f0      :     0.009181  f :     0.099378
      f+1     :     0.016153
      f-1     :     0.009342
      f+2     :     0.016307
      f-2     :     0.014040
      f+3     :     0.017226
      f-3     :     0.017130
 18 O s       :     3.177090  s :     3.177090
      pz      :     1.417536  p :     4.345921
      px      :     1.415986
      py      :     1.512399
      dz2     :     0.008356  d :     0.075448
      dxz     :     0.017198
      dyz     :     0.018640
      dx2y2   :     0.015523
      dxy     :     0.015731
      f0      :     0.000584  f :     0.005055
      f+1     :     0.000710
      f-1     :     0.000458
      f+2     :     0.000688
      f-2     :     0.000993
      f+3     :     0.000717
      f-3     :     0.000904
 19 C s       :     2.694951  s :     2.694951
      pz      :     0.932878  p :     2.844343
      px      :     0.951503
      py      :     0.959962
      dz2     :     0.076053  d :     0.387959
      dxz     :     0.070931
      dyz     :     0.061729
      dx2y2   :     0.090816
      dxy     :     0.088431
      f0      :     0.003441  f :     0.040763
      f+1     :     0.005735
      f-1     :     0.005453
      f+2     :     0.007448
      f-2     :     0.006513
      f+3     :     0.006706
      f-3     :     0.005467
 20 H s       :     0.846070  s :     0.846070
      pz      :     0.050752  p :     0.151319
      px      :     0.043285
      py      :     0.057282
      dz2     :     0.005358  d :     0.027500
      dxz     :     0.004488
      dyz     :     0.006528
      dx2y2   :     0.005141
      dxy     :     0.005985
 21 H s       :     0.851275  s :     0.851275
      pz      :     0.045253  p :     0.151679
      px      :     0.058721
      py      :     0.047705
      dz2     :     0.004274  d :     0.027450
      dxz     :     0.006176
      dyz     :     0.003995
      dx2y2   :     0.006750
      dxy     :     0.006256
 22 H s       :     0.848979  s :     0.848979
      pz      :     0.052515  p :     0.150143
      px      :     0.044535
      py      :     0.053094
      dz2     :     0.005960  d :     0.027533
      dxz     :     0.004977
      dyz     :     0.006297
      dx2y2   :     0.005405
      dxy     :     0.004894
 23 H s       :     0.855044  s :     0.855044
      pz      :     0.056475  p :     0.150261
      px      :     0.042252
      py      :     0.051534
      dz2     :     0.006159  d :     0.027274
      dxz     :     0.005036
      dyz     :     0.006536
      dx2y2   :     0.003885
      dxy     :     0.005659
 24 H s       :     0.851030  s :     0.851030
      pz      :     0.052592  p :     0.148090
      px      :     0.035183
      py      :     0.060314
      dz2     :     0.005354  d :     0.027190
      dxz     :     0.004088
      dyz     :     0.007213
      dx2y2   :     0.005437
      dxy     :     0.005097
 25 H s       :     0.827670  s :     0.827670
      pz      :     0.040196  p :     0.150373
      px      :     0.067357
      py      :     0.042820
      dz2     :     0.002346  d :     0.027751
      dxz     :     0.008019
      dyz     :     0.001842
      dx2y2   :     0.008200
      dxy     :     0.007343
 26 H s       :     0.823183  s :     0.823183
      pz      :     0.070301  p :     0.151592
      px      :     0.043576
      py      :     0.037716
      dz2     :     0.009185  d :     0.027749
      dxz     :     0.007586
      dyz     :     0.007904
      dx2y2   :     0.001499
      dxy     :     0.001574
 27 H s       :     0.845009  s :     0.845009
      pz      :     0.043556  p :     0.150353
      px      :     0.040028
      py      :     0.066769
      dz2     :     0.004450  d :     0.027701
      dxz     :     0.001768
      dyz     :     0.007341
      dx2y2   :     0.006115
      dxy     :     0.008027
 28 H s       :     0.742167  s :     0.742167
      pz      :     0.065562  p :     0.253269
      px      :     0.067194
      py      :     0.120512
      dz2     :     0.006205  d :     0.061754
      dxz     :     0.002244
      dyz     :     0.018077
      dx2y2   :     0.016951
      dxy     :     0.018278
 29 H s       :     0.749834  s :     0.749834
      pz      :     0.099045  p :     0.254411
      px      :     0.104109
      py      :     0.051257
      dz2     :     0.014621  d :     0.061371
      dxz     :     0.013997
      dyz     :     0.008310
      dx2y2   :     0.013738
      dxy     :     0.010704
 30 H s       :     0.830528  s :     0.830528
      pz      :     0.048859  p :     0.147265
      px      :     0.049928
      py      :     0.048479
      dz2     :     0.005152  d :     0.028370
      dxz     :     0.006202
      dyz     :     0.005505
      dx2y2   :     0.005055
      dxy     :     0.006456
 31 H s       :     0.843904  s :     0.843904
      pz      :     0.052295  p :     0.158063
      px      :     0.067143
      py      :     0.038625
      dz2     :     0.004915  d :     0.027532
      dxz     :     0.006834
      dyz     :     0.003164
      dx2y2   :     0.006302
      dxy     :     0.006318
 32 H s       :     0.841983  s :     0.841983
      pz      :     0.037518  p :     0.151119
      px      :     0.039944
      py      :     0.073656
      dz2     :     0.002769  d :     0.026417
      dxz     :     0.001022
      dyz     :     0.007094
      dx2y2   :     0.007665
      dxy     :     0.007867
 33 H s       :     0.847498  s :     0.847498
      pz      :     0.059689  p :     0.158717
      px      :     0.048070
      py      :     0.050959
      dz2     :     0.006486  d :     0.027717
      dxz     :     0.005086
      dyz     :     0.006093
      dx2y2   :     0.005230
      dxy     :     0.004823
 34 H s       :     0.705545  s :     0.705545
      pz      :     0.119985  p :     0.347170
      px      :     0.084555
      py      :     0.142630
      dz2     :     0.025797  d :     0.099392
      dxz     :     0.013550
      dyz     :     0.024107
      dx2y2   :     0.018133
      dxy     :     0.017805
 35 H s       :     0.838659  s :     0.838659
      pz      :     0.040459  p :     0.158921
      px      :     0.042555
      py      :     0.075907
      dz2     :     0.002856  d :     0.028181
      dxz     :     0.001070
      dyz     :     0.007885
      dx2y2   :     0.008120
      dxy     :     0.008250


                      *****************************
                      * MAYER POPULATION ANALYSIS *
                      *****************************

  NA   - Mulliken gross atomic population
  ZA   - Total nuclear charge
  QA   - Mulliken gross atomic charge
  VA   - Mayer's total valence
  BVA  - Mayer's bonded valence
  FA   - Mayer's free valence

  ATOM       NA         ZA         QA         VA         BVA        FA
  0 C      6.2586     6.0000    -0.2586     3.9002     3.9002     0.0000
  1 C      5.9793     6.0000     0.0207     3.8569     3.8569    -0.0000
  2 O      8.3804     8.0000    -0.3804     1.9768     1.9768    -0.0000
  3 C      5.5051     6.0000     0.4949     4.2358     4.2358    -0.0000
  4 O      8.3986     8.0000    -0.3986     2.1044     2.1044     0.0000
  5 C      6.2814     6.0000    -0.2814     3.6568     3.6568     0.0000
  6 C      5.8453     6.0000     0.1547     3.8814     3.8814    -0.0000
  7 C      6.2702     6.0000    -0.2702     3.9109     3.9109     0.0000
  8 N      7.1243     7.0000    -0.1243     3.3019     3.3019    -0.0000
  9 C      5.7865     6.0000     0.2135     4.1459     4.1459    -0.0000
 10 S     16.4350    16.0000    -0.4350     1.7629     1.7629     0.0000
 11 N      7.2000     7.0000    -0.2000     3.2338     3.2338    -0.0000
 12 C      5.9543     6.0000     0.0457     3.9544     3.9544    -0.0000
 13 C      5.9331     6.0000     0.0669     3.7136     3.7136    -0.0000
 14 C      6.2070     6.0000    -0.2070     3.8400     3.8400    -0.0000
 15 C      6.1268     6.0000    -0.1268     3.7993     3.7993    -0.0000
 16 C      6.2740     6.0000    -0.2740     3.7907     3.7907    -0.0000
 17 C      5.6836     6.0000     0.3164     3.8829     3.8829    -0.0000
 18 O      8.3560     8.0000    -0.3560     2.1207     2.1207    -0.0000
 19 C      6.2656     6.0000    -0.2656     3.8166     3.8166    -0.0000
 20 H      0.8936     1.0000     0.1064     0.9916     0.9916    -0.0000
 21 H      0.9151     1.0000     0.0849     0.9814     0.9814     0.0000
 22 H      0.9049     1.0000     0.0951     0.9860     0.9860    -0.0000
 23 H      0.9023     1.0000     0.0977     0.9761     0.9761    -0.0000
 24 H      0.8855     1.0000     0.1145     0.9758     0.9758    -0.0000
 25 H      0.8727     1.0000     0.1273     0.9798     0.9798    -0.0000
 26 H      0.8628     1.0000     0.1372     0.9792     0.9792    -0.0000
 27 H      0.9054     1.0000     0.0946     0.9857     0.9857    -0.0000
 28 H      0.8011     1.0000     0.1989     1.0216     1.0216    -0.0000
 29 H      0.8076     1.0000     0.1924     1.0201     1.0201    -0.0000
 30 H      0.8493     1.0000     0.1507     0.9939     0.9939    -0.0000
 31 H      0.8489     1.0000     0.1511     0.9852     0.9852    -0.0000
 32 H      0.8342     1.0000     0.1658     0.9758     0.9758    -0.0000
 33 H      0.8661     1.0000     0.1339     0.9906     0.9906    -0.0000
 34 H      0.7576     1.0000     0.2424     1.0096     1.0096    -0.0000
 35 H      0.8279     1.0000     0.1721     0.9850     0.9850    -0.0000

  Mayer bond orders larger than 0.100000
B(  0-C ,  1-C ) :   0.9820 B(  0-C , 20-H ) :   0.9752 B(  0-C , 21-H ) :   0.9777 
B(  0-C , 22-H ) :   0.9803 B(  1-C ,  2-O ) :   0.8683 B(  1-C , 23-H ) :   0.9675 
B(  1-C , 24-H ) :   0.9753 B(  2-O ,  3-C ) :   1.1052 B(  3-C ,  4-O ) :   2.0274 
B(  3-C ,  5-C ) :   1.0527 B(  5-C ,  6-C ) :   1.6503 B(  5-C , 12-C ) :   0.9694 
B(  6-C ,  7-C ) :   0.9722 B(  6-C ,  8-N ) :   1.1570 B(  7-C , 25-H ) :   0.9639 
B(  7-C , 26-H ) :   0.9559 B(  7-C , 27-H ) :   0.9884 B(  8-N ,  9-C ) :   1.1779 
B(  8-N , 28-H ) :   0.9481 B(  9-C , 10-S ) :   1.6139 B(  9-C , 11-N ) :   1.3025 
B( 11-N , 12-C ) :   0.9667 B( 11-N , 29-H ) :   0.9538 B( 12-C , 13-C ) :   0.9538 
B( 12-C , 30-H ) :   1.0008 B( 13-C , 14-C ) :   1.3484 B( 13-C , 19-C ) :   1.3596 
B( 14-C , 15-C ) :   1.3854 B( 14-C , 31-H ) :   0.9764 B( 15-C , 16-C ) :   1.3672 
B( 15-C , 32-H ) :   0.9686 B( 16-C , 17-C ) :   1.3276 B( 16-C , 33-H ) :   0.9834 
B( 17-C , 18-O ) :   1.1152 B( 17-C , 19-C ) :   1.3716 B( 18-O , 34-H ) :   0.9786 
B( 19-C , 35-H ) :   0.9566 

-------
TIMINGS
-------

Total SCF time: 0 days 1 hours 35 min 34 sec 

Total time                  ....    5734.212 sec
Sum of individual times     ....    5725.869 sec  ( 99.9%)

Fock matrix formation       ....    5699.993 sec  ( 99.4%)
Diagonalization             ....       5.065 sec  (  0.1%)
Density matrix formation    ....       0.193 sec  (  0.0%)
Population analysis         ....       0.712 sec  (  0.0%)
Initial guess               ....       5.074 sec  (  0.1%)
Orbital Transformation      ....       0.000 sec  (  0.0%)
Orbital Orthonormalization  ....       0.000 sec  (  0.0%)
DIIS solution               ....       8.084 sec  (  0.1%)
SOSCF solution              ....       5.601 sec  (  0.1%)

------------------------------------------------------------------------------
                                ORCA  MP2 
------------------------------------------------------------------------------

Freezing NCore=48 chemical core electrons

-------------
RI-MP2 ENERGY
-------------
Dimension of the basis                    ...  828
Memory devoted to MP2                     ...  256 MB   
Data format for buffers                   ... DOUBLE
Compression type for matrix containers    ... UNCOMPRESSED
Overall scaling of the MP2 energy         ...   1.000e+00
Calculating two index integrals           ... done (    0.032 sec)
Cholesky decomposition of V**-1           ... done (    1.686 sec)

-----------------
RI-TRANSFORMATION (AUX index driven)
-----------------

Dimension of the orbital-basis         ... 828
Dimension of the aux-basis             ... 2141
Transformation of internal/external MOs...   24-  76 to   77- 827
Number Format for Storage              ... Double (8 Byte)
Integral mode                          ... Direct

First Phase: integral generation and transformation of MO indices
  Aux angular momentum 0               ... done (    8.372 sec)
  Aux angular momentum 1               ... done (   15.946 sec)
  Aux angular momentum 2               ... done (   23.119 sec)
  Aux angular momentum 3               ... done (   19.146 sec)
  Aux angular momentum 4               ... done (    6.829 sec)
Closing buffer VIA ( 0.63 GB; CompressionRatio= 1.00)
  Phase 1 completed in    73.657 sec
Second Phase: sorting and transformation of aux index

IA-Transformation
Memory available                       ... 167 MB 
Max. # MO pairs treated in a batch     ... 12    
# of internal orbitals                 ... 53
# batches for internal orbitals        ... 5
Closing buffer IAV ( 0.63 GB; CompressionRatio= 1.00)
(ia|v) transformation done in    82.492 sec

  Phase 2 completed in    82.496 sec
RI-Integral transformation completed in   156.192 sec
Opening buffers                              ... done

Starting loop over batches of integrals:

Operator 0  - window                       ... ( 24- 76)x( 77-827)
Operator 0  - Memory available             ...   256 MB
Operator 0  - Memory needed per MO         ...  12.3 MB
Operator 0  - Number of orbitals per batch ... 13
Operator 0  - Number of batches            ... 5

OPERATOR  0   PASS   0:  MOs    24 ...   36
  Reading integrals       ... ok
  Internal MO  26
  Internal MO  29
  Internal MO  32
  Internal MO  35
OPERATOR  0   PASS   1:  MOs    37 ...   49
  Reading integrals       ... ok
  Internal MO  38
  Internal MO  41
  Internal MO  44
  Internal MO  47
OPERATOR  0   PASS   2:  MOs    50 ...   62
  Reading integrals       ... ok
  Internal MO  50
  Internal MO  53
  Internal MO  56
  Internal MO  59
  Internal MO  62
OPERATOR  0   PASS   3:  MOs    63 ...   75
  Reading integrals       ... ok
  Internal MO  65
  Internal MO  68
  Internal MO  71
  Internal MO  74
OPERATOR  0   PASS   4:  MOs    76 ...   76
  Reading integrals       ... ok
Time spent in pair loops =   427.073 sec
Deleting buffer (Ka|jb)[aa] ...done

-----------------------------------------------
 RI-MP2 CORRELATION ENERGY:     -3.535206128 Eh
-----------------------------------------------


-------
TIMINGS
-------

Total time                :  585.412 sec
Integral trafo            :  156.213 sec ( 26.7%)
I/O of integrals          :    7.080 sec (  1.2%)
K(i,j) Operators          :  373.082 sec ( 63.7%)
T(i,j) pair energies      :    3.268 sec (  0.6%)
V-calculation             :    0.032 sec (  0.0%)
V**(-1/2)                 :    1.686 sec (  0.3%)
Gamma(ia|P)               :    0.000 sec (  0.0%)
Gamma-Trafo               :    0.000 sec (  0.0%)
D(virtual)                :    0.000 sec (  0.0%)
D(internal)               :    0.000 sec (  0.0%)
W(virtual)                :    0.000 sec (  0.0%)
W(internal)               :    0.000 sec (  0.0%)
L(virtual)                :    0.000 sec (  0.0%)
L(internal)               :    0.000 sec (  0.0%)
G(D)                      :    0.000 sec (  0.0%)
G(Z)                      :    0.000 sec (  0.0%)
Z-Vector Solution         :    0.000 sec (  0.0%)
3-Index Derivative        :    0.000 sec (  0.0%)
2-Index Derivative        :    0.000 sec (  0.0%)
Separable Gradient        :    0.000 sec (  0.0%)


---------------------------------------
MP2 TOTAL ENERGY:    -1274.328185905 Eh
---------------------------------------

-------------------------   --------------------
FINAL SINGLE POINT ENERGY     -1274.328185904666
-------------------------   --------------------


                            ***************************************
                            *     ORCA property calculations      *
                            ***************************************


  WARNING: The energy has been calculated at the MP2 level but the densities
           used in the property calculations are still SCF densities
           MP2 response densities have not been calculated 
           use %mp2 Density relaxed end
           or  %mp2 Density unrelaxed end

                                    ---------------------
                                    Active property flags
                                    ---------------------
   (+) Dipole Moment


------------------------------------------------------------------------------
                       ORCA ELECTRIC PROPERTIES CALCULATION
------------------------------------------------------------------------------

Dipole Moment Calculation                       ... on
Quadrupole Moment Calculation                   ... off
Polarizability Calculation                      ... off
GBWName                                         ... CONFS/Conf766.orca.gbw
Electron density file                           ... CONFS/Conf766.orca.scfp
The origin for moment calculation is the CENTER OF MASS  = (32.889402, 31.461377 35.224395)

-------------
DIPOLE MOMENT
-------------
                                X             Y             Z
Electronic contribution:     10.46716       9.44796       6.69394
Nuclear contribution   :    -11.49644     -10.92068      -6.28048
                        -----------------------------------------
Total Dipole Moment    :     -1.02928      -1.47271       0.41346
                        -----------------------------------------
Magnitude (a.u.)       :      1.84370
Magnitude (Debye)      :      4.68632



--------------------
Rotational spectrum 
--------------------
 
Rotational constants in cm-1:     0.011767     0.009269     0.006402 
Rotational constants in MHz :   352.766387   277.889755   191.912422 

 Dipole components along the rotational axes: 
x,y,z [a.u.] :    -1.692135    -0.662425     0.311630 
x,y,z [Debye]:    -4.301065    -1.683751     0.792101 

 

Timings for individual modules:

Sum of individual times         ...     6321.650 sec (= 105.361 min)
GTO integral calculation        ...        1.342 sec (=   0.022 min)   0.0 %
SCF iterations                  ...     5734.268 sec (=  95.571 min)  90.7 %
MP2 module                      ...      586.041 sec (=   9.767 min)   9.3 %
                             ****ORCA TERMINATED NORMALLY****
TOTAL RUN TIME: 0 days 1 hours 45 minutes 23 seconds 150 msec
