
                                 *****************
                                 * O   R   C   A *
                                 *****************

           --- An Ab Initio, DFT and Semiempirical electronic structure package ---

                  #######################################################
                  #                        -***-                        #
                  #          Department of theory and spectroscopy      #
                  #               Directorship: Frank Neese             #
                  #        Max Planck Institute fuer Kohlenforschung    #
                  #                Kaiser Wilhelm Platz 1               #
                  #                 D-45470 Muelheim/Ruhr               #
                  #                      Germany                        #
                  #                                                     #
                  #                  All rights reserved                #
                  #                        -***-                        #
                  #######################################################


                         Program Version 4.2.0 -  RELEASE  -


 With contributions from (in alphabetic order):
   Daniel Aravena         : Magnetic Suceptibility
   Michael Atanasov       : Ab Initio Ligand Field Theory (pilot matlab implementation)
   Alexander A. Auer      : GIAO ZORA, VPT2
   Ute Becker             : Parallelization
   Giovanni Bistoni       : ED, misc. LED, open-shell LED, HFLED
   Martin Brehm           : Molecular dynamics
   Dmytro Bykov           : SCF Hessian
   Vijay G. Chilkuri      : MRCI spin determinant printing, contributions to CSF-ICE
   Dipayan Datta          : RHF DLPNO-CCSD density
   Achintya Kumar Dutta   : EOM-CC, STEOM-CC
   Dmitry Ganyushin       : Spin-Orbit,Spin-Spin,Magnetic field MRCI
   Miquel Garcia          : C-PCM Hessian, Gaussian charge scheme
   Yang Guo               : DLPNO-NEVPT2, CIM, IAO-localization
   Andreas Hansen         : Spin unrestricted coupled pair/coupled cluster methods
   Benjamin Helmich-Paris : CASSCF linear response (MC-RPA)
   Lee Huntington         : MR-EOM, pCC
   Robert Izsak           : Overlap fitted RIJCOSX, COSX-SCS-MP3, EOM
   Christian Kollmar      : KDIIS, OOCD, Brueckner-CCSD(T), CCSD density
   Simone Kossmann        : Meta GGA functionals, TD-DFT gradient, OOMP2, MP2 Hessian
   Martin Krupicka        : AUTO-CI
   Lucas Lang             : DCDCAS
   Dagmar Lenk            : GEPOL surface, SMD
   Dimitrios Liakos       : Extrapolation schemes; Compound Job, initial MDCI parallelization
   Dimitrios Manganas     : Further ROCIS development; embedding schemes
   Dimitrios Pantazis     : SARC Basis sets
   Taras Petrenko         : DFT Hessian,TD-DFT gradient, ASA, ECA, R-Raman, ABS, FL, XAS/XES, NRVS
   Peter Pinski           : DLPNO-MP2, DLPNO-MP2 Gradient
   Christoph Reimann      : Effective Core Potentials
   Marius Retegan         : Local ZFS, SOC
   Christoph Riplinger    : Optimizer, TS searches, QM/MM, DLPNO-CCSD(T), (RO)-DLPNO pert. Triples
   Tobias Risthaus        : Range-separated hybrids, TD-DFT gradient, RPA, STAB
   Michael Roemelt        : Original ROCIS implementation
   Masaaki Saitow         : Open-shell DLPNO-CCSD energy and density
   Barbara Sandhoefer     : DKH picture change effects
   Avijit Sen             : IP-ROCIS
   Kantharuban Sivalingam : CASSCF convergence, NEVPT2, FIC-MRCI
   Bernardo de Souza      : ESD, SOC TD-DFT
   Georgi Stoychev        : AutoAux, RI-MP2 NMR
   Willem Van den Heuvel  : Paramagnetic NMR
   Boris Wezisla          : Elementary symmetry handling
   Frank Wennmohs         : Technical directorship


 We gratefully acknowledge several colleagues who have allowed us to
 interface, adapt or use parts of their codes:
   Stefan Grimme, W. Hujo, H. Kruse,             : VdW corrections, initial TS optimization,
                  C. Bannwarth                     DFT functionals, gCP, sTDA/sTD-DF
   Ed Valeev, F. Pavosevic, A. Kumar             : LibInt (2-el integral package), F12 methods
   Garnet Chan, S. Sharma, J. Yang, R. Olivares  : DMRG
   Ulf Ekstrom                                   : XCFun DFT Library
   Mihaly Kallay                                 : mrcc  (arbitrary order and MRCC methods)
   Andreas Klamt, Michael Diedenhofen            : otool_cosmo (COSMO solvation model)
   Jiri Pittner, Ondrej Demel                    : Mk-CCSD
   Frank Weinhold                                : gennbo (NPA and NBO analysis)
   Christopher J. Cramer and Donald G. Truhlar   : smd solvation model
   Lars Goerigk                                  : TD-DFT with DH, B97 family of functionals
   V. Asgeirsson, H. Jonsson                     : NEB implementation
   FAccTs GmbH                                   : IRC, NEB, NEB-TS, Multilevel, MM, QM/MM, CI optimization
   S Lehtola, MJT Oliveira, MAL Marques          : LibXC Library


 Your calculation uses the libint2 library for the computation of 2-el integrals
 For citations please refer to: http://libint.valeyev.net

 Your ORCA version has been built with support for libXC version: 4.2.3
 For citations please refer to: https://tddft.org/programs/libxc/

 This ORCA versions uses:
   CBLAS   interface :  Fast vector & matrix operations
   LAPACKE interface :  Fast linear algebra routines
   SCALAPACK package :  Parallel linear algebra routines


----- Orbital basis set information -----
Your calculation utilizes the basis: cc-pVTZ 
       H, B-Ne : Obtained from the ccRepo (grant-hill.group.shef.ac.uk/ccrepo) Feb. 2017
                 T. H. Dunning, Jr., J. Chem. Phys. 90, 1007 (1989)
            He : Obtained from the ccRepo (grant-hill.group.shef.ac.uk/ccrepo) Feb. 2017
                 D. E. Woon, T. H. Dunning, Jr., J. Chem. Phys. 100, 2975 (1994)
  Li-Be, Na-Mg : Obtained from the ccRepo (grant-hill.group.shef.ac.uk/ccrepo) Feb. 2017
                 B. P. Prascher, D. E. Woon, K. A. Peterson, T. H. Dunning, Jr., A. K. Wilson, Theor. Chem. Acc. 128, 69 (2011)
         Al-Ar : Obtained from the ccRepo (grant-hill.group.shef.ac.uk/ccrepo) Feb. 2017
                 D. E. Woon, T. H. Dunning, Jr., J. Chem. Phys. 98, 1358 (1993)
            Ca : Obtained from the Peterson Research Group Website (tyr0.chem.wsu.edu/~kipeters) Feb. 2017
                 J. Koput, K. A. Peterson, J. Phys. Chem. 106, 9595 (2002)
         Sc-Zn : Obtained from the ccRepo (grant-hill.group.shef.ac.uk/ccrepo) Feb. 2017
                 N. B. Balabanov, K. A. Peterson, J. Chem. Phys. 123, 064107 (2005)
                 N. B. Balabanov, K. A. Peterson, J. Chem. Phys. 125, 074110 (2006)
         Ga-Kr : Obtained from the ccRepo (grant-hill.group.shef.ac.uk/ccrepo) Feb. 2017
                 A. K. Wilson, D. E. Woon, K. A. Peterson, T. H. Dunning, Jr., J. Chem. Phys. 110, 7667 (1999)
             Y : Obtained from the ccRepo (grant-hill.group.shef.ac.uk/ccrepo) Feb. 2017
                 K. A. Peterson, D. Figgen, M. Dolg, H. Stoll, J. Chem. Phys. 126, 124101 (2007)
        Ag, Au : Obtained from the Peterson Research Group Website (tyr0.chem.wsu.edu/~kipeters) Feb. 2017
                 K. A. Peterson, C. Puzzarini, Theor. Chem. Acc. 114, 283 (2005)

----- AuxC basis set information -----
Your calculation utilizes the auxiliary basis: cc-pVTZ/C 
  Obtained from the EMSL Basis Set Exchange (bse.pnl.gov) Feb. 2017
  H-He, B-F, Al-Ar, Ga-Kr : F. Weigend, A. Kohn, C. Hattig, J. Chem. Phys. 116, 3175 (2002)
             Li-Be, Na-Mg : C. Haettig, Phys. Chem. Chem. Phys. 7, 59 (2005)
                       Ne : C. Haettig, Phys. Chem. Chem. Phys. 7, 59 (2005)
                            F. Weigend, A. Kohn, C. Hattig, J. Chem. Phys. 116, 3175 (2002)
                    Sc-Zn : J. G. Hill, J. A. Platts, J. Chem. Phys. 128, 044104 (2008)

================================================================================
                                        WARNINGS
                       Please study these warnings very carefully!
================================================================================


WARNING: No MP2 level density has been requested!
         To caclulate MP2 level properties use
         %mp2 Density relaxed end
         or
         %mp2 Density unrelaxed end

WARNING: Post HF methods need fully converged wavefunctions
  ===> : Setting SCFConvForced true
         You can overwrite this default with %scf ConvForced false 


INFO   : the flag for use of LIBINT has been found!

================================================================================
                                       INPUT FILE
================================================================================
NAME = CONFS/Conf734.orca
|  1> ! ri-mp2 cc-pvtz cc-pvtz/c TightSCF  NoKeepInts
|  2> 
|  3> %scf
|  4>   MaxCore 4096
|  5> end
|  6> *xyz  0  1
|  7>     C       14.9239038   14.3175786   16.0597084
|  8>     C       16.0784476   14.5782132   17.0428489
|  9>     O       17.2034746   15.0541000   16.2802785
| 10>     C       17.3589734   16.3976625   16.0982692
| 11>     O       16.9964488   16.9045933   15.0529267
| 12>     C       17.6779060   17.1833238   17.3433607
| 13>     C       17.3533733   18.4957599   17.4672156
| 14>     C       16.5078660   19.3249404   16.5249316
| 15>     N       17.8622161   19.2429745   18.5341247
| 16>     C       18.8842089   18.8282404   19.3474023
| 17>     S       19.5908019   19.8357591   20.4521258
| 18>     N       19.3014100   17.5306601   19.1854769
| 19>     C       18.5735921   16.5141786   18.4034775
| 20>     C       17.8306597   15.5997102   19.3714038
| 21>     C       18.2257288   14.2568112   19.5215554
| 22>     C       17.5478619   13.4074459   20.4120799
| 23>     C       16.4715354   13.9060362   21.1654458
| 24>     C       16.0847292   15.2461372   21.0301262
| 25>     O       15.0466728   15.7314476   21.7559162
| 26>     C       16.7594584   16.0887393   20.1414028
| 27>     H       14.6249143   15.2453158   15.5553385
| 28>     H       14.0502522   13.9171316   16.5879226
| 29>     H       15.2255642   13.5923209   15.2936263
| 30>     H       15.7552918   15.3037392   17.7985182
| 31>     H       16.3395888   13.6376324   17.5444626
| 32>     H       15.5910023   18.7885124   16.2497299
| 33>     H       17.0567638   19.5292849   15.5964297
| 34>     H       16.2068438   20.2866694   16.9565627
| 35>     H       17.5824968   20.2045762   18.6465228
| 36>     H       20.0441790   17.2463536   19.8113557
| 37>     H       19.3196538   15.9102492   17.8674713
| 38>     H       19.0575661   13.8668237   18.9402718
| 39>     H       17.8590068   12.3693056   20.5187186
| 40>     H       15.9459148   13.2537723   21.8555064
| 41>     H       14.7593172   15.0311355   22.3614160
| 42>     H       16.4493758   17.1248651   20.0600699
| 43> *
| 44> 
| 45>                          ****END OF INPUT****
================================================================================

                       ****************************
                       * Single Point Calculation *
                       ****************************

---------------------------------
CARTESIAN COORDINATES (ANGSTROEM)
---------------------------------
  C     14.923904   14.317579   16.059708
  C     16.078448   14.578213   17.042849
  O     17.203475   15.054100   16.280279
  C     17.358973   16.397662   16.098269
  O     16.996449   16.904593   15.052927
  C     17.677906   17.183324   17.343361
  C     17.353373   18.495760   17.467216
  C     16.507866   19.324940   16.524932
  N     17.862216   19.242974   18.534125
  C     18.884209   18.828240   19.347402
  S     19.590802   19.835759   20.452126
  N     19.301410   17.530660   19.185477
  C     18.573592   16.514179   18.403478
  C     17.830660   15.599710   19.371404
  C     18.225729   14.256811   19.521555
  C     17.547862   13.407446   20.412080
  C     16.471535   13.906036   21.165446
  C     16.084729   15.246137   21.030126
  O     15.046673   15.731448   21.755916
  C     16.759458   16.088739   20.141403
  H     14.624914   15.245316   15.555338
  H     14.050252   13.917132   16.587923
  H     15.225564   13.592321   15.293626
  H     15.755292   15.303739   17.798518
  H     16.339589   13.637632   17.544463
  H     15.591002   18.788512   16.249730
  H     17.056764   19.529285   15.596430
  H     16.206844   20.286669   16.956563
  H     17.582497   20.204576   18.646523
  H     20.044179   17.246354   19.811356
  H     19.319654   15.910249   17.867471
  H     19.057566   13.866824   18.940272
  H     17.859007   12.369306   20.518719
  H     15.945915   13.253772   21.855506
  H     14.759317   15.031135   22.361416
  H     16.449376   17.124865   20.060070

----------------------------
CARTESIAN COORDINATES (A.U.)
----------------------------
  NO LB      ZA    FRAG     MASS         X           Y           Z
   0 C     6.0000    0    12.011   28.202091   27.056302   30.348451
   1 C     6.0000    0    12.011   30.383863   27.548830   32.206317
   2 O     8.0000    0    15.999   32.509856   28.448126   30.765268
   3 C     6.0000    0    12.011   32.803706   30.987091   30.421320
   4 O     8.0000    0    15.999   32.118633   31.945052   28.445909
   5 C     6.0000    0    12.011   33.406401   32.471776   32.774202
   6 C     6.0000    0    12.011   32.793123   34.951921   33.008254
   7 C     6.0000    0    12.011   31.195346   36.518845   31.227595
   8 N     7.0000    0    14.007   33.754697   36.363952   35.024420
   9 C     6.0000    0    12.011   35.685983   35.580218   36.561292
  10 S    16.0000    0    32.060   37.021250   37.484152   38.648917
  11 N     7.0000    0    14.007   36.474379   33.128147   36.255297
  12 C     6.0000    0    12.011   35.099002   31.207275   34.777532
  13 C     6.0000    0    12.011   33.695064   29.479180   36.606648
  14 C     6.0000    0    12.011   34.441636   26.941469   36.890393
  15 C     6.0000    0    12.011   33.160653   25.336401   38.573241
  16 C     6.0000    0    12.011   31.126691   26.278600   39.996896
  17 C     6.0000    0    12.011   30.395733   28.811024   39.741179
  18 O     8.0000    0    15.999   28.434091   29.728128   41.112723
  19 C     6.0000    0    12.011   31.670787   30.403311   38.061735
  20 H     1.0000    0     1.008   27.637083   28.809472   29.395330
  21 H     1.0000    0     1.008   26.551129   26.299567   31.346631
  22 H     1.0000    0     1.008   28.772147   25.685764   28.900765
  23 H     1.0000    0     1.008   29.773187   28.919876   33.634325
  24 H     1.0000    0     1.008   30.877348   25.771390   33.154229
  25 H     1.0000    0     1.008   29.462725   35.505143   30.707539
  26 H     1.0000    0     1.008   32.232612   36.905000   29.472981
  27 H     1.0000    0     1.008   30.626496   38.336249   32.043260
  28 H     1.0000    0     1.008   33.226104   38.181116   35.236821
  29 H     1.0000    0     1.008   37.878009   32.590885   37.438037
  30 H     1.0000    0     1.008   36.508855   30.066014   33.764627
  31 H     1.0000    0     1.008   36.013581   26.204499   35.791927
  32 H     1.0000    0     1.008   33.748632   23.374600   38.774759
  33 H     1.0000    0     1.008   30.133412   25.046000   41.300922
  34 H     1.0000    0     1.008   27.891067   28.404730   42.256952
  35 H     1.0000    0     1.008   31.084815   32.361305   37.908038

--------------------------------
INTERNAL COORDINATES (ANGSTROEM)
--------------------------------
 C      0   0   0     0.000000000000     0.00000000     0.00000000
 C      1   0   0     1.538657539408     0.00000000     0.00000000
 O      2   1   0     1.440023476232   107.68818493     0.00000000
 C      3   2   1     1.364722482226   119.01184537    91.35398650
 O      4   3   2     1.217022540424   119.38582771   260.80174722
 C      4   3   2     1.506397864122   115.29974552    67.13639385
 C      6   4   3     1.357626615166   121.93676857   206.56144903
 C      7   6   4     1.513380993864   127.33040373     8.17252266
 N      7   6   4     1.398408267005   119.94492293   190.82069094
 C      9   7   6     1.370362766430   124.22517248    13.22349152
 S     10   9   7     1.653717512138   122.05452021   171.01275614
 N     10   9   7     1.372585599500   116.28119796   351.68784495
 C     12  10   9     1.474610659463   124.34634982   347.95953822
 C     13  12  10     1.524822064308   108.49667934   257.83635440
 C     14  13  12     1.407836219508   120.20098711   248.31337610
 C     15  14  13     1.404976452493   120.58819329   179.93332012
 C     16  15  14     1.405215713383   119.66091916   359.59053179
 C     17  16  15     1.401356885559   119.93086780   359.68605458
 O     18  17  16     1.356413800442   120.11381339   180.02741501
 C     18  17  16     1.398237130806   120.29519093     0.43107749
 H      1   2   3     1.097488054331   110.78578114   297.96672662
 H      1   2   3     1.096647235474   110.60165013   177.94361579
 H      1   2   3     1.097214433134   110.59714535    57.97093506
 H      2   1   3     1.096290900588   109.35081394   122.07043627
 H      2   1   3     1.097498643140   108.99028047   240.89222911
 H      8   7   6     1.097328583080   110.80073018    46.56351110
 H      8   7   6     1.097798363921   110.44197824   287.86177760
 H      8   7   6     1.096285747796   112.88686256   166.99937158
 H      9   7   6     1.007747016428   119.60115631   182.96474378
 H     12  10   9     1.012057431964   114.56273869   181.16226641
 H     13  12  10     1.099382293304   107.59452369   141.10768492
 H     15  14  13     1.087167957335   119.99088674   359.48998858
 H     16  15  14     1.088998734443   120.03464658   179.79895885
 H     17  16  15     1.085315088838   119.90652216   180.08049316
 H     19  18  17     0.969350445431   107.61463661     5.10994248
 H     20  18  17     1.084584221198   119.03827054   180.59961287

---------------------------
INTERNAL COORDINATES (A.U.)
---------------------------
 C      0   0   0     0.000000000000     0.00000000     0.00000000
 C      1   0   0     2.907641363374     0.00000000     0.00000000
 O      2   1   0     2.721249996496   107.68818493     0.00000000
 C      3   2   1     2.578951740213   119.01184537    91.35398650
 O      4   3   2     2.299839300210   119.38582771   260.80174722
 C      4   3   2     2.846679411915   115.29974552    67.13639385
 C      6   4   3     2.565542494786   121.93676857   206.56144903
 C      7   6   4     2.859875614685   127.33040373     8.17252266
 N      7   6   4     2.642608648051   119.94492293   190.82069094
 C      9   7   6     2.589610332675   124.22517248    13.22349152
 S     10   9   7     3.125073200810   122.05452021   171.01275614
 N     10   9   7     2.593810878419   116.28119796   351.68784495
 C     12  10   9     2.786610300547   124.34634982   347.95953822
 C     13  12  10     2.881496104502   108.49667934   257.83635440
 C     14  13  12     2.660424896285   120.20098711   248.31337610
 C     15  14  13     2.655020719820   120.58819329   179.93332012
 C     16  15  14     2.655472857377   119.66091916   359.59053179
 C     17  16  15     2.648180729591   119.93086780   359.68605458
 O     18  17  16     2.563250607106   120.11381339   180.02741501
 C     18  17  16     2.642285247503   120.29519093     0.43107749
 H      1   2   3     2.073951857936   110.78578114   297.96672662
 H      1   2   3     2.072362940568   110.60165013   177.94361579
 H      1   2   3     2.073434788809   110.59714535    57.97093506
 H      2   1   3     2.071689565221   109.35081394   122.07043627
 H      2   1   3     2.073971867884   108.99028047   240.89222911
 H      8   7   6     2.073650500945   110.80073018    46.56351110
 H      8   7   6     2.074538258078   110.44197824   287.86177760
 H      8   7   6     2.071679827856   112.88686256   166.99937158
 H      9   7   6     1.904365873325   119.60115631   182.96474378
 H     12  10   9     1.912511378211   114.56273869   181.16226641
 H     13  12  10     2.077531450826   107.59452369   141.10768492
 H     15  14  13     2.054449700938   119.99088674   359.48998858
 H     16  15  14     2.057909368284   120.03464658   179.79895885
 H     17  16  15     2.050948286917   119.90652216   180.08049316
 H     19  18  17     1.831806869660   107.61463661     5.10994248
 H     20  18  17     2.049567147236   119.03827054   180.59961287

---------------------
BASIS SET INFORMATION
---------------------
There are 5 groups of distinct atoms

 Group   1 Type C   : 18s5p2d1f contracted to 4s3p2d1f pattern {8811/311/11/1}
 Group   2 Type O   : 18s5p2d1f contracted to 4s3p2d1f pattern {8811/311/11/1}
 Group   3 Type N   : 18s5p2d1f contracted to 4s3p2d1f pattern {8811/311/11/1}
 Group   4 Type S   : 41s16p2d1f contracted to 5s4p2d1f pattern {13131311/7711/11/1}
 Group   5 Type H   : 5s2p1d contracted to 3s2p1d pattern {311/11/1}

Atom   0C    basis set group =>   1
Atom   1C    basis set group =>   1
Atom   2O    basis set group =>   2
Atom   3C    basis set group =>   1
Atom   4O    basis set group =>   2
Atom   5C    basis set group =>   1
Atom   6C    basis set group =>   1
Atom   7C    basis set group =>   1
Atom   8N    basis set group =>   3
Atom   9C    basis set group =>   1
Atom  10S    basis set group =>   4
Atom  11N    basis set group =>   3
Atom  12C    basis set group =>   1
Atom  13C    basis set group =>   1
Atom  14C    basis set group =>   1
Atom  15C    basis set group =>   1
Atom  16C    basis set group =>   1
Atom  17C    basis set group =>   1
Atom  18O    basis set group =>   2
Atom  19C    basis set group =>   1
Atom  20H    basis set group =>   5
Atom  21H    basis set group =>   5
Atom  22H    basis set group =>   5
Atom  23H    basis set group =>   5
Atom  24H    basis set group =>   5
Atom  25H    basis set group =>   5
Atom  26H    basis set group =>   5
Atom  27H    basis set group =>   5
Atom  28H    basis set group =>   5
Atom  29H    basis set group =>   5
Atom  30H    basis set group =>   5
Atom  31H    basis set group =>   5
Atom  32H    basis set group =>   5
Atom  33H    basis set group =>   5
Atom  34H    basis set group =>   5
Atom  35H    basis set group =>   5
---------------------------------
AUXILIARY/C BASIS SET INFORMATION
---------------------------------
There are 5 groups of distinct atoms

 Group   1 Type C   : 8s6p5d3f1g contracted to 8s6p5d3f1g pattern {11111111/111111/11111/111/1}
 Group   2 Type O   : 8s6p5d3f1g contracted to 8s6p5d3f1g pattern {11111111/111111/11111/111/1}
 Group   3 Type N   : 8s6p5d3f1g contracted to 8s6p5d3f1g pattern {11111111/111111/11111/111/1}
 Group   4 Type S   : 10s8p7d5f2g contracted to 10s8p7d5f2g pattern {1111111111/11111111/1111111/11111/11}
 Group   5 Type H   : 4s3p2d1f contracted to 4s3p2d1f pattern {1111/111/11/1}

Atom   0C    basis set group =>   1
Atom   1C    basis set group =>   1
Atom   2O    basis set group =>   2
Atom   3C    basis set group =>   1
Atom   4O    basis set group =>   2
Atom   5C    basis set group =>   1
Atom   6C    basis set group =>   1
Atom   7C    basis set group =>   1
Atom   8N    basis set group =>   3
Atom   9C    basis set group =>   1
Atom  10S    basis set group =>   4
Atom  11N    basis set group =>   3
Atom  12C    basis set group =>   1
Atom  13C    basis set group =>   1
Atom  14C    basis set group =>   1
Atom  15C    basis set group =>   1
Atom  16C    basis set group =>   1
Atom  17C    basis set group =>   1
Atom  18O    basis set group =>   2
Atom  19C    basis set group =>   1
Atom  20H    basis set group =>   5
Atom  21H    basis set group =>   5
Atom  22H    basis set group =>   5
Atom  23H    basis set group =>   5
Atom  24H    basis set group =>   5
Atom  25H    basis set group =>   5
Atom  26H    basis set group =>   5
Atom  27H    basis set group =>   5
Atom  28H    basis set group =>   5
Atom  29H    basis set group =>   5
Atom  30H    basis set group =>   5
Atom  31H    basis set group =>   5
Atom  32H    basis set group =>   5
Atom  33H    basis set group =>   5
Atom  34H    basis set group =>   5
Atom  35H    basis set group =>   5
------------------------------------------------------------------------------
                           ORCA GTO INTEGRAL CALCULATION
------------------------------------------------------------------------------

                         BASIS SET STATISTICS AND STARTUP INFO

 # of primitive gaussian shells          ...  682
 # of primitive gaussian functions       ... 1312
 # of contracted shells                  ...  298
 # of contracted basis functions         ...  828
 Highest angular momentum                ...    3
 Maximum contraction depth               ...   13
 Integral package used                   ... LIBINT
 Integral threshhold            Thresh   ...  2.500e-11
 Primitive cut-off              TCut     ...  2.500e-12


------------------------------ INTEGRAL EVALUATION ----------------------------


 * One electron integrals 
 Pre-screening matrix                    ... done
 Shell pair data                         ... done (   0.012 sec)

-------------------------------------------------------------------------------
                                 ORCA SCF
-------------------------------------------------------------------------------

------------
SCF SETTINGS
------------
Hamiltonian:
 Ab initio Hamiltonian  Method          .... Hartree-Fock(GTOs)


General Settings:
 Integral files         IntName         .... CONFS/Conf734.orca
 Hartree-Fock type      HFTyp           .... RHF
 Total Charge           Charge          ....    0
 Multiplicity           Mult            ....    1
 Number of Electrons    NEL             ....  154
 Basis Dimension        Dim             ....  828
 Nuclear Repulsion      ENuc            ....   1722.8947197079 Eh

Convergence Acceleration:
 DIIS                   CNVDIIS         .... on
   Start iteration      DIISMaxIt       ....    12
   Startup error        DIISStart       ....  0.200000
   # of expansion vecs  DIISMaxEq       ....     5
   Bias factor          DIISBfac        ....   1.050
   Max. coefficient     DIISMaxC        ....  10.000
 Newton-Raphson         CNVNR           .... off
 SOSCF                  CNVSOSCF        .... on
   Start iteration      SOSCFMaxIt      ....   150
   Startup grad/error   SOSCFStart      ....  0.003300
 Level Shifting         CNVShift        .... on
   Level shift para.    LevelShift      ....    0.2500
   Turn off err/grad.   ShiftErr        ....    0.0010
 Zerner damping         CNVZerner       .... off
 Static damping         CNVDamp         .... on
   Fraction old density DampFac         ....    0.7000
   Max. Damping (<1)    DampMax         ....    0.9800
   Min. Damping (>=0)   DampMin         ....    0.0000
   Turn off err/grad.   DampErr         ....    0.1000
 Fernandez-Rico         CNVRico         .... off

SCF Procedure:
 Maximum # iterations   MaxIter         ....   125
 SCF integral mode      SCFMode         .... Direct
   Integral package                     .... LIBINT
 Reset frequency        DirectResetFreq ....    20
 Integral Threshold     Thresh          ....  2.500e-11 Eh
 Primitive CutOff       TCut            ....  2.500e-12 Eh

Convergence Tolerance:
 Convergence Check Mode ConvCheckMode   .... Total+1el-Energy
 Convergence forced     ConvForced      .... 1
 Energy Change          TolE            ....  1.000e-08 Eh
 1-El. energy change                    ....  1.000e-05 Eh
 Orbital Gradient       TolG            ....  1.000e-05
 Orbital Rotation angle TolX            ....  1.000e-05
 DIIS Error             TolErr          ....  5.000e-07


Diagonalization of the overlap matrix:
Smallest eigenvalue                        ... 3.124e-05
Time for diagonalization                   ...    0.282 sec
Threshold for overlap eigenvalues          ... 1.000e-08
Number of eigenvalues below threshold      ... 0
Time for construction of square roots      ...    0.308 sec
Total time needed                          ...    0.591 sec

-------------------
DFT GRID GENERATION
-------------------

General Integration Accuracy     IntAcc      ...  4.340
Radial Grid Type                 RadialGrid  ... Gauss-Chebyshev
Angular Grid (max. acc.)         AngularGrid ... Lebedev-110
Angular grid pruning method      GridPruning ... 3 (G Style)
Weight generation scheme         WeightScheme... Becke
Basis function cutoff            BFCut       ...    1.0000e-11
Integration weight cutoff        WCut        ...    1.0000e-14
Grids for H and He will be reduced by one unit

# of grid points (after initial pruning)     ...  46246 (   0.0 sec)
# of grid points (after weights+screening)   ...  41236 (   0.3 sec)
nearest neighbour list constructed           ...    0.0 sec
Grid point re-assignment to atoms done       ...    0.0 sec
Grid point division into batches done        ...    0.0 sec
Reduced shell lists constructed in    0.9 sec

Total number of grid points                  ...    41236
Total number of batches                      ...      658
Average number of points per batch           ...       62
Average number of grid points per atom       ...     1145
Average number of shells per batch           ...   151.99 (51.00%)
Average number of basis functions per batch  ...   386.99 (46.74%)
Average number of large shells per batch     ...    97.95 (64.44%)
Average number of large basis fcns per batch ...   251.24 (64.92%)
Maximum spatial batch extension              ...  27.78, 19.29, 18.73 au
Average spatial batch extension              ...   3.67,  3.36,  3.47 au

Time for grid setup =    1.173 sec

------------------------------
INITIAL GUESS: MODEL POTENTIAL
------------------------------
Loading Hartree-Fock densities                     ... done
Calculating cut-offs                               ... done
Setting up the integral package                    ... done
Initializing the effective Hamiltonian             ... done
Starting the Coulomb interaction                   ... done (   2.9 sec)
Reading the grid                                   ... done
Mapping shells                                     ... done
Starting the XC term evaluation                    ... done (   1.1 sec)
Transforming the Hamiltonian                       ... done (   0.2 sec)
Diagonalizing the Hamiltonian                      ... done (   0.3 sec)
Back transforming the eigenvectors                 ... done (   0.1 sec)
Now organizing SCF variables                       ... done
                      ------------------
                      INITIAL GUESS DONE (   6.0 sec)
                      ------------------
--------------
SCF ITERATIONS
--------------
ITER       Energy         Delta-E        Max-DP      RMS-DP      [F,P]     Damp
               ***  Starting incremental Fock matrix formation  ***
  0  -1269.9942360556   0.000000000000 0.04934263  0.00043694  0.3250161 0.7000
  1  -1270.2621890691  -0.267953013499 0.03609674  0.00035251  0.1951514 0.7000
                               ***Turning on DIIS***
  2  -1270.4290934661  -0.166904396986 0.02584634  0.00023597  0.1096840 0.7000
  3  -1272.5465239503  -2.117430484211 0.06314389  0.00050800  0.0828515 0.0000
  4  -1270.7382107834   1.808313166924 0.00865851  0.00009972  0.0070931 0.0000
  5  -1270.7969994072  -0.058788623898 0.00417885  0.00005238  0.0052246 0.0000
  6  -1270.7765045352   0.020494872020 0.00204088  0.00002729  0.0036817 0.0000
                      *** Initiating the SOSCF procedure ***
                           *** Shutting down DIIS ***
                      *** Re-Reading the Fockian *** 
                      *** Removing any level shift *** 
ITER      Energy       Delta-E        Grad      Rot      Max-DP    RMS-DP
  7  -1270.79124298  -0.0147384493  0.001235  0.001235  0.001085  0.000015
               *** Restarting incremental Fock matrix formation ***
  8  -1270.79169040  -0.0004474146  0.000667  0.001717  0.000642  0.000008
  9  -1270.79170644  -0.0000160392  0.000311  0.001999  0.000842  0.000011
 10  -1270.79171318  -0.0000067462  0.000065  0.000145  0.000206  0.000002
 11  -1270.79171378  -0.0000005927  0.000034  0.000068  0.000062  0.000001
 12  -1270.79171391  -0.0000001332  0.000011  0.000050  0.000030  0.000000
 13  -1270.79171393  -0.0000000206  0.000008  0.000038  0.000017  0.000000
                  ***Gradient check signals convergence***
              ***Rediagonalizing the Fockian in SOSCF/NRSCF***

               *****************************************************
               *                     SUCCESS                       *
               *           SCF CONVERGED AFTER  14 CYCLES          *
               *****************************************************


----------------
TOTAL SCF ENERGY
----------------

Total Energy       :        -1270.79171394 Eh          -34580.00055 eV

Components:
Nuclear Repulsion  :         1722.89471971 Eh           46882.34878 eV
Electronic Energy  :        -2993.68643365 Eh          -81462.34933 eV
One Electron Energy:        -5166.57699217 Eh         -140589.70740 eV
Two Electron Energy:         2172.89055852 Eh           59127.35807 eV

Virial components:
Potential Energy   :        -2539.80948463 Eh          -69111.72965 eV
Kinetic Energy     :         1269.01777069 Eh           34531.72910 eV
Virial Ratio       :            2.00139789


---------------
SCF CONVERGENCE
---------------

  Last Energy change         ...   -1.2240e-08  Tolerance :   1.0000e-08
  Last MAX-Density change    ...    3.0456e-06  Tolerance :   1.0000e-07
  Last RMS-Density change    ...    4.8687e-08  Tolerance :   5.0000e-09
  Last Orbital Gradient      ...    1.9745e-06  Tolerance :   1.0000e-05
  Last Orbital Rotation      ...    6.0850e-06  Tolerance :   1.0000e-05

             **** THE GBW FILE WAS UPDATED (CONFS/Conf734.orca.gbw) ****
             **** DENSITY FILE WAS UPDATED (CONFS/Conf734.orca.scfp) ****
             **** ENERGY FILE WAS UPDATED (CONFS/Conf734.orca.en.tmp) ****
             **** THE GBW FILE WAS UPDATED (CONFS/Conf734.orca.gbw) ****
             **** DENSITY FILE WAS UPDATED (CONFS/Conf734.orca.scfp) ****
----------------
ORBITAL ENERGIES
----------------

  NO   OCC          E(Eh)            E(eV) 
   0   2.0000     -91.892175     -2500.5132 
   1   2.0000     -20.603290      -560.6440 
   2   2.0000     -20.582820      -560.0870 
   3   2.0000     -20.549929      -559.1920 
   4   2.0000     -15.632134      -425.3720 
   5   2.0000     -15.611253      -424.8038 
   6   2.0000     -11.393295      -310.0273 
   7   2.0000     -11.386768      -309.8497 
   8   2.0000     -11.337880      -308.5194 
   9   2.0000     -11.321338      -308.0693 
  10   2.0000     -11.315518      -307.9109 
  11   2.0000     -11.295244      -307.3592 
  12   2.0000     -11.266045      -306.5647 
  13   2.0000     -11.262491      -306.4680 
  14   2.0000     -11.260622      -306.4171 
  15   2.0000     -11.255069      -306.2660 
  16   2.0000     -11.250604      -306.1445 
  17   2.0000     -11.244978      -305.9914 
  18   2.0000     -11.244649      -305.9825 
  19   2.0000     -11.220192      -305.3169 
  20   2.0000      -8.897184      -242.1047 
  21   2.0000      -6.578744      -179.0167 
  22   2.0000      -6.576755      -178.9626 
  23   2.0000      -6.576154      -178.9463 
  24   2.0000      -1.446960       -39.3738 
  25   2.0000      -1.423001       -38.7218 
  26   2.0000      -1.354408       -36.8553 
  27   2.0000      -1.343610       -36.5615 
  28   2.0000      -1.242179       -33.8014 
  29   2.0000      -1.163948       -31.6726 
  30   2.0000      -1.122691       -30.5500 
  31   2.0000      -1.048226       -28.5237 
  32   2.0000      -1.030401       -28.0386 
  33   2.0000      -1.022530       -27.8244 
  34   2.0000      -1.000400       -27.2223 
  35   2.0000      -0.987642       -26.8751 
  36   2.0000      -0.927429       -25.2366 
  37   2.0000      -0.881107       -23.9762 
  38   2.0000      -0.851626       -23.1739 
  39   2.0000      -0.846125       -23.0242 
  40   2.0000      -0.840892       -22.8818 
  41   2.0000      -0.832525       -22.6542 
  42   2.0000      -0.756265       -20.5790 
  43   2.0000      -0.736928       -20.0528 
  44   2.0000      -0.719329       -19.5739 
  45   2.0000      -0.702659       -19.1203 
  46   2.0000      -0.693390       -18.8681 
  47   2.0000      -0.680416       -18.5151 
  48   2.0000      -0.669405       -18.2154 
  49   2.0000      -0.667667       -18.1681 
  50   2.0000      -0.652059       -17.7434 
  51   2.0000      -0.649211       -17.6659 
  52   2.0000      -0.639938       -17.4136 
  53   2.0000      -0.613648       -16.6982 
  54   2.0000      -0.607569       -16.5328 
  55   2.0000      -0.602956       -16.4073 
  56   2.0000      -0.591076       -16.0840 
  57   2.0000      -0.582846       -15.8600 
  58   2.0000      -0.575417       -15.6579 
  59   2.0000      -0.573957       -15.6182 
  60   2.0000      -0.562804       -15.3147 
  61   2.0000      -0.545528       -14.8446 
  62   2.0000      -0.539213       -14.6727 
  63   2.0000      -0.531006       -14.4494 
  64   2.0000      -0.519417       -14.1341 
  65   2.0000      -0.516141       -14.0449 
  66   2.0000      -0.506948       -13.7948 
  67   2.0000      -0.499547       -13.5934 
  68   2.0000      -0.482371       -13.1260 
  69   2.0000      -0.467454       -12.7201 
  70   2.0000      -0.452520       -12.3137 
  71   2.0000      -0.444478       -12.0949 
  72   2.0000      -0.359913        -9.7937 
  73   2.0000      -0.354877        -9.6567 
  74   2.0000      -0.332246        -9.0409 
  75   2.0000      -0.328548        -8.9402 
  76   2.0000      -0.319359        -8.6902 
  77   0.0000       0.069513         1.8915 
  78   0.0000       0.098332         2.6757 
  79   0.0000       0.119840         3.2610 
  80   0.0000       0.126874         3.4524 
  81   0.0000       0.130277         3.5450 
  82   0.0000       0.138705         3.7744 
  83   0.0000       0.145217         3.9516 
  84   0.0000       0.148811         4.0494 
  85   0.0000       0.159690         4.3454 
  86   0.0000       0.172112         4.6834 
  87   0.0000       0.181284         4.9330 
  88   0.0000       0.187449         5.1007 
  89   0.0000       0.189856         5.1662 
  90   0.0000       0.201677         5.4879 
  91   0.0000       0.209351         5.6967 
  92   0.0000       0.215621         5.8673 
  93   0.0000       0.220198         5.9919 
  94   0.0000       0.227096         6.1796 
  95   0.0000       0.235879         6.4186 
  96   0.0000       0.243191         6.6176 
  97   0.0000       0.248763         6.7692 
  98   0.0000       0.268748         7.3130 
  99   0.0000       0.275645         7.5007 
 100   0.0000       0.298361         8.1188 
 101   0.0000       0.302928         8.2431 
 102   0.0000       0.308742         8.4013 
 103   0.0000       0.314921         8.5694 
 104   0.0000       0.321626         8.7519 
 105   0.0000       0.326051         8.8723 
 106   0.0000       0.333212         9.0672 
 107   0.0000       0.340955         9.2779 
 108   0.0000       0.363391         9.8884 
 109   0.0000       0.364515         9.9190 
 110   0.0000       0.369613        10.0577 
 111   0.0000       0.375768        10.2252 
 112   0.0000       0.383234        10.4283 
 113   0.0000       0.390196        10.6178 
 114   0.0000       0.399927        10.8826 
 115   0.0000       0.409652        11.1472 
 116   0.0000       0.412107        11.2140 
 117   0.0000       0.425806        11.5868 
 118   0.0000       0.433018        11.7830 
 119   0.0000       0.435982        11.8637 
 120   0.0000       0.440717        11.9925 
 121   0.0000       0.444345        12.0913 
 122   0.0000       0.451828        12.2949 
 123   0.0000       0.455963        12.4074 
 124   0.0000       0.463320        12.6076 
 125   0.0000       0.464325        12.6349 
 126   0.0000       0.470964        12.8156 
 127   0.0000       0.483149        13.1471 
 128   0.0000       0.490389        13.3442 
 129   0.0000       0.496926        13.5220 
 130   0.0000       0.501415        13.6442 
 131   0.0000       0.510575        13.8935 
 132   0.0000       0.510802        13.8996 
 133   0.0000       0.519279        14.1303 
 134   0.0000       0.521616        14.1939 
 135   0.0000       0.526262        14.3203 
 136   0.0000       0.532677        14.4949 
 137   0.0000       0.543015        14.7762 
 138   0.0000       0.543704        14.7949 
 139   0.0000       0.551460        15.0060 
 140   0.0000       0.554156        15.0794 
 141   0.0000       0.557887        15.1809 
 142   0.0000       0.560531        15.2528 
 143   0.0000       0.568712        15.4754 
 144   0.0000       0.579557        15.7706 
 145   0.0000       0.586282        15.9536 
 146   0.0000       0.589794        16.0491 
 147   0.0000       0.593978        16.1630 
 148   0.0000       0.596291        16.2259 
 149   0.0000       0.600852        16.3500 
 150   0.0000       0.604571        16.4512 
 151   0.0000       0.614055        16.7093 
 152   0.0000       0.618303        16.8249 
 153   0.0000       0.620099        16.8737 
 154   0.0000       0.624031        16.9807 
 155   0.0000       0.628795        17.1104 
 156   0.0000       0.631479        17.1834 
 157   0.0000       0.634249        17.2588 
 158   0.0000       0.639614        17.4048 
 159   0.0000       0.640696        17.4342 
 160   0.0000       0.645240        17.5579 
 161   0.0000       0.653662        17.7871 
 162   0.0000       0.659079        17.9345 
 163   0.0000       0.664962        18.0945 
 164   0.0000       0.670687        18.2503 
 165   0.0000       0.672789        18.3075 
 166   0.0000       0.675663        18.3857 
 167   0.0000       0.683977        18.6120 
 168   0.0000       0.686086        18.6694 
 169   0.0000       0.691387        18.8136 
 170   0.0000       0.699975        19.0473 
 171   0.0000       0.710044        19.3213 
 172   0.0000       0.714507        19.4427 
 173   0.0000       0.723809        19.6958 
 174   0.0000       0.729100        19.8398 
 175   0.0000       0.732447        19.9309 
 176   0.0000       0.733963        19.9722 
 177   0.0000       0.739424        20.1207 
 178   0.0000       0.755884        20.5686 
 179   0.0000       0.765913        20.8416 
 180   0.0000       0.772241        21.0138 
 181   0.0000       0.778611        21.1871 
 182   0.0000       0.794878        21.6297 
 183   0.0000       0.801752        21.8168 
 184   0.0000       0.805918        21.9301 
 185   0.0000       0.814257        22.1571 
 186   0.0000       0.820431        22.3251 
 187   0.0000       0.828666        22.5491 
 188   0.0000       0.829520        22.5724 
 189   0.0000       0.839464        22.8430 
 190   0.0000       0.846709        23.0401 
 191   0.0000       0.851044        23.1581 
 192   0.0000       0.856963        23.3192 
 193   0.0000       0.866028        23.5658 
 194   0.0000       0.870657        23.6918 
 195   0.0000       0.878100        23.8943 
 196   0.0000       0.884256        24.0618 
 197   0.0000       0.890464        24.2308 
 198   0.0000       0.904076        24.6011 
 199   0.0000       0.906607        24.6700 
 200   0.0000       0.916573        24.9412 
 201   0.0000       0.920957        25.0605 
 202   0.0000       0.928250        25.2590 
 203   0.0000       0.933082        25.3905 
 204   0.0000       0.935655        25.4605 
 205   0.0000       0.951946        25.9038 
 206   0.0000       0.955646        26.0045 
 207   0.0000       0.960611        26.1395 
 208   0.0000       0.970259        26.4021 
 209   0.0000       0.983034        26.7497 
 210   0.0000       0.991586        26.9824 
 211   0.0000       0.997646        27.1473 
 212   0.0000       1.000620        27.2283 
 213   0.0000       1.004565        27.3356 
 214   0.0000       1.009488        27.4696 
 215   0.0000       1.018544        27.7160 
 216   0.0000       1.027088        27.9485 
 217   0.0000       1.035334        28.1729 
 218   0.0000       1.037259        28.2252 
 219   0.0000       1.042923        28.3794 
 220   0.0000       1.048162        28.5219 
 221   0.0000       1.061800        28.8931 
 222   0.0000       1.066320        29.0160 
 223   0.0000       1.084283        29.5048 
 224   0.0000       1.086642        29.5690 
 225   0.0000       1.095408        29.8076 
 226   0.0000       1.104777        30.0625 
 227   0.0000       1.108553        30.1653 
 228   0.0000       1.124685        30.6042 
 229   0.0000       1.131108        30.7790 
 230   0.0000       1.133523        30.8447 
 231   0.0000       1.137054        30.9408 
 232   0.0000       1.146446        31.1964 
 233   0.0000       1.153380        31.3851 
 234   0.0000       1.158800        31.5326 
 235   0.0000       1.167456        31.7681 
 236   0.0000       1.170646        31.8549 
 237   0.0000       1.180452        32.1217 
 238   0.0000       1.183519        32.2052 
 239   0.0000       1.185380        32.2558 
 240   0.0000       1.191420        32.4202 
 241   0.0000       1.198855        32.6225 
 242   0.0000       1.205666        32.8078 
 243   0.0000       1.212474        32.9931 
 244   0.0000       1.221691        33.2439 
 245   0.0000       1.225354        33.3436 
 246   0.0000       1.227152        33.3925 
 247   0.0000       1.239795        33.7365 
 248   0.0000       1.241077        33.7714 
 249   0.0000       1.254245        34.1297 
 250   0.0000       1.262735        34.3608 
 251   0.0000       1.272034        34.6138 
 252   0.0000       1.272800        34.6347 
 253   0.0000       1.285253        34.9735 
 254   0.0000       1.300833        35.3975 
 255   0.0000       1.303270        35.4638 
 256   0.0000       1.316793        35.8318 
 257   0.0000       1.323997        36.0278 
 258   0.0000       1.338002        36.4089 
 259   0.0000       1.341638        36.5078 
 260   0.0000       1.347268        36.6610 
 261   0.0000       1.355189        36.8766 
 262   0.0000       1.363730        37.1090 
 263   0.0000       1.370872        37.3033 
 264   0.0000       1.380749        37.5721 
 265   0.0000       1.387013        37.7425 
 266   0.0000       1.396306        37.9954 
 267   0.0000       1.402752        38.1708 
 268   0.0000       1.404368        38.2148 
 269   0.0000       1.423060        38.7234 
 270   0.0000       1.429893        38.9094 
 271   0.0000       1.435980        39.0750 
 272   0.0000       1.440237        39.1909 
 273   0.0000       1.453205        39.5437 
 274   0.0000       1.459856        39.7247 
 275   0.0000       1.464480        39.8505 
 276   0.0000       1.482921        40.3523 
 277   0.0000       1.487474        40.4762 
 278   0.0000       1.493806        40.6485 
 279   0.0000       1.498420        40.7741 
 280   0.0000       1.498918        40.7876 
 281   0.0000       1.502717        40.8910 
 282   0.0000       1.506005        40.9805 
 283   0.0000       1.521290        41.3964 
 284   0.0000       1.521616        41.4053 
 285   0.0000       1.526317        41.5332 
 286   0.0000       1.536232        41.8030 
 287   0.0000       1.537661        41.8419 
 288   0.0000       1.546707        42.0880 
 289   0.0000       1.559448        42.4348 
 290   0.0000       1.561674        42.4953 
 291   0.0000       1.569884        42.7187 
 292   0.0000       1.573565        42.8189 
 293   0.0000       1.584663        43.1209 
 294   0.0000       1.585988        43.1569 
 295   0.0000       1.597638        43.4739 
 296   0.0000       1.608683        43.7745 
 297   0.0000       1.616760        43.9943 
 298   0.0000       1.618812        44.0501 
 299   0.0000       1.630676        44.3730 
 300   0.0000       1.640910        44.6514 
 301   0.0000       1.645589        44.7788 
 302   0.0000       1.661835        45.2208 
 303   0.0000       1.665559        45.3222 
 304   0.0000       1.668497        45.4021 
 305   0.0000       1.683621        45.8137 
 306   0.0000       1.697196        46.1830 
 307   0.0000       1.702529        46.3282 
 308   0.0000       1.713700        46.6321 
 309   0.0000       1.717609        46.7385 
 310   0.0000       1.729401        47.0594 
 311   0.0000       1.737640        47.2836 
 312   0.0000       1.744888        47.4808 
 313   0.0000       1.750961        47.6461 
 314   0.0000       1.756832        47.8058 
 315   0.0000       1.775551        48.3152 
 316   0.0000       1.783214        48.5237 
 317   0.0000       1.793657        48.8079 
 318   0.0000       1.800165        48.9850 
 319   0.0000       1.805964        49.1428 
 320   0.0000       1.813665        49.3523 
 321   0.0000       1.828339        49.7516 
 322   0.0000       1.840068        50.0708 
 323   0.0000       1.850786        50.3625 
 324   0.0000       1.854764        50.4707 
 325   0.0000       1.874871        51.0178 
 326   0.0000       1.889728        51.4221 
 327   0.0000       1.899344        51.6838 
 328   0.0000       1.909973        51.9730 
 329   0.0000       1.919269        52.2260 
 330   0.0000       1.934909        52.6515 
 331   0.0000       1.939382        52.7733 
 332   0.0000       1.945572        52.9417 
 333   0.0000       1.953837        53.1666 
 334   0.0000       1.981033        53.9067 
 335   0.0000       1.984620        54.0043 
 336   0.0000       1.990493        54.1641 
 337   0.0000       2.004437        54.5435 
 338   0.0000       2.018066        54.9144 
 339   0.0000       2.024877        55.0997 
 340   0.0000       2.032191        55.2987 
 341   0.0000       2.043124        55.5962 
 342   0.0000       2.054503        55.9059 
 343   0.0000       2.063940        56.1627 
 344   0.0000       2.097756        57.0828 
 345   0.0000       2.116438        57.5912 
 346   0.0000       2.124701        57.8161 
 347   0.0000       2.134456        58.0815 
 348   0.0000       2.145625        58.3854 
 349   0.0000       2.158617        58.7390 
 350   0.0000       2.177978        59.2658 
 351   0.0000       2.191540        59.6348 
 352   0.0000       2.213265        60.2260 
 353   0.0000       2.225199        60.5507 
 354   0.0000       2.233977        60.7896 
 355   0.0000       2.253569        61.3227 
 356   0.0000       2.265515        61.6478 
 357   0.0000       2.284290        62.1587 
 358   0.0000       2.289445        62.2990 
 359   0.0000       2.305586        62.7382 
 360   0.0000       2.308194        62.8092 
 361   0.0000       2.331919        63.4547 
 362   0.0000       2.334302        63.5196 
 363   0.0000       2.360293        64.2268 
 364   0.0000       2.365871        64.3786 
 365   0.0000       2.380637        64.7804 
 366   0.0000       2.389286        65.0158 
 367   0.0000       2.407919        65.5228 
 368   0.0000       2.416156        65.7469 
 369   0.0000       2.440660        66.4137 
 370   0.0000       2.451823        66.7175 
 371   0.0000       2.462664        67.0125 
 372   0.0000       2.464966        67.0751 
 373   0.0000       2.478517        67.4439 
 374   0.0000       2.484362        67.6029 
 375   0.0000       2.502093        68.0854 
 376   0.0000       2.508635        68.2634 
 377   0.0000       2.520557        68.5878 
 378   0.0000       2.534795        68.9753 
 379   0.0000       2.558206        69.6123 
 380   0.0000       2.574123        70.0454 
 381   0.0000       2.578238        70.1574 
 382   0.0000       2.588067        70.4249 
 383   0.0000       2.598124        70.6986 
 384   0.0000       2.604830        70.8810 
 385   0.0000       2.627522        71.4985 
 386   0.0000       2.631284        71.6009 
 387   0.0000       2.637128        71.7599 
 388   0.0000       2.659577        72.3708 
 389   0.0000       2.665199        72.5238 
 390   0.0000       2.672940        72.7344 
 391   0.0000       2.685988        73.0894 
 392   0.0000       2.707638        73.6786 
 393   0.0000       2.723354        74.1062 
 394   0.0000       2.733499        74.3823 
 395   0.0000       2.736681        74.4689 
 396   0.0000       2.745122        74.6986 
 397   0.0000       2.749647        74.8217 
 398   0.0000       2.752705        74.9049 
 399   0.0000       2.769752        75.3688 
 400   0.0000       2.772999        75.4571 
 401   0.0000       2.795843        76.0788 
 402   0.0000       2.813649        76.5633 
 403   0.0000       2.819679        76.7274 
 404   0.0000       2.824506        76.8587 
 405   0.0000       2.833413        77.1011 
 406   0.0000       2.840171        77.2850 
 407   0.0000       2.849425        77.5368 
 408   0.0000       2.856141        77.7196 
 409   0.0000       2.867048        78.0163 
 410   0.0000       2.872646        78.1687 
 411   0.0000       2.881559        78.4112 
 412   0.0000       2.890682        78.6595 
 413   0.0000       2.909531        79.1724 
 414   0.0000       2.919804        79.4519 
 415   0.0000       2.932857        79.8071 
 416   0.0000       2.946465        80.1774 
 417   0.0000       2.951854        80.3240 
 418   0.0000       2.953888        80.3794 
 419   0.0000       2.956687        80.4556 
 420   0.0000       2.965965        80.7080 
 421   0.0000       2.977413        81.0195 
 422   0.0000       2.980346        81.0993 
 423   0.0000       3.001823        81.6837 
 424   0.0000       3.010515        81.9203 
 425   0.0000       3.014495        82.0286 
 426   0.0000       3.017787        82.1181 
 427   0.0000       3.030273        82.4579 
 428   0.0000       3.036628        82.6308 
 429   0.0000       3.041653        82.7676 
 430   0.0000       3.051342        83.0312 
 431   0.0000       3.059589        83.2557 
 432   0.0000       3.066352        83.4397 
 433   0.0000       3.074779        83.6690 
 434   0.0000       3.084740        83.9400 
 435   0.0000       3.088917        84.0537 
 436   0.0000       3.096122        84.2498 
 437   0.0000       3.102693        84.4286 
 438   0.0000       3.104232        84.4705 
 439   0.0000       3.111701        84.6737 
 440   0.0000       3.116398        84.8015 
 441   0.0000       3.120575        84.9152 
 442   0.0000       3.123219        84.9871 
 443   0.0000       3.133184        85.2583 
 444   0.0000       3.146742        85.6272 
 445   0.0000       3.154543        85.8395 
 446   0.0000       3.163181        86.0745 
 447   0.0000       3.166798        86.1729 
 448   0.0000       3.180506        86.5460 
 449   0.0000       3.190166        86.8088 
 450   0.0000       3.192078        86.8609 
 451   0.0000       3.199306        87.0575 
 452   0.0000       3.205147        87.2165 
 453   0.0000       3.219100        87.5962 
 454   0.0000       3.228531        87.8528 
 455   0.0000       3.235274        88.0363 
 456   0.0000       3.240582        88.1807 
 457   0.0000       3.246392        88.3388 
 458   0.0000       3.260852        88.7323 
 459   0.0000       3.264637        88.8353 
 460   0.0000       3.268081        88.9290 
 461   0.0000       3.281644        89.2981 
 462   0.0000       3.284886        89.3863 
 463   0.0000       3.288895        89.4954 
 464   0.0000       3.303114        89.8823 
 465   0.0000       3.309744        90.0627 
 466   0.0000       3.315346        90.2152 
 467   0.0000       3.322751        90.4166 
 468   0.0000       3.327559        90.5475 
 469   0.0000       3.332356        90.6780 
 470   0.0000       3.338810        90.8536 
 471   0.0000       3.341773        90.9343 
 472   0.0000       3.347483        91.0896 
 473   0.0000       3.352392        91.2232 
 474   0.0000       3.361032        91.4583 
 475   0.0000       3.365274        91.5738 
 476   0.0000       3.372212        91.7626 
 477   0.0000       3.381720        92.0213 
 478   0.0000       3.385289        92.1184 
 479   0.0000       3.397670        92.4553 
 480   0.0000       3.400738        92.5388 
 481   0.0000       3.406503        92.6957 
 482   0.0000       3.416258        92.9611 
 483   0.0000       3.417952        93.0072 
 484   0.0000       3.422497        93.1309 
 485   0.0000       3.423707        93.1638 
 486   0.0000       3.427667        93.2716 
 487   0.0000       3.434817        93.4661 
 488   0.0000       3.437468        93.5383 
 489   0.0000       3.443646        93.7064 
 490   0.0000       3.448579        93.8406 
 491   0.0000       3.453507        93.9747 
 492   0.0000       3.465651        94.3052 
 493   0.0000       3.471491        94.4641 
 494   0.0000       3.479042        94.6696 
 495   0.0000       3.481195        94.7281 
 496   0.0000       3.486982        94.8856 
 497   0.0000       3.496146        95.1350 
 498   0.0000       3.508222        95.4636 
 499   0.0000       3.516896        95.6996 
 500   0.0000       3.524982        95.9196 
 501   0.0000       3.528492        96.0151 
 502   0.0000       3.536209        96.2251 
 503   0.0000       3.543799        96.4317 
 504   0.0000       3.552665        96.6729 
 505   0.0000       3.562162        96.9314 
 506   0.0000       3.570878        97.1685 
 507   0.0000       3.571909        97.1966 
 508   0.0000       3.578619        97.3792 
 509   0.0000       3.589841        97.6845 
 510   0.0000       3.594571        97.8133 
 511   0.0000       3.596591        97.8682 
 512   0.0000       3.604733        98.0898 
 513   0.0000       3.616174        98.4011 
 514   0.0000       3.621028        98.5332 
 515   0.0000       3.623446        98.5990 
 516   0.0000       3.626462        98.6811 
 517   0.0000       3.636707        98.9598 
 518   0.0000       3.641549        99.0916 
 519   0.0000       3.642659        99.1218 
 520   0.0000       3.651107        99.3517 
 521   0.0000       3.658221        99.5453 
 522   0.0000       3.666187        99.7620 
 523   0.0000       3.672247        99.9269 
 524   0.0000       3.677331       100.0653 
 525   0.0000       3.679831       100.1333 
 526   0.0000       3.691009       100.4375 
 527   0.0000       3.698257       100.6347 
 528   0.0000       3.700826       100.7046 
 529   0.0000       3.707411       100.8838 
 530   0.0000       3.711413       100.9927 
 531   0.0000       3.725752       101.3829 
 532   0.0000       3.731890       101.5499 
 533   0.0000       3.736380       101.6721 
 534   0.0000       3.745691       101.9254 
 535   0.0000       3.749311       102.0239 
 536   0.0000       3.756117       102.2091 
 537   0.0000       3.760942       102.3404 
 538   0.0000       3.764984       102.4504 
 539   0.0000       3.774553       102.7108 
 540   0.0000       3.786758       103.0429 
 541   0.0000       3.799363       103.3859 
 542   0.0000       3.803709       103.5042 
 543   0.0000       3.806941       103.5921 
 544   0.0000       3.814241       103.7908 
 545   0.0000       3.823362       104.0390 
 546   0.0000       3.831688       104.2655 
 547   0.0000       3.836499       104.3964 
 548   0.0000       3.849087       104.7390 
 549   0.0000       3.852208       104.8239 
 550   0.0000       3.860450       105.0482 
 551   0.0000       3.861460       105.0757 
 552   0.0000       3.873290       105.3976 
 553   0.0000       3.883253       105.6687 
 554   0.0000       3.888949       105.8237 
 555   0.0000       3.909041       106.3704 
 556   0.0000       3.914458       106.5178 
 557   0.0000       3.922647       106.7406 
 558   0.0000       3.926001       106.8319 
 559   0.0000       3.935858       107.1001 
 560   0.0000       3.938671       107.1767 
 561   0.0000       3.954403       107.6048 
 562   0.0000       3.959167       107.7344 
 563   0.0000       3.971238       108.0629 
 564   0.0000       3.982267       108.3630 
 565   0.0000       3.998540       108.8058 
 566   0.0000       4.006013       109.0091 
 567   0.0000       4.007067       109.0378 
 568   0.0000       4.014607       109.2430 
 569   0.0000       4.026078       109.5552 
 570   0.0000       4.029749       109.6551 
 571   0.0000       4.038504       109.8933 
 572   0.0000       4.055223       110.3482 
 573   0.0000       4.059100       110.4537 
 574   0.0000       4.063301       110.5680 
 575   0.0000       4.072378       110.8150 
 576   0.0000       4.080574       111.0381 
 577   0.0000       4.084395       111.1420 
 578   0.0000       4.092858       111.3723 
 579   0.0000       4.100965       111.5929 
 580   0.0000       4.119397       112.0945 
 581   0.0000       4.125745       112.2672 
 582   0.0000       4.133454       112.4770 
 583   0.0000       4.140283       112.6628 
 584   0.0000       4.150036       112.9282 
 585   0.0000       4.153641       113.0263 
 586   0.0000       4.159006       113.1723 
 587   0.0000       4.167035       113.3908 
 588   0.0000       4.173604       113.5695 
 589   0.0000       4.177511       113.6758 
 590   0.0000       4.184284       113.8602 
 591   0.0000       4.190835       114.0384 
 592   0.0000       4.195584       114.1677 
 593   0.0000       4.199452       114.2729 
 594   0.0000       4.209599       114.5490 
 595   0.0000       4.213042       114.6427 
 596   0.0000       4.221076       114.8613 
 597   0.0000       4.231478       115.1444 
 598   0.0000       4.242919       115.4557 
 599   0.0000       4.248038       115.5950 
 600   0.0000       4.256463       115.8242 
 601   0.0000       4.270069       116.1945 
 602   0.0000       4.272018       116.2475 
 603   0.0000       4.280464       116.4773 
 604   0.0000       4.295153       116.8770 
 605   0.0000       4.296634       116.9173 
 606   0.0000       4.308231       117.2329 
 607   0.0000       4.314041       117.3910 
 608   0.0000       4.320962       117.5793 
 609   0.0000       4.334722       117.9538 
 610   0.0000       4.339227       118.0764 
 611   0.0000       4.346099       118.2634 
 612   0.0000       4.356753       118.5533 
 613   0.0000       4.363006       118.7234 
 614   0.0000       4.364797       118.7722 
 615   0.0000       4.373881       119.0194 
 616   0.0000       4.383912       119.2923 
 617   0.0000       4.385295       119.3300 
 618   0.0000       4.400793       119.7517 
 619   0.0000       4.406454       119.9057 
 620   0.0000       4.409438       119.9869 
 621   0.0000       4.418211       120.2256 
 622   0.0000       4.431318       120.5823 
 623   0.0000       4.436145       120.7136 
 624   0.0000       4.440500       120.8321 
 625   0.0000       4.452380       121.1554 
 626   0.0000       4.468739       121.6006 
 627   0.0000       4.475436       121.7828 
 628   0.0000       4.481227       121.9404 
 629   0.0000       4.485583       122.0589 
 630   0.0000       4.506016       122.6149 
 631   0.0000       4.507134       122.6453 
 632   0.0000       4.510404       122.7343 
 633   0.0000       4.532278       123.3296 
 634   0.0000       4.540171       123.5443 
 635   0.0000       4.546360       123.7128 
 636   0.0000       4.549484       123.7978 
 637   0.0000       4.566480       124.2602 
 638   0.0000       4.574028       124.4656 
 639   0.0000       4.578177       124.5785 
 640   0.0000       4.592725       124.9744 
 641   0.0000       4.594374       125.0193 
 642   0.0000       4.608224       125.3962 
 643   0.0000       4.614741       125.5735 
 644   0.0000       4.624452       125.8377 
 645   0.0000       4.630044       125.9899 
 646   0.0000       4.633185       126.0754 
 647   0.0000       4.641923       126.3131 
 648   0.0000       4.645257       126.4039 
 649   0.0000       4.650397       126.5437 
 650   0.0000       4.669290       127.0579 
 651   0.0000       4.680831       127.3719 
 652   0.0000       4.688015       127.5674 
 653   0.0000       4.693733       127.7230 
 654   0.0000       4.698956       127.8651 
 655   0.0000       4.706646       128.0743 
 656   0.0000       4.719649       128.4282 
 657   0.0000       4.724093       128.5491 
 658   0.0000       4.734747       128.8390 
 659   0.0000       4.753292       129.3436 
 660   0.0000       4.755938       129.4156 
 661   0.0000       4.773731       129.8998 
 662   0.0000       4.777308       129.9972 
 663   0.0000       4.802101       130.6718 
 664   0.0000       4.819316       131.1402 
 665   0.0000       4.831170       131.4628 
 666   0.0000       4.847659       131.9115 
 667   0.0000       4.866203       132.4161 
 668   0.0000       4.874545       132.6431 
 669   0.0000       4.883881       132.8971 
 670   0.0000       4.915791       133.7655 
 671   0.0000       4.942365       134.4886 
 672   0.0000       4.952887       134.7749 
 673   0.0000       4.961549       135.0106 
 674   0.0000       4.983596       135.6105 
 675   0.0000       4.993868       135.8900 
 676   0.0000       5.023812       136.7049 
 677   0.0000       5.028995       136.8459 
 678   0.0000       5.043439       137.2390 
 679   0.0000       5.050171       137.4221 
 680   0.0000       5.051167       137.4492 
 681   0.0000       5.077453       138.1645 
 682   0.0000       5.081172       138.2657 
 683   0.0000       5.095124       138.6454 
 684   0.0000       5.110808       139.0722 
 685   0.0000       5.123454       139.4163 
 686   0.0000       5.132544       139.6636 
 687   0.0000       5.136480       139.7707 
 688   0.0000       5.148734       140.1042 
 689   0.0000       5.157436       140.3410 
 690   0.0000       5.163579       140.5081 
 691   0.0000       5.177904       140.8979 
 692   0.0000       5.184387       141.0743 
 693   0.0000       5.198012       141.4451 
 694   0.0000       5.204851       141.6312 
 695   0.0000       5.211189       141.8037 
 696   0.0000       5.215346       141.9168 
 697   0.0000       5.224100       142.1550 
 698   0.0000       5.231158       142.3471 
 699   0.0000       5.241688       142.6336 
 700   0.0000       5.271359       143.4410 
 701   0.0000       5.287986       143.8934 
 702   0.0000       5.302480       144.2878 
 703   0.0000       5.313367       144.5841 
 704   0.0000       5.319352       144.7469 
 705   0.0000       5.325794       144.9222 
 706   0.0000       5.343808       145.4124 
 707   0.0000       5.366842       146.0392 
 708   0.0000       5.374600       146.2503 
 709   0.0000       5.386753       146.5810 
 710   0.0000       5.392387       146.7343 
 711   0.0000       5.412387       147.2785 
 712   0.0000       5.420130       147.4892 
 713   0.0000       5.445787       148.1874 
 714   0.0000       5.459190       148.5521 
 715   0.0000       5.477700       149.0558 
 716   0.0000       5.502269       149.7243 
 717   0.0000       5.509712       149.9269 
 718   0.0000       5.523009       150.2887 
 719   0.0000       5.527835       150.4200 
 720   0.0000       5.529297       150.4598 
 721   0.0000       5.543087       150.8351 
 722   0.0000       5.564086       151.4065 
 723   0.0000       5.568286       151.5208 
 724   0.0000       5.577401       151.7688 
 725   0.0000       5.599655       152.3744 
 726   0.0000       5.607226       152.5804 
 727   0.0000       5.615568       152.8074 
 728   0.0000       5.625450       153.0763 
 729   0.0000       5.646366       153.6454 
 730   0.0000       5.660191       154.0216 
 731   0.0000       5.667749       154.2273 
 732   0.0000       5.673346       154.3796 
 733   0.0000       5.682069       154.6169 
 734   0.0000       5.707226       155.3015 
 735   0.0000       5.712372       155.4416 
 736   0.0000       5.726527       155.8267 
 737   0.0000       5.732909       156.0004 
 738   0.0000       5.745603       156.3458 
 739   0.0000       5.751971       156.5191 
 740   0.0000       5.765148       156.8777 
 741   0.0000       5.772856       157.0874 
 742   0.0000       5.795984       157.7167 
 743   0.0000       5.818086       158.3182 
 744   0.0000       5.826794       158.5551 
 745   0.0000       5.858987       159.4311 
 746   0.0000       5.870768       159.7517 
 747   0.0000       5.877273       159.9287 
 748   0.0000       5.908157       160.7691 
 749   0.0000       5.922064       161.1476 
 750   0.0000       5.949258       161.8875 
 751   0.0000       5.966868       162.3667 
 752   0.0000       5.981236       162.7577 
 753   0.0000       5.996356       163.1691 
 754   0.0000       6.013719       163.6416 
 755   0.0000       6.022480       163.8800 
 756   0.0000       6.050451       164.6412 
 757   0.0000       6.062434       164.9672 
 758   0.0000       6.084396       165.5648 
 759   0.0000       6.094460       165.8387 
 760   0.0000       6.124700       166.6616 
 761   0.0000       6.172315       167.9572 
 762   0.0000       6.218850       169.2235 
 763   0.0000       6.228356       169.4822 
 764   0.0000       6.246215       169.9682 
 765   0.0000       6.287581       171.0938 
 766   0.0000       6.289815       171.1546 
 767   0.0000       6.322874       172.0541 
 768   0.0000       6.341586       172.5633 
 769   0.0000       6.354254       172.9080 
 770   0.0000       6.364279       173.1808 
 771   0.0000       6.378641       173.5717 
 772   0.0000       6.399490       174.1390 
 773   0.0000       6.427850       174.9107 
 774   0.0000       6.451448       175.5528 
 775   0.0000       6.458626       175.7481 
 776   0.0000       6.492501       176.6699 
 777   0.0000       6.547549       178.1679 
 778   0.0000       6.578150       179.0006 
 779   0.0000       6.623613       180.2377 
 780   0.0000       6.653021       181.0379 
 781   0.0000       6.695030       182.1810 
 782   0.0000       6.751653       183.7218 
 783   0.0000       6.780260       184.5003 
 784   0.0000       6.817397       185.5108 
 785   0.0000       6.868454       186.9001 
 786   0.0000       6.902405       187.8240 
 787   0.0000       6.919876       188.2994 
 788   0.0000       6.946811       189.0323 
 789   0.0000       7.025675       191.1783 
 790   0.0000       7.046567       191.7468 
 791   0.0000       7.060565       192.1277 
 792   0.0000       7.077229       192.5812 
 793   0.0000       7.124710       193.8732 
 794   0.0000       7.249481       197.2684 
 795   0.0000       7.255602       197.4350 
 796   0.0000       7.279110       198.0747 
 797   0.0000       7.286533       198.2766 
 798   0.0000       7.339458       199.7168 
 799   0.0000       7.384214       200.9347 
 800   0.0000       7.394397       201.2118 
 801   0.0000       7.555386       205.5925 
 802   0.0000       7.579506       206.2488 
 803   0.0000       7.594755       206.6638 
 804   0.0000       7.690795       209.2772 
 805   0.0000       7.807698       212.4583 
 806   0.0000       7.813072       212.6045 
 807   0.0000       7.896228       214.8673 
 808   0.0000       7.930488       215.7995 
 809   0.0000       9.423916       256.4378 
 810   0.0000       9.642120       262.3754 
 811   0.0000      10.759983       292.7940 
 812   0.0000      11.280860       306.9678 
 813   0.0000      12.024941       327.2153 
 814   0.0000      12.730522       346.4151 
 815   0.0000      12.930379       351.8535 
 816   0.0000      13.070284       355.6605 
 817   0.0000      13.204107       359.3020 
 818   0.0000      13.392112       364.4179 
 819   0.0000      13.470995       366.5644 
 820   0.0000      13.600103       370.0776 
 821   0.0000      13.706266       372.9665 
 822   0.0000      13.977353       380.3431 
 823   0.0000      14.037831       381.9888 
 824   0.0000      14.068869       382.8334 
 825   0.0000      14.477180       393.9441 
 826   0.0000      14.683599       399.5610 
 827   0.0000      15.996698       435.2923 

                    ********************************
                    * MULLIKEN POPULATION ANALYSIS *
                    ********************************

-----------------------
MULLIKEN ATOMIC CHARGES
-----------------------
   0 C :   -0.258783
   1 C :    0.021292
   2 O :   -0.366985
   3 C :    0.471071
   4 O :   -0.386781
   5 C :   -0.276760
   6 C :    0.159215
   7 C :   -0.271203
   8 N :   -0.127435
   9 C :    0.206870
  10 S :   -0.432780
  11 N :   -0.191821
  12 C :    0.038701
  13 C :    0.054908
  14 C :   -0.196775
  15 C :   -0.130567
  16 C :   -0.272738
  17 C :    0.311592
  18 O :   -0.355332
  19 C :   -0.260865
  20 H :    0.098614
  21 H :    0.087414
  22 H :    0.099898
  23 H :    0.102809
  24 H :    0.111869
  25 H :    0.124536
  26 H :    0.139747
  27 H :    0.094201
  28 H :    0.198851
  29 H :    0.191234
  30 H :    0.149909
  31 H :    0.150791
  32 H :    0.166457
  33 H :    0.134397
  34 H :    0.242067
  35 H :    0.172380
Sum of atomic charges:   -0.0000000

--------------------------------
MULLIKEN REDUCED ORBITAL CHARGES
--------------------------------
  0 C s       :     3.258508  s :     3.258508
      pz      :     0.964327  p :     2.923678
      px      :     0.941049
      py      :     1.018301
      dz2     :     0.004096  d :     0.072128
      dxz     :     0.021228
      dyz     :     0.025374
      dx2y2   :     0.011005
      dxy     :     0.010425
      f0      :     0.000205  f :     0.004469
      f+1     :     0.000501
      f-1     :     0.000254
      f+2     :     0.001620
      f-2     :     0.001204
      f+3     :     0.000260
      f-3     :     0.000425
  1 C s       :     3.169568  s :     3.169568
      pz      :     0.908526  p :     2.635520
      px      :     0.733100
      py      :     0.993894
      dz2     :     0.024277  d :     0.161713
      dxz     :     0.038244
      dyz     :     0.034495
      dx2y2   :     0.035806
      dxy     :     0.028889
      f0      :     0.001024  f :     0.011907
      f+1     :     0.003018
      f-1     :     0.000640
      f+2     :     0.002459
      f-2     :     0.002189
      f+3     :     0.001308
      f-3     :     0.001268
  2 O s       :     3.717337  s :     3.717337
      pz      :     1.721830  p :     4.614166
      px      :     1.556689
      py      :     1.335648
      dz2     :     0.005363  d :     0.033185
      dxz     :     0.005831
      dyz     :     0.004094
      dx2y2   :     0.012998
      dxy     :     0.004898
      f0      :     0.000313  f :     0.002297
      f+1     :     0.000205
      f-1     :     0.000382
      f+2     :     0.000350
      f-2     :     0.000289
      f+3     :     0.000263
      f-3     :     0.000495
  3 C s       :     3.018208  s :     3.018208
      pz      :     0.836897  p :     2.202517
      px      :     0.658831
      py      :     0.706789
      dz2     :     0.074263  d :     0.281830
      dxz     :     0.045029
      dyz     :     0.076628
      dx2y2   :     0.040159
      dxy     :     0.045751
      f0      :     0.005782  f :     0.026374
      f+1     :     0.002700
      f-1     :     0.004731
      f+2     :     0.005110
      f-2     :     0.002576
      f+3     :     0.003232
      f-3     :     0.002244
  4 O s       :     3.775867  s :     3.775867
      pz      :     1.430607  p :     4.573108
      px      :     1.399363
      py      :     1.743139
      dz2     :     0.011405  d :     0.035360
      dxz     :     0.009881
      dyz     :     0.009152
      dx2y2   :     0.001859
      dxy     :     0.003064
      f0      :     0.000547  f :     0.002446
      f+1     :     0.000397
      f-1     :     0.000696
      f+2     :     0.000277
      f-2     :     0.000418
      f+3     :     0.000042
      f-3     :     0.000069
  5 C s       :     3.187041  s :     3.187041
      pz      :     0.937547  p :     2.999413
      px      :     1.141290
      py      :     0.920575
      dz2     :     0.011800  d :     0.079821
      dxz     :     0.008117
      dyz     :     0.029193
      dx2y2   :     0.011021
      dxy     :     0.019692
      f0      :     0.000922  f :     0.010485
      f+1     :     0.001191
      f-1     :     0.002161
      f+2     :     0.001827
      f-2     :     0.001457
      f+3     :     0.001448
      f-3     :     0.001480
  6 C s       :     3.186585  s :     3.186585
      pz      :     0.806678  p :     2.461799
      px      :     0.830778
      py      :     0.824343
      dz2     :     0.038077  d :     0.177975
      dxz     :     0.022368
      dyz     :     0.042741
      dx2y2   :     0.024497
      dxy     :     0.050293
      f0      :     0.002286  f :     0.014427
      f+1     :     0.001344
      f-1     :     0.002444
      f+2     :     0.002150
      f-2     :     0.002346
      f+3     :     0.002078
      f-3     :     0.001778
  7 C s       :     3.272448  s :     3.272448
      pz      :     0.971224  p :     2.924489
      px      :     0.989062
      py      :     0.964204
      dz2     :     0.011285  d :     0.069609
      dxz     :     0.014933
      dyz     :     0.016440
      dx2y2   :     0.012811
      dxy     :     0.014141
      f0      :     0.000339  f :     0.004656
      f+1     :     0.000864
      f-1     :     0.000397
      f+2     :     0.000697
      f-2     :     0.001326
      f+3     :     0.000368
      f-3     :     0.000665
  8 N s       :     3.343859  s :     3.343859
      pz      :     1.264103  p :     3.719481
      px      :     1.317880
      py      :     1.137498
      dz2     :     0.013216  d :     0.059179
      dxz     :     0.011737
      dyz     :     0.011075
      dx2y2   :     0.012791
      dxy     :     0.010360
      f0      :     0.000578  f :     0.004916
      f+1     :     0.001006
      f-1     :     0.000566
      f+2     :     0.000961
      f-2     :     0.000939
      f+3     :     0.000431
      f-3     :     0.000435
  9 C s       :     3.159435  s :     3.159435
      pz      :     0.778886  p :     2.355229
      px      :     0.748783
      py      :     0.827560
      dz2     :     0.054039  d :     0.260887
      dxz     :     0.035917
      dyz     :     0.052946
      dx2y2   :     0.067623
      dxy     :     0.050362
      f0      :     0.002099  f :     0.017579
      f+1     :     0.002483
      f-1     :     0.002095
      f+2     :     0.003084
      f-2     :     0.002422
      f+3     :     0.002588
      f-3     :     0.002810
 10 S s       :     5.855484  s :     5.855484
      pz      :     3.341347  p :    10.482333
      px      :     3.600602
      py      :     3.540383
      dz2     :     0.016400  d :     0.084832
      dxz     :     0.014255
      dyz     :     0.029999
      dx2y2   :     0.005003
      dxy     :     0.019175
      f0      :     0.001079  f :     0.010131
      f+1     :     0.000936
      f-1     :     0.002384
      f+2     :     0.001150
      f-2     :     0.003031
      f+3     :     0.000961
      f-3     :     0.000590
 11 N s       :     3.368837  s :     3.368837
      pz      :     1.407864  p :     3.760896
      px      :     1.305581
      py      :     1.047452
      dz2     :     0.006058  d :     0.057643
      dxz     :     0.009278
      dyz     :     0.013699
      dx2y2   :     0.012803
      dxy     :     0.015804
      f0      :     0.000562  f :     0.004445
      f+1     :     0.000430
      f-1     :     0.000578
      f+2     :     0.000672
      f-2     :     0.000761
      f+3     :     0.000762
      f-3     :     0.000681
 12 C s       :     3.132827  s :     3.132827
      pz      :     0.851549  p :     2.633803
      px      :     0.910338
      py      :     0.871915
      dz2     :     0.032322  d :     0.183384
      dxz     :     0.034152
      dyz     :     0.043966
      dx2y2   :     0.025086
      dxy     :     0.047859
      f0      :     0.001129  f :     0.011285
      f+1     :     0.001402
      f-1     :     0.001844
      f+2     :     0.001766
      f-2     :     0.002871
      f+3     :     0.001167
      f-3     :     0.001106
 13 C s       :     3.107092  s :     3.107092
      pz      :     0.892545  p :     2.718478
      px      :     0.908699
      py      :     0.917234
      dz2     :     0.018927  d :     0.108222
      dxz     :     0.010855
      dyz     :     0.031149
      dx2y2   :     0.020982
      dxy     :     0.026310
      f0      :     0.001010  f :     0.011300
      f+1     :     0.001627
      f-1     :     0.001236
[...]
      f-1     :     0.005049
      f+2     :     0.007547
      f-2     :     0.004979
      f+3     :     0.006750
      f-3     :     0.008166
 15 C s       :     2.705980  s :     2.705980
      pz      :     0.902450  p :     2.793336
      px      :     0.925937
      py      :     0.964948
      dz2     :     0.096305  d :     0.417214
      dxz     :     0.070551
      dyz     :     0.060816
      dx2y2   :     0.106716
      dxy     :     0.082827
      f0      :     0.003409  f :     0.041103
      f+1     :     0.005446
      f-1     :     0.006190
      f+2     :     0.007394
      f-2     :     0.006161
      f+3     :     0.006670
      f-3     :     0.005832
 16 C s       :     2.701754  s :     2.701754
      pz      :     0.937434  p :     2.867721
      px      :     0.957509
      py      :     0.972778
      dz2     :     0.046001  d :     0.390241
      dxz     :     0.056893
      dyz     :     0.089634
      dx2y2   :     0.093444
      dxy     :     0.104270
      f0      :     0.004216  f :     0.040296
      f+1     :     0.004715
      f-1     :     0.004195
      f+2     :     0.006190
      f-2     :     0.005131
      f+3     :     0.008786
      f-3     :     0.007063
 17 C s       :     2.701445  s :     2.701445
      pz      :     0.849149  p :     2.679867
      px      :     0.819801
      py      :     1.010917
      dz2     :     0.130308  d :     0.710225
      dxz     :     0.106581
      dyz     :     0.144508
      dx2y2   :     0.162783
      dxy     :     0.166044
      f0      :     0.009854  f :     0.099383
      f+1     :     0.015583
      f-1     :     0.009986
      f+2     :     0.016597
      f-2     :     0.014390
      f+3     :     0.017027
      f-3     :     0.015946
 18 O s       :     3.177089  s :     3.177089
      pz      :     1.410725  p :     4.345601
      px      :     1.426744
      py      :     1.508133
      dz2     :     0.008636  d :     0.075456
      dxz     :     0.017162
      dyz     :     0.019516
      dx2y2   :     0.014549
      dxy     :     0.015592
      f0      :     0.000607  f :     0.005055
      f+1     :     0.000697
      f-1     :     0.000460
      f+2     :     0.000729
      f-2     :     0.001032
      f+3     :     0.000689
      f-3     :     0.000842
 19 C s       :     2.694996  s :     2.694996
      pz      :     0.934657  p :     2.844617
      px      :     0.947042
      py      :     0.962918
      dz2     :     0.078090  d :     0.387848
      dxz     :     0.069342
      dyz     :     0.063716
      dx2y2   :     0.092790
      dxy     :     0.083910
      f0      :     0.003390  f :     0.040781
      f+1     :     0.005716
      f-1     :     0.005758
      f+2     :     0.007340
      f-2     :     0.006761
      f+3     :     0.006406
      f-3     :     0.005410
 20 H s       :     0.848105  s :     0.848105
      pz      :     0.047198  p :     0.151577
      px      :     0.041016
      py      :     0.063363
      dz2     :     0.004286  d :     0.027497
      dxz     :     0.003132
      dyz     :     0.007450
      dx2y2   :     0.005827
      dxy     :     0.006801
 21 H s       :     0.850523  s :     0.850523
      pz      :     0.045982  p :     0.151691
      px      :     0.061019
      py      :     0.044690
      dz2     :     0.004559  d :     0.027453
      dxz     :     0.006713
      dyz     :     0.003456
      dx2y2   :     0.006653
      dxy     :     0.006072
 22 H s       :     0.847597  s :     0.847597
      pz      :     0.056764  p :     0.150009
      px      :     0.039788
      py      :     0.053457
      dz2     :     0.007019  d :     0.027531
      dxz     :     0.005290
      dyz     :     0.006740
      dx2y2   :     0.004598
      dxy     :     0.003883
 23 H s       :     0.852634  s :     0.852634
      pz      :     0.063702  p :     0.155231
      px      :     0.035766
      py      :     0.055762
      dz2     :     0.007236  d :     0.027629
      dxz     :     0.005121
      dyz     :     0.007082
      dx2y2   :     0.003699
      dxy     :     0.004491
 24 H s       :     0.851640  s :     0.851640
      pz      :     0.047090  p :     0.145813
      px      :     0.030647
      py      :     0.068076
      dz2     :     0.004292  d :     0.027038
      dxz     :     0.002850
      dyz     :     0.008100
      dx2y2   :     0.006722
      dxy     :     0.005072
 25 H s       :     0.829248  s :     0.829248
      pz      :     0.041823  p :     0.149797
      px      :     0.062027
      py      :     0.045948
      dz2     :     0.002821  d :     0.027725
      dxz     :     0.007050
      dyz     :     0.003021
      dx2y2   :     0.008038
      dxy     :     0.006795
 26 H s       :     0.823060  s :     0.823060
      pz      :     0.066035  p :     0.151742
      px      :     0.046819
      py      :     0.038887
      dz2     :     0.008693  d :     0.027710
      dxz     :     0.007066
      dyz     :     0.006990
      dx2y2   :     0.002132
      dxy     :     0.002828
 27 H s       :     0.844643  s :     0.844643
      pz      :     0.042628  p :     0.150394
      px      :     0.042419
      py      :     0.065346
      dz2     :     0.004113  d :     0.027684
      dxz     :     0.002455
      dyz     :     0.006902
      dx2y2   :     0.006479
      dxy     :     0.007734
 28 H s       :     0.742245  s :     0.742245
      pz      :     0.062146  p :     0.253286
      px      :     0.071180
      py      :     0.119961
      dz2     :     0.005806  d :     0.061726
      dxz     :     0.002367
      dyz     :     0.017422
      dx2y2   :     0.017533
      dxy     :     0.018600
 29 H s       :     0.749533  s :     0.749533
      pz      :     0.102454  p :     0.254247
      px      :     0.103189
      py      :     0.048604
      dz2     :     0.016317  d :     0.061353
      dxz     :     0.014263
      dyz     :     0.008467
      dx2y2   :     0.012737
      dxy     :     0.009569
 30 H s       :     0.831000  s :     0.831000
      pz      :     0.045627  p :     0.146443
      px      :     0.053893
      py      :     0.046923
      dz2     :     0.004560  d :     0.028380
      dxz     :     0.006405
      dyz     :     0.004942
      dx2y2   :     0.005678
      dxy     :     0.006795
 31 H s       :     0.843412  s :     0.843412
      pz      :     0.054077  p :     0.157870
      px      :     0.065320
      py      :     0.038473
      dz2     :     0.005243  d :     0.027519
      dxz     :     0.006692
      dyz     :     0.003609
      dx2y2   :     0.005977
      dxy     :     0.005999
 32 H s       :     0.841920  s :     0.841920
      pz      :     0.036962  p :     0.151148
      px      :     0.039154
      py      :     0.075032
      dz2     :     0.002685  d :     0.026420
      dxz     :     0.000756
      dyz     :     0.007310
      dx2y2   :     0.007742
      dxy     :     0.007926
 33 H s       :     0.847451  s :     0.847451
      pz      :     0.058983  p :     0.158690
      px      :     0.049104
      py      :     0.050603
      dz2     :     0.006400  d :     0.027712
      dxz     :     0.005049
      dyz     :     0.006052
      dx2y2   :     0.005317
      dxy     :     0.004895
 34 H s       :     0.705596  s :     0.705596
      pz      :     0.116986  p :     0.347244
      px      :     0.086736
      py      :     0.143522
      dz2     :     0.025016  d :     0.099394
      dxz     :     0.013195
      dyz     :     0.024072
      dx2y2   :     0.018595
      dxy     :     0.018516
 35 H s       :     0.838532  s :     0.838532
      pz      :     0.039735  p :     0.158135
      px      :     0.041671
      py      :     0.076729
      dz2     :     0.002715  d :     0.028116
      dxz     :     0.000800
      dyz     :     0.008122
      dx2y2   :     0.008055
      dxy     :     0.008425


                      *****************************
                      * MAYER POPULATION ANALYSIS *
                      *****************************

  NA   - Mulliken gross atomic population
  ZA   - Total nuclear charge
  QA   - Mulliken gross atomic charge
  VA   - Mayer's total valence
  BVA  - Mayer's bonded valence
  FA   - Mayer's free valence

  ATOM       NA         ZA         QA         VA         BVA        FA
  0 C      6.2588     6.0000    -0.2588     3.8945     3.8945     0.0000
  1 C      5.9787     6.0000     0.0213     3.8490     3.8490     0.0000
  2 O      8.3670     8.0000    -0.3670     1.9878     1.9878     0.0000
  3 C      5.5289     6.0000     0.4711     4.2423     4.2423    -0.0000
  4 O      8.3868     8.0000    -0.3868     2.1107     2.1107    -0.0000
  5 C      6.2768     6.0000    -0.2768     3.6193     3.6193    -0.0000
  6 C      5.8408     6.0000     0.1592     3.8858     3.8858    -0.0000
  7 C      6.2712     6.0000    -0.2712     3.9089     3.9089     0.0000
  8 N      7.1274     7.0000    -0.1274     3.2934     3.2934    -0.0000
  9 C      5.7931     6.0000     0.2069     4.1516     4.1516     0.0000
 10 S     16.4328    16.0000    -0.4328     1.7664     1.7664    -0.0000
 11 N      7.1918     7.0000    -0.1918     3.2431     3.2431    -0.0000
 12 C      5.9613     6.0000     0.0387     3.9730     3.9730     0.0000
 13 C      5.9451     6.0000     0.0549     3.7166     3.7166     0.0000
 14 C      6.1968     6.0000    -0.1968     3.8325     3.8325    -0.0000
 15 C      6.1306     6.0000    -0.1306     3.8001     3.8001    -0.0000
 16 C      6.2727     6.0000    -0.2727     3.7878     3.7878     0.0000
 17 C      5.6884     6.0000     0.3116     3.8887     3.8887    -0.0000
 18 O      8.3553     8.0000    -0.3553     2.1211     2.1211    -0.0000
 19 C      6.2609     6.0000    -0.2609     3.8196     3.8196    -0.0000
 20 H      0.9014     1.0000     0.0986     0.9901     0.9901    -0.0000
 21 H      0.9126     1.0000     0.0874     0.9811     0.9811    -0.0000
 22 H      0.9001     1.0000     0.0999     0.9867     0.9867    -0.0000
 23 H      0.8972     1.0000     0.1028     0.9733     0.9733    -0.0000
 24 H      0.8881     1.0000     0.1119     0.9811     0.9811    -0.0000
 25 H      0.8755     1.0000     0.1245     0.9800     0.9800     0.0000
 26 H      0.8603     1.0000     0.1397     0.9783     0.9783     0.0000
 27 H      0.9058     1.0000     0.0942     0.9853     0.9853     0.0000
 28 H      0.8011     1.0000     0.1989     1.0213     1.0213    -0.0000
 29 H      0.8088     1.0000     0.1912     1.0208     1.0208    -0.0000
 30 H      0.8501     1.0000     0.1499     0.9913     0.9913     0.0000
 31 H      0.8492     1.0000     0.1508     0.9866     0.9866    -0.0000
 32 H      0.8335     1.0000     0.1665     0.9755     0.9755    -0.0000
 33 H      0.8656     1.0000     0.1344     0.9903     0.9903     0.0000
 34 H      0.7579     1.0000     0.2421     1.0099     1.0099    -0.0000
 35 H      0.8276     1.0000     0.1724     0.9861     0.9861     0.0000

  Mayer bond orders larger than 0.100000
B(  0-C ,  1-C ) :   0.9787 B(  0-C , 20-H ) :   0.9747 B(  0-C , 21-H ) :   0.9771 
B(  0-C , 22-H ) :   0.9805 B(  1-C ,  2-O ) :   0.8747 B(  1-C , 23-H ) :   0.9628 
B(  1-C , 24-H ) :   0.9793 B(  2-O ,  3-C ) :   1.1289 B(  3-C ,  4-O ) :   2.0540 
B(  3-C ,  5-C ) :   1.0142 B(  5-C ,  6-C ) :   1.6649 B(  5-C , 12-C ) :   0.9697 
B(  6-C ,  7-C ) :   0.9687 B(  6-C ,  8-N ) :   1.1478 B(  7-C , 25-H ) :   0.9679 
B(  7-C , 26-H ) :   0.9551 B(  7-C , 27-H ) :   0.9867 B(  8-N ,  9-C ) :   1.1781 
B(  8-N , 28-H ) :   0.9488 B(  9-C , 10-S ) :   1.6192 B(  9-C , 11-N ) :   1.2971 
B( 11-N , 12-C ) :   0.9814 B( 11-N , 29-H ) :   0.9542 B( 12-C , 13-C ) :   0.9528 
B( 12-C , 30-H ) :   1.0033 B( 13-C , 14-C ) :   1.3486 B( 13-C , 19-C ) :   1.3590 
B( 14-C , 15-C ) :   1.3842 B( 14-C , 31-H ) :   0.9769 B( 15-C , 16-C ) :   1.3695 
B( 15-C , 32-H ) :   0.9687 B( 16-C , 17-C ) :   1.3246 B( 16-C , 33-H ) :   0.9832 
B( 17-C , 18-O ) :   1.1156 B( 17-C , 19-C ) :   1.3779 B( 18-O , 34-H ) :   0.9788 
B( 19-C , 35-H ) :   0.9563 

-------
TIMINGS
-------

Total SCF time: 0 days 1 hours 36 min 6 sec 

Total time                  ....    5766.014 sec
Sum of individual times     ....    5756.369 sec  ( 99.8%)

Fock matrix formation       ....    5730.844 sec  ( 99.4%)
Diagonalization             ....       5.045 sec  (  0.1%)
Density matrix formation    ....       0.196 sec  (  0.0%)
Population analysis         ....       0.582 sec  (  0.0%)
Initial guess               ....       4.835 sec  (  0.1%)
Orbital Transformation      ....       0.000 sec  (  0.0%)
Orbital Orthonormalization  ....       0.000 sec  (  0.0%)
DIIS solution               ....       8.114 sec  (  0.1%)
SOSCF solution              ....       5.581 sec  (  0.1%)

------------------------------------------------------------------------------
                                ORCA  MP2 
------------------------------------------------------------------------------

Freezing NCore=48 chemical core electrons

-------------
RI-MP2 ENERGY
-------------
Dimension of the basis                    ...  828
Memory devoted to MP2                     ...  256 MB   
Data format for buffers                   ... DOUBLE
Compression type for matrix containers    ... UNCOMPRESSED
Overall scaling of the MP2 energy         ...   1.000e+00
Calculating two index integrals           ... done (    0.032 sec)
Cholesky decomposition of V**-1           ... done (    1.613 sec)

-----------------
RI-TRANSFORMATION (AUX index driven)
-----------------

Dimension of the orbital-basis         ... 828
Dimension of the aux-basis             ... 2141
Transformation of internal/external MOs...   24-  76 to   77- 827
Number Format for Storage              ... Double (8 Byte)
Integral mode                          ... Direct

First Phase: integral generation and transformation of MO indices
  Aux angular momentum 0               ... done (    9.446 sec)
  Aux angular momentum 1               ... done (   18.482 sec)
  Aux angular momentum 2               ... done (   23.816 sec)
  Aux angular momentum 3               ... done (   18.314 sec)
  Aux angular momentum 4               ... done (    6.702 sec)
Closing buffer VIA ( 0.63 GB; CompressionRatio= 1.00)
  Phase 1 completed in    77.033 sec
Second Phase: sorting and transformation of aux index

IA-Transformation
Memory available                       ... 167 MB 
Max. # MO pairs treated in a batch     ... 12    
# of internal orbitals                 ... 53
# batches for internal orbitals        ... 5
Closing buffer IAV ( 0.63 GB; CompressionRatio= 1.00)
(ia|v) transformation done in    76.639 sec

  Phase 2 completed in    76.646 sec
RI-Integral transformation completed in   153.889 sec
Opening buffers                              ... done

Starting loop over batches of integrals:

Operator 0  - window                       ... ( 24- 76)x( 77-827)
Operator 0  - Memory available             ...   256 MB
Operator 0  - Memory needed per MO         ...  12.3 MB
Operator 0  - Number of orbitals per batch ... 13
Operator 0  - Number of batches            ... 5

OPERATOR  0   PASS   0:  MOs    24 ...   36
  Reading integrals       ... ok
  Internal MO  26
  Internal MO  29
  Internal MO  32
  Internal MO  35
OPERATOR  0   PASS   1:  MOs    37 ...   49
  Reading integrals       ... ok
  Internal MO  38
  Internal MO  41
  Internal MO  44
  Internal MO  47
OPERATOR  0   PASS   2:  MOs    50 ...   62
  Reading integrals       ... ok
  Internal MO  50
  Internal MO  53
  Internal MO  56
  Internal MO  59
  Internal MO  62
OPERATOR  0   PASS   3:  MOs    63 ...   75
  Reading integrals       ... ok
  Internal MO  65
  Internal MO  68
  Internal MO  71
  Internal MO  74
OPERATOR  0   PASS   4:  MOs    76 ...   76
  Reading integrals       ... ok
Time spent in pair loops =   454.637 sec
Deleting buffer (Ka|jb)[aa] ...done

-----------------------------------------------
 RI-MP2 CORRELATION ENERGY:     -3.536532416 Eh
-----------------------------------------------


-------
TIMINGS
-------

Total time                :  610.282 sec
Integral trafo            :  153.914 sec ( 25.2%)
I/O of integrals          :    7.335 sec (  1.2%)
K(i,j) Operators          :  378.437 sec ( 62.0%)
T(i,j) pair energies      :    3.636 sec (  0.6%)
V-calculation             :    0.032 sec (  0.0%)
V**(-1/2)                 :    1.613 sec (  0.3%)
Gamma(ia|P)               :    0.000 sec (  0.0%)
Gamma-Trafo               :    0.000 sec (  0.0%)
D(virtual)                :    0.000 sec (  0.0%)
D(internal)               :    0.000 sec (  0.0%)
W(virtual)                :    0.000 sec (  0.0%)
W(internal)               :    0.000 sec (  0.0%)
L(virtual)                :    0.000 sec (  0.0%)
L(internal)               :    0.000 sec (  0.0%)
G(D)                      :    0.000 sec (  0.0%)
G(Z)                      :    0.000 sec (  0.0%)
Z-Vector Solution         :    0.000 sec (  0.0%)
3-Index Derivative        :    0.000 sec (  0.0%)
2-Index Derivative        :    0.000 sec (  0.0%)
Separable Gradient        :    0.000 sec (  0.0%)


---------------------------------------
MP2 TOTAL ENERGY:    -1274.328246359 Eh
---------------------------------------

-------------------------   --------------------
FINAL SINGLE POINT ENERGY     -1274.328246358683
-------------------------   --------------------


                            ***************************************
                            *     ORCA property calculations      *
                            ***************************************


  WARNING: The energy has been calculated at the MP2 level but the densities
           used in the property calculations are still SCF densities
           MP2 response densities have not been calculated 
           use %mp2 Density relaxed end
           or  %mp2 Density unrelaxed end

                                    ---------------------
                                    Active property flags
                                    ---------------------
   (+) Dipole Moment


------------------------------------------------------------------------------
                       ORCA ELECTRIC PROPERTIES CALCULATION
------------------------------------------------------------------------------

Dipole Moment Calculation                       ... on
Quadrupole Moment Calculation                   ... off
Polarizability Calculation                      ... off
GBWName                                         ... CONFS/Conf734.orca.gbw
Electron density file                           ... CONFS/Conf734.orca.scfp
The origin for moment calculation is the CENTER OF MASS  = (32.904264, 31.437393 35.224066)

-------------
DIPOLE MOMENT
-------------
                                X             Y             Z
Electronic contribution:     10.87860       8.78992       6.73758
Nuclear contribution   :    -12.03482     -10.30182      -6.27677
                        -----------------------------------------
Total Dipole Moment    :     -1.15621      -1.51189       0.46080
                        -----------------------------------------
Magnitude (a.u.)       :      1.95831
Magnitude (Debye)      :      4.97764



--------------------
Rotational spectrum 
--------------------
 
Rotational constants in cm-1:     0.011499     0.009587     0.006414 
Rotational constants in MHz :   344.729094   287.417616   192.293297 

 Dipole components along the rotational axes: 
x,y,z [a.u.] :    -1.806085    -0.618714     0.436172 
x,y,z [Debye]:    -4.590702    -1.572647     1.108661 

 

Timings for individual modules:

Sum of individual times         ...     6378.153 sec (= 106.303 min)
GTO integral calculation        ...        1.351 sec (=   0.023 min)   0.0 %
SCF iterations                  ...     5766.078 sec (=  96.101 min)  90.4 %
MP2 module                      ...      610.724 sec (=  10.179 min)   9.6 %
                             ****ORCA TERMINATED NORMALLY****
TOTAL RUN TIME: 0 days 1 hours 46 minutes 19 seconds 528 msec
