
                                 *****************
                                 * O   R   C   A *
                                 *****************

           --- An Ab Initio, DFT and Semiempirical electronic structure package ---

                  #######################################################
                  #                        -***-                        #
                  #          Department of theory and spectroscopy      #
                  #               Directorship: Frank Neese             #
                  #        Max Planck Institute fuer Kohlenforschung    #
                  #                Kaiser Wilhelm Platz 1               #
                  #                 D-45470 Muelheim/Ruhr               #
                  #                      Germany                        #
                  #                                                     #
                  #                  All rights reserved                #
                  #                        -***-                        #
                  #######################################################


                         Program Version 4.2.0 -  RELEASE  -


 With contributions from (in alphabetic order):
   Daniel Aravena         : Magnetic Suceptibility
   Michael Atanasov       : Ab Initio Ligand Field Theory (pilot matlab implementation)
   Alexander A. Auer      : GIAO ZORA, VPT2
   Ute Becker             : Parallelization
   Giovanni Bistoni       : ED, misc. LED, open-shell LED, HFLED
   Martin Brehm           : Molecular dynamics
   Dmytro Bykov           : SCF Hessian
   Vijay G. Chilkuri      : MRCI spin determinant printing, contributions to CSF-ICE
   Dipayan Datta          : RHF DLPNO-CCSD density
   Achintya Kumar Dutta   : EOM-CC, STEOM-CC
   Dmitry Ganyushin       : Spin-Orbit,Spin-Spin,Magnetic field MRCI
   Miquel Garcia          : C-PCM Hessian, Gaussian charge scheme
   Yang Guo               : DLPNO-NEVPT2, CIM, IAO-localization
   Andreas Hansen         : Spin unrestricted coupled pair/coupled cluster methods
   Benjamin Helmich-Paris : CASSCF linear response (MC-RPA)
   Lee Huntington         : MR-EOM, pCC
   Robert Izsak           : Overlap fitted RIJCOSX, COSX-SCS-MP3, EOM
   Christian Kollmar      : KDIIS, OOCD, Brueckner-CCSD(T), CCSD density
   Simone Kossmann        : Meta GGA functionals, TD-DFT gradient, OOMP2, MP2 Hessian
   Martin Krupicka        : AUTO-CI
   Lucas Lang             : DCDCAS
   Dagmar Lenk            : GEPOL surface, SMD
   Dimitrios Liakos       : Extrapolation schemes; Compound Job, initial MDCI parallelization
   Dimitrios Manganas     : Further ROCIS development; embedding schemes
   Dimitrios Pantazis     : SARC Basis sets
   Taras Petrenko         : DFT Hessian,TD-DFT gradient, ASA, ECA, R-Raman, ABS, FL, XAS/XES, NRVS
   Peter Pinski           : DLPNO-MP2, DLPNO-MP2 Gradient
   Christoph Reimann      : Effective Core Potentials
   Marius Retegan         : Local ZFS, SOC
   Christoph Riplinger    : Optimizer, TS searches, QM/MM, DLPNO-CCSD(T), (RO)-DLPNO pert. Triples
   Tobias Risthaus        : Range-separated hybrids, TD-DFT gradient, RPA, STAB
   Michael Roemelt        : Original ROCIS implementation
   Masaaki Saitow         : Open-shell DLPNO-CCSD energy and density
   Barbara Sandhoefer     : DKH picture change effects
   Avijit Sen             : IP-ROCIS
   Kantharuban Sivalingam : CASSCF convergence, NEVPT2, FIC-MRCI
   Bernardo de Souza      : ESD, SOC TD-DFT
   Georgi Stoychev        : AutoAux, RI-MP2 NMR
   Willem Van den Heuvel  : Paramagnetic NMR
   Boris Wezisla          : Elementary symmetry handling
   Frank Wennmohs         : Technical directorship


 We gratefully acknowledge several colleagues who have allowed us to
 interface, adapt or use parts of their codes:
   Stefan Grimme, W. Hujo, H. Kruse,             : VdW corrections, initial TS optimization,
                  C. Bannwarth                     DFT functionals, gCP, sTDA/sTD-DF
   Ed Valeev, F. Pavosevic, A. Kumar             : LibInt (2-el integral package), F12 methods
   Garnet Chan, S. Sharma, J. Yang, R. Olivares  : DMRG
   Ulf Ekstrom                                   : XCFun DFT Library
   Mihaly Kallay                                 : mrcc  (arbitrary order and MRCC methods)
   Andreas Klamt, Michael Diedenhofen            : otool_cosmo (COSMO solvation model)
   Jiri Pittner, Ondrej Demel                    : Mk-CCSD
   Frank Weinhold                                : gennbo (NPA and NBO analysis)
   Christopher J. Cramer and Donald G. Truhlar   : smd solvation model
   Lars Goerigk                                  : TD-DFT with DH, B97 family of functionals
   V. Asgeirsson, H. Jonsson                     : NEB implementation
   FAccTs GmbH                                   : IRC, NEB, NEB-TS, Multilevel, MM, QM/MM, CI optimization
   S Lehtola, MJT Oliveira, MAL Marques          : LibXC Library


 Your calculation uses the libint2 library for the computation of 2-el integrals
 For citations please refer to: http://libint.valeyev.net

 Your ORCA version has been built with support for libXC version: 4.2.3
 For citations please refer to: https://tddft.org/programs/libxc/

 This ORCA versions uses:
   CBLAS   interface :  Fast vector & matrix operations
   LAPACKE interface :  Fast linear algebra routines
   SCALAPACK package :  Parallel linear algebra routines


----- Orbital basis set information -----
Your calculation utilizes the basis: cc-pVTZ 
       H, B-Ne : Obtained from the ccRepo (grant-hill.group.shef.ac.uk/ccrepo) Feb. 2017
                 T. H. Dunning, Jr., J. Chem. Phys. 90, 1007 (1989)
            He : Obtained from the ccRepo (grant-hill.group.shef.ac.uk/ccrepo) Feb. 2017
                 D. E. Woon, T. H. Dunning, Jr., J. Chem. Phys. 100, 2975 (1994)
  Li-Be, Na-Mg : Obtained from the ccRepo (grant-hill.group.shef.ac.uk/ccrepo) Feb. 2017
                 B. P. Prascher, D. E. Woon, K. A. Peterson, T. H. Dunning, Jr., A. K. Wilson, Theor. Chem. Acc. 128, 69 (2011)
         Al-Ar : Obtained from the ccRepo (grant-hill.group.shef.ac.uk/ccrepo) Feb. 2017
                 D. E. Woon, T. H. Dunning, Jr., J. Chem. Phys. 98, 1358 (1993)
            Ca : Obtained from the Peterson Research Group Website (tyr0.chem.wsu.edu/~kipeters) Feb. 2017
                 J. Koput, K. A. Peterson, J. Phys. Chem. 106, 9595 (2002)
         Sc-Zn : Obtained from the ccRepo (grant-hill.group.shef.ac.uk/ccrepo) Feb. 2017
                 N. B. Balabanov, K. A. Peterson, J. Chem. Phys. 123, 064107 (2005)
                 N. B. Balabanov, K. A. Peterson, J. Chem. Phys. 125, 074110 (2006)
         Ga-Kr : Obtained from the ccRepo (grant-hill.group.shef.ac.uk/ccrepo) Feb. 2017
                 A. K. Wilson, D. E. Woon, K. A. Peterson, T. H. Dunning, Jr., J. Chem. Phys. 110, 7667 (1999)
             Y : Obtained from the ccRepo (grant-hill.group.shef.ac.uk/ccrepo) Feb. 2017
                 K. A. Peterson, D. Figgen, M. Dolg, H. Stoll, J. Chem. Phys. 126, 124101 (2007)
        Ag, Au : Obtained from the Peterson Research Group Website (tyr0.chem.wsu.edu/~kipeters) Feb. 2017
                 K. A. Peterson, C. Puzzarini, Theor. Chem. Acc. 114, 283 (2005)

----- AuxC basis set information -----
Your calculation utilizes the auxiliary basis: cc-pVTZ/C 
  Obtained from the EMSL Basis Set Exchange (bse.pnl.gov) Feb. 2017
  H-He, B-F, Al-Ar, Ga-Kr : F. Weigend, A. Kohn, C. Hattig, J. Chem. Phys. 116, 3175 (2002)
             Li-Be, Na-Mg : C. Haettig, Phys. Chem. Chem. Phys. 7, 59 (2005)
                       Ne : C. Haettig, Phys. Chem. Chem. Phys. 7, 59 (2005)
                            F. Weigend, A. Kohn, C. Hattig, J. Chem. Phys. 116, 3175 (2002)
                    Sc-Zn : J. G. Hill, J. A. Platts, J. Chem. Phys. 128, 044104 (2008)

================================================================================
                                        WARNINGS
                       Please study these warnings very carefully!
================================================================================


WARNING: No MP2 level density has been requested!
         To caclulate MP2 level properties use
         %mp2 Density relaxed end
         or
         %mp2 Density unrelaxed end

WARNING: Post HF methods need fully converged wavefunctions
  ===> : Setting SCFConvForced true
         You can overwrite this default with %scf ConvForced false 


INFO   : the flag for use of LIBINT has been found!

================================================================================
                                       INPUT FILE
================================================================================
NAME = CONFS/Conf276.orca
|  1> ! ri-mp2 cc-pvtz cc-pvtz/c TightSCF  NoKeepInts
|  2> 
|  3> %scf
|  4>   MaxCore 4096
|  5> end
|  6> *xyz  0  1
|  7>     C       15.3743335   13.9358822   17.1174744
|  8>     C       16.4942236   14.0618627   16.0669040
|  9>     O       17.4142967   15.0875857   16.4855176
| 10>     C       17.0838999   16.4014627   16.2985736
| 11>     O       16.2811842   16.7505249   15.4494545
| 12>     C       17.6300808   17.3006599   17.3736873
| 13>     C       17.3865258   18.6361231   17.3978128
| 14>     C       16.5520117   19.4352056   16.4196384
| 15>     N       17.9665287   19.4368226   18.3863467
| 16>     C       18.8943566   19.0070991   19.2969760
| 17>     S       19.6214043   20.0434210   20.3616568
| 18>     N       19.1980694   17.6699475   19.2754120
| 19>     C       18.5003535   16.6550710   18.4653921
| 20>     C       17.7011467   15.7375209   19.3859314
| 21>     C       18.1668385   14.4403425   19.6721390
| 22>     C       17.4450437   13.5945936   20.5313590
| 23>     C       16.2476172   14.0493931   21.1096215
| 24>     C       15.7834413   15.3421589   20.8303595
| 25>     O       14.6284799   15.7846084   21.3880785
| 26>     C       16.5053999   16.1826831   19.9775516
| 27>     H       15.7890541   13.6772075   18.0983872
| 28>     H       14.6658942   13.1501559   16.8292606
| 29>     H       14.8177042   14.8766272   17.2131334
| 30>     H       17.0261871   13.1043046   16.0004623
| 31>     H       16.0737213   14.2842715   15.0765054
| 32>     H       15.5132541   19.0807486   16.4208514
| 33>     H       16.9361228   19.3181080   15.3983044
| 34>     H       16.5358715   20.5079166   16.6451143
| 35>     H       17.7585491   20.4222319   18.4135040
| 36>     H       19.8591144   17.3769188   19.9831126
| 37>     H       19.2690912   16.0525071   17.9613866
| 38>     H       19.0910799   14.0854057   19.2242029
| 39>     H       17.8134865   12.5929706   20.7461846
| 40>     H       15.6862723   13.4000059   21.7733318
| 41>     H       14.3015550   15.0860370   21.9746165
| 42>     H       16.1348064   17.1836144   19.7857554
| 43> *
| 44> 
| 45>                          ****END OF INPUT****
================================================================================

                       ****************************
                       * Single Point Calculation *
                       ****************************

---------------------------------
CARTESIAN COORDINATES (ANGSTROEM)
---------------------------------
  C     15.374334   13.935882   17.117474
  C     16.494224   14.061863   16.066904
  O     17.414297   15.087586   16.485518
  C     17.083900   16.401463   16.298574
  O     16.281184   16.750525   15.449454
  C     17.630081   17.300660   17.373687
  C     17.386526   18.636123   17.397813
  C     16.552012   19.435206   16.419638
  N     17.966529   19.436823   18.386347
  C     18.894357   19.007099   19.296976
  S     19.621404   20.043421   20.361657
  N     19.198069   17.669947   19.275412
  C     18.500353   16.655071   18.465392
  C     17.701147   15.737521   19.385931
  C     18.166838   14.440342   19.672139
  C     17.445044   13.594594   20.531359
  C     16.247617   14.049393   21.109621
  C     15.783441   15.342159   20.830360
  O     14.628480   15.784608   21.388078
  C     16.505400   16.182683   19.977552
  H     15.789054   13.677207   18.098387
  H     14.665894   13.150156   16.829261
  H     14.817704   14.876627   17.213133
  H     17.026187   13.104305   16.000462
  H     16.073721   14.284271   15.076505
  H     15.513254   19.080749   16.420851
  H     16.936123   19.318108   15.398304
  H     16.535871   20.507917   16.645114
  H     17.758549   20.422232   18.413504
  H     19.859114   17.376919   19.983113
  H     19.269091   16.052507   17.961387
  H     19.091080   14.085406   19.224203
  H     17.813486   12.592971   20.746185
  H     15.686272   13.400006   21.773332
  H     14.301555   15.086037   21.974616
  H     16.134806   17.183614   19.785755

----------------------------
CARTESIAN COORDINATES (A.U.)
----------------------------
  NO LB      ZA    FRAG     MASS         X           Y           Z
   0 C     6.0000    0    12.011   29.053280   26.335001   32.347339
   1 C     6.0000    0    12.011   31.169565   26.573069   30.362048
   2 O     8.0000    0    15.999   32.908252   28.511405   31.153113
   3 C     6.0000    0    12.011   32.283892   30.994273   30.799840
   4 O     8.0000    0    15.999   30.766979   31.653905   29.195238
   5 C     6.0000    0    12.011   33.316024   32.693509   32.831511
   6 C     6.0000    0    12.011   32.855772   35.217169   32.877102
   7 C     6.0000    0    12.011   31.278769   36.727216   31.028620
   8 N     7.0000    0    14.007   33.951819   36.730272   34.745160
   9 C     6.0000    0    12.011   35.705159   35.918212   36.466000
  10 S    16.0000    0    32.060   37.079080   37.876576   38.477955
  11 N     7.0000    0    14.007   36.279093   33.391362   36.425250
  12 C     6.0000    0    12.011   34.960601   31.473523   34.894534
  13 C     6.0000    0    12.011   33.450320   29.739605   36.634101
  14 C     6.0000    0    12.011   34.330349   27.288293   37.174955
  15 C     6.0000    0    12.011   32.966355   25.690059   38.798646
  16 C     6.0000    0    12.011   30.703547   26.549505   39.891403
  17 C     6.0000    0    12.011   29.826382   28.992479   39.363675
  18 O     8.0000    0    15.999   27.643821   29.828587   40.417611
  19 C     6.0000    0    12.011   31.190686   30.580839   37.752101
  20 H     1.0000    0     1.008   29.836988   25.846176   34.200995
  21 H     1.0000    0     1.008   27.714524   24.850193   31.802694
  22 H     1.0000    0     1.008   28.001403   28.112751   32.528108
  23 H     1.0000    0     1.008   32.174831   24.763547   30.236492
  24 H     1.0000    0     1.008   30.374931   26.993361   28.490466
  25 H     1.0000    0     1.008   29.315802   36.057389   31.030912
  26 H     1.0000    0     1.008   32.004634   36.505934   29.098578
  27 H     1.0000    0     1.008   31.248269   38.754346   31.454707
  28 H     1.0000    0     1.008   33.558794   38.592425   34.796480
  29 H     1.0000    0     1.008   37.528287   32.837618   37.762610
  30 H     1.0000    0     1.008   36.413305   30.334842   33.942102
  31 H     1.0000    0     1.008   36.076913   26.617559   36.328479
  32 H     1.0000    0     1.008   33.662611   23.797266   39.204607
  33 H     1.0000    0     1.008   29.642759   25.322341   41.145634
  34 H     1.0000    0     1.008   27.026022   28.508478   41.526007
  35 H     1.0000    0     1.008   30.490365   32.472325   37.389659

--------------------------------
INTERNAL COORDINATES (ANGSTROEM)
--------------------------------
 C      0   0   0     0.000000000000     0.00000000     0.00000000
 C      1   0   0     1.540689160024     0.00000000     0.00000000
 O      2   1   0     1.440097055124   108.93083654     0.00000000
 C      3   2   1     1.367619419179   119.35293168   281.39328413
 O      4   3   2     1.219508163351   121.95001144   336.54441332
 C      4   3   2     1.504240222817   112.88413731   147.18723989
 C      6   4   3     1.357705062350   122.38107826   181.88393746
 C      7   6   4     1.513859895010   127.34426762     0.89967781
 N      7   6   4     1.398113845421   120.09686500   182.82574138
 C      9   7   6     1.369223363987   124.86261480     6.67722987
 S     10   9   7     1.654118086590   121.95769135   175.16526922
 N     10   9   7     1.371379186207   116.46336434   355.58878422
 C     12  10   9     1.474080739227   125.10758857   352.69358689
 C     13  12  10     1.525785796900   109.29443598   249.46605324
 C     14  13  12     1.407641802559   120.23523733   255.82053018
 C     15  14  13     1.405182530335   120.59959217   179.24583249
 C     16  15  14     1.405368395478   119.63566980     0.00000000
 C     17  16  15     1.401673979367   119.91086534   359.79136031
 O     18  17  16     1.356741640292   120.05165420   180.06370540
 C     18  17  16     1.398208305369   120.32887084     0.05639039
 H      1   2   3     1.095945116184   110.76597401   300.49661460
 H      1   2   3     1.096503194162   110.42547990   180.78110595
 H      1   2   3     1.097263859299   110.98215331    61.00834870
 H      2   1   3     1.097413859812   108.80108646   118.98730245
 H      2   1   3     1.098716180597   110.67218065   237.39393996
 H      8   7   6     1.097569399982   110.51981370    61.04186273
 H      8   7   6     1.097440806889   110.61423191   302.32118723
 H      8   7   6     1.096270394135   113.06158894   181.68141859
 H      9   7   6     1.007484253716   119.57560093   181.82547720
 H     12  10   9     1.011773912635   114.58776000   182.27907828
 H     13  12  10     1.099118942160   107.35994277   132.25579524
 H     15  14  13     1.086668784475   119.90511107   359.07550959
 H     16  15  14     1.088645382765   120.03854935   179.98281697
 H     17  16  15     1.085045250027   119.92119427   179.96667099
 H     19  18  17     0.968973021597   107.51392781     2.75191379
 H     20  18  17     1.084430169212   119.09604742   180.80796614

---------------------------
INTERNAL COORDINATES (A.U.)
---------------------------
 C      0   0   0     0.000000000000     0.00000000     0.00000000
 C      1   0   0     2.911480569946     0.00000000     0.00000000
 O      2   1   0     2.721389040451   108.93083654     0.00000000
 C      3   2   1     2.584426157681   119.35293168   281.39328413
 O      4   3   2     2.304536446815   121.95001144   336.54441332
 C      4   3   2     2.842602060753   112.88413731   147.18723989
 C      6   4   3     2.565690738479   122.38107826   181.88393746
 C      7   6   4     2.860780606696   127.34426762     0.89967781
 N      7   6   4     2.642052271889   120.09686500   182.82574138
 C      9   7   6     2.587457174103   124.86261480     6.67722987
 S     10   9   7     3.125830176821   121.95769135   175.16526922
 N     10   9   7     2.591531087691   116.46336434   355.58878422
 C     12  10   9     2.785608896428   125.10758857   352.69358689
 C     13  12  10     2.883317295167   109.29443598   249.46605324
 C     14  13  12     2.660057501496   120.23523733   255.82053018
 C     15  14  13     2.655410150503   120.59959217   179.24583249
 C     16  15  14     2.655761384722   119.63566980     0.00000000
 C     17  16  15     2.648779950047   119.91086534   359.79136031
 O     18  17  16     2.563870134638   120.05165420   180.06370540
 C     18  17  16     2.642230775321   120.32887084     0.05639039
 H      1   2   3     2.071036127397   110.76597401   300.49661460
 H      1   2   3     2.072090741935   110.42547990   180.78110595
 H      1   2   3     2.073528190725   110.98215331    61.00834870
 H      2   1   3     2.073811650614   108.80108646   118.98730245
 H      2   1   3     2.076272680235   110.67218065   237.39393996
 H      8   7   6     2.074105578937   110.51981370    61.04186273
 H      8   7   6     2.073862573210   110.61423191   302.32118723
 H      8   7   6     2.071650813642   113.06158894   181.68141859
 H      9   7   6     1.903869323762   119.57560093   181.82547720
 H     12  10   9     1.911975604326   114.58776000   182.27907828
 H     13  12  10     2.077033789287   107.35994277   132.25579524
 H     15  14  13     2.053506400938   119.90511107   359.07550959
 H     16  15  14     2.057241630384   120.03854935   179.98281697
 H     17  16  15     2.050438365463   119.92119427   179.96667099
 H     19  18  17     1.831093641976   107.51392781     2.75191379
 H     20  18  17     2.049276031172   119.09604742   180.80796614

---------------------
BASIS SET INFORMATION
---------------------
There are 5 groups of distinct atoms

 Group   1 Type C   : 18s5p2d1f contracted to 4s3p2d1f pattern {8811/311/11/1}
 Group   2 Type O   : 18s5p2d1f contracted to 4s3p2d1f pattern {8811/311/11/1}
 Group   3 Type N   : 18s5p2d1f contracted to 4s3p2d1f pattern {8811/311/11/1}
 Group   4 Type S   : 41s16p2d1f contracted to 5s4p2d1f pattern {13131311/7711/11/1}
 Group   5 Type H   : 5s2p1d contracted to 3s2p1d pattern {311/11/1}

Atom   0C    basis set group =>   1
Atom   1C    basis set group =>   1
Atom   2O    basis set group =>   2
Atom   3C    basis set group =>   1
Atom   4O    basis set group =>   2
Atom   5C    basis set group =>   1
Atom   6C    basis set group =>   1
Atom   7C    basis set group =>   1
Atom   8N    basis set group =>   3
Atom   9C    basis set group =>   1
Atom  10S    basis set group =>   4
Atom  11N    basis set group =>   3
Atom  12C    basis set group =>   1
Atom  13C    basis set group =>   1
Atom  14C    basis set group =>   1
Atom  15C    basis set group =>   1
Atom  16C    basis set group =>   1
Atom  17C    basis set group =>   1
Atom  18O    basis set group =>   2
Atom  19C    basis set group =>   1
Atom  20H    basis set group =>   5
Atom  21H    basis set group =>   5
Atom  22H    basis set group =>   5
Atom  23H    basis set group =>   5
Atom  24H    basis set group =>   5
Atom  25H    basis set group =>   5
Atom  26H    basis set group =>   5
Atom  27H    basis set group =>   5
Atom  28H    basis set group =>   5
Atom  29H    basis set group =>   5
Atom  30H    basis set group =>   5
Atom  31H    basis set group =>   5
Atom  32H    basis set group =>   5
Atom  33H    basis set group =>   5
Atom  34H    basis set group =>   5
Atom  35H    basis set group =>   5
---------------------------------
AUXILIARY/C BASIS SET INFORMATION
---------------------------------
There are 5 groups of distinct atoms

 Group   1 Type C   : 8s6p5d3f1g contracted to 8s6p5d3f1g pattern {11111111/111111/11111/111/1}
 Group   2 Type O   : 8s6p5d3f1g contracted to 8s6p5d3f1g pattern {11111111/111111/11111/111/1}
 Group   3 Type N   : 8s6p5d3f1g contracted to 8s6p5d3f1g pattern {11111111/111111/11111/111/1}
 Group   4 Type S   : 10s8p7d5f2g contracted to 10s8p7d5f2g pattern {1111111111/11111111/1111111/11111/11}
 Group   5 Type H   : 4s3p2d1f contracted to 4s3p2d1f pattern {1111/111/11/1}

Atom   0C    basis set group =>   1
Atom   1C    basis set group =>   1
Atom   2O    basis set group =>   2
Atom   3C    basis set group =>   1
Atom   4O    basis set group =>   2
Atom   5C    basis set group =>   1
Atom   6C    basis set group =>   1
Atom   7C    basis set group =>   1
Atom   8N    basis set group =>   3
Atom   9C    basis set group =>   1
Atom  10S    basis set group =>   4
Atom  11N    basis set group =>   3
Atom  12C    basis set group =>   1
Atom  13C    basis set group =>   1
Atom  14C    basis set group =>   1
Atom  15C    basis set group =>   1
Atom  16C    basis set group =>   1
Atom  17C    basis set group =>   1
Atom  18O    basis set group =>   2
Atom  19C    basis set group =>   1
Atom  20H    basis set group =>   5
Atom  21H    basis set group =>   5
Atom  22H    basis set group =>   5
Atom  23H    basis set group =>   5
Atom  24H    basis set group =>   5
Atom  25H    basis set group =>   5
Atom  26H    basis set group =>   5
Atom  27H    basis set group =>   5
Atom  28H    basis set group =>   5
Atom  29H    basis set group =>   5
Atom  30H    basis set group =>   5
Atom  31H    basis set group =>   5
Atom  32H    basis set group =>   5
Atom  33H    basis set group =>   5
Atom  34H    basis set group =>   5
Atom  35H    basis set group =>   5
------------------------------------------------------------------------------
                           ORCA GTO INTEGRAL CALCULATION
------------------------------------------------------------------------------

                         BASIS SET STATISTICS AND STARTUP INFO

 # of primitive gaussian shells          ...  682
 # of primitive gaussian functions       ... 1312
 # of contracted shells                  ...  298
 # of contracted basis functions         ...  828
 Highest angular momentum                ...    3
 Maximum contraction depth               ...   13
 Integral package used                   ... LIBINT
 Integral threshhold            Thresh   ...  2.500e-11
 Primitive cut-off              TCut     ...  2.500e-12


------------------------------ INTEGRAL EVALUATION ----------------------------


 * One electron integrals 
 Pre-screening matrix                    ... done
 Shell pair data                         ... done (   0.014 sec)

-------------------------------------------------------------------------------
                                 ORCA SCF
-------------------------------------------------------------------------------

------------
SCF SETTINGS
------------
Hamiltonian:
 Ab initio Hamiltonian  Method          .... Hartree-Fock(GTOs)


General Settings:
 Integral files         IntName         .... CONFS/Conf276.orca
 Hartree-Fock type      HFTyp           .... RHF
 Total Charge           Charge          ....    0
 Multiplicity           Mult            ....    1
 Number of Electrons    NEL             ....  154
 Basis Dimension        Dim             ....  828
 Nuclear Repulsion      ENuc            ....   1721.7603652329 Eh

Convergence Acceleration:
 DIIS                   CNVDIIS         .... on
   Start iteration      DIISMaxIt       ....    12
   Startup error        DIISStart       ....  0.200000
   # of expansion vecs  DIISMaxEq       ....     5
   Bias factor          DIISBfac        ....   1.050
   Max. coefficient     DIISMaxC        ....  10.000
 Newton-Raphson         CNVNR           .... off
 SOSCF                  CNVSOSCF        .... on
   Start iteration      SOSCFMaxIt      ....   150
   Startup grad/error   SOSCFStart      ....  0.003300
 Level Shifting         CNVShift        .... on
   Level shift para.    LevelShift      ....    0.2500
   Turn off err/grad.   ShiftErr        ....    0.0010
 Zerner damping         CNVZerner       .... off
 Static damping         CNVDamp         .... on
   Fraction old density DampFac         ....    0.7000
   Max. Damping (<1)    DampMax         ....    0.9800
   Min. Damping (>=0)   DampMin         ....    0.0000
   Turn off err/grad.   DampErr         ....    0.1000
 Fernandez-Rico         CNVRico         .... off

SCF Procedure:
 Maximum # iterations   MaxIter         ....   125
 SCF integral mode      SCFMode         .... Direct
   Integral package                     .... LIBINT
 Reset frequency        DirectResetFreq ....    20
 Integral Threshold     Thresh          ....  2.500e-11 Eh
 Primitive CutOff       TCut            ....  2.500e-12 Eh

Convergence Tolerance:
 Convergence Check Mode ConvCheckMode   .... Total+1el-Energy
 Convergence forced     ConvForced      .... 1
 Energy Change          TolE            ....  1.000e-08 Eh
 1-El. energy change                    ....  1.000e-05 Eh
 Orbital Gradient       TolG            ....  1.000e-05
 Orbital Rotation angle TolX            ....  1.000e-05
 DIIS Error             TolErr          ....  5.000e-07


Diagonalization of the overlap matrix:
Smallest eigenvalue                        ... 3.406e-05
Time for diagonalization                   ...    0.118 sec
Threshold for overlap eigenvalues          ... 1.000e-08
Number of eigenvalues below threshold      ... 0
Time for construction of square roots      ...    0.113 sec
Total time needed                          ...    0.233 sec

-------------------
DFT GRID GENERATION
-------------------

General Integration Accuracy     IntAcc      ...  4.340
Radial Grid Type                 RadialGrid  ... Gauss-Chebyshev
Angular Grid (max. acc.)         AngularGrid ... Lebedev-110
Angular grid pruning method      GridPruning ... 3 (G Style)
Weight generation scheme         WeightScheme... Becke
Basis function cutoff            BFCut       ...    1.0000e-11
Integration weight cutoff        WCut        ...    1.0000e-14
Grids for H and He will be reduced by one unit

# of grid points (after initial pruning)     ...  46246 (   0.0 sec)
# of grid points (after weights+screening)   ...  41197 (   0.3 sec)
nearest neighbour list constructed           ...    0.0 sec
Grid point re-assignment to atoms done       ...    0.0 sec
Grid point division into batches done        ...    0.0 sec
Reduced shell lists constructed in    1.0 sec

Total number of grid points                  ...    41197
Total number of batches                      ...      661
Average number of points per batch           ...       62
Average number of grid points per atom       ...     1144
Average number of shells per batch           ...   152.41 (51.15%)
Average number of basis functions per batch  ...   387.41 (46.79%)
Average number of large shells per batch     ...    97.54 (64.00%)
Average number of large basis fcns per batch ...   250.13 (64.57%)
Maximum spatial batch extension              ...  21.51, 20.36, 20.34 au
Average spatial batch extension              ...   3.55,  3.37,  3.47 au

Time for grid setup =    1.317 sec

------------------------------
INITIAL GUESS: MODEL POTENTIAL
------------------------------
Loading Hartree-Fock densities                     ... done
Calculating cut-offs                               ... done
Setting up the integral package                    ... done
Initializing the effective Hamiltonian             ... done
Starting the Coulomb interaction                   ... done (   3.2 sec)
Reading the grid                                   ... done
Mapping shells                                     ... done
Starting the XC term evaluation                    ... done (   1.5 sec)
Transforming the Hamiltonian                       ... done (   0.1 sec)
Diagonalizing the Hamiltonian                      ... done (   0.1 sec)
Back transforming the eigenvectors                 ... done (   0.0 sec)
Now organizing SCF variables                       ... done
                      ------------------
                      INITIAL GUESS DONE (   6.5 sec)
                      ------------------
--------------
SCF ITERATIONS
--------------
ITER       Energy         Delta-E        Max-DP      RMS-DP      [F,P]     Damp
               ***  Starting incremental Fock matrix formation  ***
  0  -1270.0196559271   0.000000000000 0.04931166  0.00043404  0.3077310 0.7000
  1  -1270.2868414587  -0.267185531611 0.03607852  0.00034874  0.1811813 0.7000
                               ***Turning on DIIS***
  2  -1270.4532831397  -0.166441681009 0.02583645  0.00023325  0.1096453 0.7000
  3  -1272.6004360889  -2.147152949218 0.06313484  0.00050518  0.0829212 0.0000
  4  -1270.7625734668   1.837862622105 0.00753251  0.00009496  0.0069444 0.0000
  5  -1270.8202111119  -0.057637645037 0.00394129  0.00005028  0.0048243 0.0000
                      *** Initiating the SOSCF procedure ***
                           *** Shutting down DIIS ***
                      *** Re-Reading the Fockian *** 
                      *** Removing any level shift *** 
ITER      Energy       Delta-E        Grad      Rot      Max-DP    RMS-DP
  6  -1270.80048070   0.0197304151  0.001605  0.001605  0.001787  0.000026
               *** Restarting incremental Fock matrix formation ***
  7  -1270.81487721  -0.0143965115  0.000892  0.002282  0.001247  0.000015
  8  -1270.81492202  -0.0000448141  0.000385  0.002539  0.001371  0.000016
  9  -1270.81493874  -0.0000167194  0.000170  0.000323  0.000347  0.000004
 10  -1270.81494084  -0.0000021016  0.000048  0.000127  0.000116  0.000001
 11  -1270.81494105  -0.0000002059  0.000023  0.000116  0.000051  0.000001
 12  -1270.81494111  -0.0000000655  0.000009  0.000040  0.000034  0.000000
 13  -1270.81494112  -0.0000000023  0.000003  0.000012  0.000006  0.000000
                  ***Gradient check signals convergence***
              ***Rediagonalizing the Fockian in SOSCF/NRSCF***

               *****************************************************
               *                     SUCCESS                       *
               *           SCF CONVERGED AFTER  14 CYCLES          *
               *****************************************************


----------------
TOTAL SCF ENERGY
----------------

Total Energy       :        -1270.81494111 Eh          -34580.63259 eV

Components:
Nuclear Repulsion  :         1721.76036523 Eh           46851.48142 eV
Electronic Energy  :        -2992.57530634 Eh          -81432.11401 eV
One Electron Energy:        -5164.76090192 Eh         -140540.28907 eV
Two Electron Energy:         2172.18559558 Eh           59108.17506 eV

Virial components:
Potential Energy   :        -2539.76301191 Eh          -69110.46506 eV
Kinetic Energy     :         1268.94807080 Eh           34529.83247 eV
Virial Ratio       :            2.00147120


---------------
SCF CONVERGENCE
---------------

  Last Energy change         ...    9.8935e-09  Tolerance :   1.0000e-08
  Last MAX-Density change    ...    1.9924e-06  Tolerance :   1.0000e-07
  Last RMS-Density change    ...    2.7545e-08  Tolerance :   5.0000e-09
  Last Orbital Gradient      ...    1.4001e-06  Tolerance :   1.0000e-05
  Last Orbital Rotation      ...    3.1645e-06  Tolerance :   1.0000e-05

             **** THE GBW FILE WAS UPDATED (CONFS/Conf276.orca.gbw) ****
             **** DENSITY FILE WAS UPDATED (CONFS/Conf276.orca.scfp) ****
             **** ENERGY FILE WAS UPDATED (CONFS/Conf276.orca.en.tmp) ****
             **** THE GBW FILE WAS UPDATED (CONFS/Conf276.orca.gbw) ****
             **** DENSITY FILE WAS UPDATED (CONFS/Conf276.orca.scfp) ****
----------------
ORBITAL ENERGIES
----------------

  NO   OCC          E(Eh)            E(eV) 
   0   2.0000     -91.889216     -2500.4327 
   1   2.0000     -20.598356      -560.5098 
   2   2.0000     -20.597204      -560.4784 
   3   2.0000     -20.542042      -558.9774 
   4   2.0000     -15.629648      -425.3043 
   5   2.0000     -15.608563      -424.7306 
   6   2.0000     -11.394663      -310.0645 
   7   2.0000     -11.384267      -309.7817 
   8   2.0000     -11.336696      -308.4872 
   9   2.0000     -11.315669      -307.9150 
  10   2.0000     -11.309665      -307.7516 
  11   2.0000     -11.294421      -307.3368 
  12   2.0000     -11.261229      -306.4336 
  13   2.0000     -11.259428      -306.3846 
  14   2.0000     -11.257124      -306.3219 
  15   2.0000     -11.252481      -306.1956 
  16   2.0000     -11.244654      -305.9826 
  17   2.0000     -11.239509      -305.8426 
  18   2.0000     -11.239454      -305.8411 
  19   2.0000     -11.220508      -305.3255 
  20   2.0000      -8.894269      -242.0254 
  21   2.0000      -6.575842      -178.9378 
  22   2.0000      -6.573839      -178.8833 
  23   2.0000      -6.573251      -178.8673 
  24   2.0000      -1.449888       -39.4535 
  25   2.0000      -1.418005       -38.5859 
  26   2.0000      -1.353304       -36.8253 
  27   2.0000      -1.340654       -36.4811 
  28   2.0000      -1.239151       -33.7190 
  29   2.0000      -1.159036       -31.5390 
  30   2.0000      -1.120882       -30.5007 
  31   2.0000      -1.043611       -28.3981 
  32   2.0000      -1.033564       -28.1247 
  33   2.0000      -1.016757       -27.6674 
  34   2.0000      -0.996129       -27.1060 
  35   2.0000      -0.984628       -26.7931 
  36   2.0000      -0.923405       -25.1271 
  37   2.0000      -0.892846       -24.2956 
  38   2.0000      -0.847567       -23.0635 
  39   2.0000      -0.839237       -22.8368 
  40   2.0000      -0.835194       -22.7268 
  41   2.0000      -0.814485       -22.1633 
  42   2.0000      -0.755713       -20.5640 
  43   2.0000      -0.733554       -19.9610 
  44   2.0000      -0.723147       -19.6778 
  45   2.0000      -0.697465       -18.9790 
  46   2.0000      -0.689246       -18.7553 
  47   2.0000      -0.678155       -18.4535 
  48   2.0000      -0.669935       -18.2298 
  49   2.0000      -0.663942       -18.0668 
  50   2.0000      -0.648647       -17.6506 
  51   2.0000      -0.642454       -17.4821 
  52   2.0000      -0.633968       -17.2511 
  53   2.0000      -0.609101       -16.5745 
  54   2.0000      -0.606206       -16.4957 
  55   2.0000      -0.600873       -16.3506 
  56   2.0000      -0.599659       -16.3176 
  57   2.0000      -0.579022       -15.7560 
  58   2.0000      -0.571019       -15.5382 
  59   2.0000      -0.566823       -15.4240 
  60   2.0000      -0.557168       -15.1613 
  61   2.0000      -0.544163       -14.8074 
  62   2.0000      -0.534019       -14.5314 
  63   2.0000      -0.530346       -14.4315 
  64   2.0000      -0.526691       -14.3320 
  65   2.0000      -0.513586       -13.9754 
  66   2.0000      -0.502666       -13.6782 
  67   2.0000      -0.499452       -13.5908 
  68   2.0000      -0.478560       -13.0223 
  69   2.0000      -0.464508       -12.6399 
  70   2.0000      -0.453392       -12.3374 
  71   2.0000      -0.445804       -12.1310 
  72   2.0000      -0.355114        -9.6631 
  73   2.0000      -0.351262        -9.5583 
  74   2.0000      -0.328794        -8.9469 
  75   2.0000      -0.323383        -8.7997 
  76   2.0000      -0.316689        -8.6176 
  77   0.0000       0.074931         2.0390 
  78   0.0000       0.105026         2.8579 
  79   0.0000       0.123666         3.3651 
  80   0.0000       0.131713         3.5841 
  81   0.0000       0.136711         3.7201 
  82   0.0000       0.141045         3.8380 
  83   0.0000       0.151691         4.1277 
  84   0.0000       0.158907         4.3241 
  85   0.0000       0.164454         4.4750 
  86   0.0000       0.168287         4.5793 
  87   0.0000       0.178494         4.8571 
  88   0.0000       0.193627         5.2689 
  89   0.0000       0.197360         5.3705 
  90   0.0000       0.200639         5.4597 
  91   0.0000       0.208617         5.6768 
  92   0.0000       0.214943         5.8489 
  93   0.0000       0.223265         6.0753 
  94   0.0000       0.231859         6.3092 
  95   0.0000       0.236059         6.4235 
  96   0.0000       0.246078         6.6961 
  97   0.0000       0.257839         7.0162 
  98   0.0000       0.269519         7.3340 
  99   0.0000       0.274543         7.4707 
 100   0.0000       0.297068         8.0836 
 101   0.0000       0.303837         8.2678 
 102   0.0000       0.312302         8.4982 
 103   0.0000       0.318150         8.6573 
 104   0.0000       0.322467         8.7748 
 105   0.0000       0.325878         8.8676 
 106   0.0000       0.340507         9.2657 
 107   0.0000       0.346471         9.4280 
 108   0.0000       0.366244         9.9660 
 109   0.0000       0.367753        10.0071 
 110   0.0000       0.373683        10.1684 
 111   0.0000       0.380365        10.3503 
 112   0.0000       0.384353        10.4588 
 113   0.0000       0.385543        10.4911 
 114   0.0000       0.392208        10.6725 
 115   0.0000       0.403797        10.9879 
 116   0.0000       0.419663        11.4196 
 117   0.0000       0.421463        11.4686 
 118   0.0000       0.434937        11.8352 
 119   0.0000       0.436633        11.8814 
 120   0.0000       0.441193        12.0055 
 121   0.0000       0.445710        12.1284 
 122   0.0000       0.455237        12.3876 
 123   0.0000       0.457785        12.4570 
 124   0.0000       0.468094        12.7375 
 125   0.0000       0.473522        12.8852 
 126   0.0000       0.481703        13.1078 
 127   0.0000       0.485824        13.2199 
 128   0.0000       0.493151        13.4193 
 129   0.0000       0.500651        13.6234 
 130   0.0000       0.505136        13.7455 
 131   0.0000       0.505693        13.7606 
 132   0.0000       0.514120        13.9899 
 133   0.0000       0.521844        14.2001 
 134   0.0000       0.522532        14.2188 
 135   0.0000       0.532669        14.4947 
 136   0.0000       0.541738        14.7414 
 137   0.0000       0.544563        14.8183 
 138   0.0000       0.549297        14.9471 
 139   0.0000       0.554056        15.0766 
 140   0.0000       0.559388        15.2217 
 141   0.0000       0.563387        15.3305 
 142   0.0000       0.565727        15.3942 
 143   0.0000       0.570124        15.5139 
 144   0.0000       0.572958        15.5910 
 145   0.0000       0.580082        15.7848 
 146   0.0000       0.592230        16.1154 
 147   0.0000       0.594531        16.1780 
 148   0.0000       0.599597        16.3159 
 149   0.0000       0.603479        16.4215 
 150   0.0000       0.605038        16.4639 
 151   0.0000       0.609313        16.5802 
 152   0.0000       0.610553        16.6140 
 153   0.0000       0.614062        16.7095 
 154   0.0000       0.623390        16.9633 
 155   0.0000       0.628277        17.0963 
 156   0.0000       0.629008        17.1162 
 157   0.0000       0.632353        17.2072 
 158   0.0000       0.642149        17.4738 
 159   0.0000       0.645105        17.5542 
 160   0.0000       0.647943        17.6314 
 161   0.0000       0.658796        17.9267 
 162   0.0000       0.665023        18.0962 
 163   0.0000       0.668687        18.1959 
 164   0.0000       0.671726        18.2786 
 165   0.0000       0.678340        18.4586 
 166   0.0000       0.684642        18.6301 
 167   0.0000       0.686658        18.6849 
 168   0.0000       0.691088        18.8055 
 169   0.0000       0.696968        18.9655 
 170   0.0000       0.708846        19.2887 
 171   0.0000       0.714929        19.4542 
 172   0.0000       0.723345        19.6832 
 173   0.0000       0.727313        19.7912 
 174   0.0000       0.736026        20.0283 
 175   0.0000       0.742481        20.2039 
 176   0.0000       0.748957        20.3802 
 177   0.0000       0.750198        20.4139 
 178   0.0000       0.759326        20.6623 
 179   0.0000       0.762271        20.7424 
 180   0.0000       0.772262        21.0143 
 181   0.0000       0.773285        21.0422 
 182   0.0000       0.779940        21.2232 
 183   0.0000       0.787451        21.4276 
 184   0.0000       0.797581        21.7033 
 185   0.0000       0.804995        21.9050 
 186   0.0000       0.822558        22.3829 
 187   0.0000       0.826008        22.4768 
 188   0.0000       0.833984        22.6939 
 189   0.0000       0.838168        22.8077 
 190   0.0000       0.839711        22.8497 
 191   0.0000       0.846827        23.0433 
 192   0.0000       0.856158        23.2973 
 193   0.0000       0.862241        23.4628 
 194   0.0000       0.868679        23.6380 
 195   0.0000       0.881780        23.9945 
 196   0.0000       0.888712        24.1831 
 197   0.0000       0.894933        24.3524 
 198   0.0000       0.902910        24.5694 
 199   0.0000       0.905144        24.6302 
 200   0.0000       0.916846        24.9487 
 201   0.0000       0.920257        25.0415 
 202   0.0000       0.928231        25.2584 
 203   0.0000       0.936076        25.4719 
 204   0.0000       0.940711        25.5981 
 205   0.0000       0.954469        25.9724 
 206   0.0000       0.965614        26.2757 
 207   0.0000       0.966906        26.3109 
 208   0.0000       0.972617        26.4662 
 209   0.0000       0.982986        26.7484 
 210   0.0000       0.984412        26.7872 
 211   0.0000       0.991563        26.9818 
 212   0.0000       1.000788        27.2328 
 213   0.0000       1.004805        27.3421 
 214   0.0000       1.011987        27.5376 
 215   0.0000       1.025936        27.9171 
 216   0.0000       1.030554        28.0428 
 217   0.0000       1.033823        28.1317 
 218   0.0000       1.041743        28.3473 
 219   0.0000       1.051776        28.6203 
 220   0.0000       1.059342        28.8262 
 221   0.0000       1.061832        28.8939 
 222   0.0000       1.066000        29.0073 
 223   0.0000       1.073632        29.2150 
 224   0.0000       1.081672        29.4338 
 225   0.0000       1.089724        29.6529 
 226   0.0000       1.100077        29.9346 
 227   0.0000       1.111250        30.2386 
 228   0.0000       1.118539        30.4370 
 229   0.0000       1.124965        30.6119 
 230   0.0000       1.130890        30.7731 
 231   0.0000       1.142555        31.0905 
 232   0.0000       1.143410        31.1138 
 233   0.0000       1.152544        31.3623 
 234   0.0000       1.157750        31.5040 
 235   0.0000       1.164082        31.6763 
 236   0.0000       1.169412        31.8213 
 237   0.0000       1.176960        32.0267 
 238   0.0000       1.180471        32.1222 
 239   0.0000       1.188642        32.3446 
 240   0.0000       1.198107        32.6022 
 241   0.0000       1.203538        32.7499 
 242   0.0000       1.205895        32.8141 
 243   0.0000       1.211113        32.9561 
 244   0.0000       1.219819        33.1930 
 245   0.0000       1.231145        33.5012 
 246   0.0000       1.234897        33.6032 
 247   0.0000       1.236695        33.6522 
 248   0.0000       1.244001        33.8510 
 249   0.0000       1.257673        34.2230 
 250   0.0000       1.269212        34.5370 
 251   0.0000       1.271059        34.5873 
 252   0.0000       1.275574        34.7101 
 253   0.0000       1.285493        34.9800 
 254   0.0000       1.301533        35.4165 
 255   0.0000       1.306447        35.5502 
 256   0.0000       1.312932        35.7267 
 257   0.0000       1.335038        36.3282 
 258   0.0000       1.335924        36.3523 
 259   0.0000       1.338221        36.4149 
 260   0.0000       1.343637        36.5622 
 261   0.0000       1.350836        36.7581 
 262   0.0000       1.363791        37.1106 
 263   0.0000       1.367502        37.2116 
 264   0.0000       1.379174        37.5292 
 265   0.0000       1.387247        37.7489 
 266   0.0000       1.393891        37.9297 
 267   0.0000       1.397807        38.0363 
 268   0.0000       1.405526        38.2463 
 269   0.0000       1.411981        38.4220 
 270   0.0000       1.420297        38.6482 
 271   0.0000       1.425819        38.7985 
 272   0.0000       1.431208        38.9452 
 273   0.0000       1.448740        39.4222 
 274   0.0000       1.455261        39.5997 
 275   0.0000       1.463557        39.8254 
 276   0.0000       1.469635        39.9908 
 277   0.0000       1.483367        40.3645 
 278   0.0000       1.495371        40.6911 
 279   0.0000       1.500864        40.8406 
 280   0.0000       1.507035        41.0085 
 281   0.0000       1.508750        41.0552 
 282   0.0000       1.516467        41.2652 
 283   0.0000       1.521464        41.4011 
 284   0.0000       1.523298        41.4511 
 285   0.0000       1.531200        41.6661 
 286   0.0000       1.536672        41.8150 
 287   0.0000       1.542372        41.9701 
 288   0.0000       1.550863        42.2011 
 289   0.0000       1.556731        42.3608 
 290   0.0000       1.558792        42.4169 
 291   0.0000       1.570449        42.7341 
 292   0.0000       1.575715        42.8774 
 293   0.0000       1.587862        43.2079 
 294   0.0000       1.591396        43.3041 
 295   0.0000       1.593605        43.3642 
 296   0.0000       1.604456        43.6595 
 297   0.0000       1.610573        43.8259 
 298   0.0000       1.622140        44.1407 
 299   0.0000       1.635774        44.5117 
 300   0.0000       1.650169        44.9034 
 301   0.0000       1.650831        44.9214 
 302   0.0000       1.657209        45.0950 
 303   0.0000       1.668205        45.3942 
 304   0.0000       1.669384        45.4263 
 305   0.0000       1.687061        45.9073 
 306   0.0000       1.696934        46.1759 
 307   0.0000       1.705257        46.4024 
 308   0.0000       1.710421        46.5429 
 309   0.0000       1.717888        46.7461 
 310   0.0000       1.725684        46.9582 
 311   0.0000       1.737198        47.2716 
 312   0.0000       1.748931        47.5908 
 313   0.0000       1.759136        47.8685 
 314   0.0000       1.772211        48.2243 
 315   0.0000       1.777413        48.3659 
 316   0.0000       1.781563        48.4788 
 317   0.0000       1.800846        49.0035 
 318   0.0000       1.809084        49.2277 
 319   0.0000       1.815056        49.3902 
 320   0.0000       1.818455        49.4827 
 321   0.0000       1.826632        49.7052 
 322   0.0000       1.841552        50.1112 
 323   0.0000       1.848071        50.2886 
 324   0.0000       1.867484        50.8168 
 325   0.0000       1.873697        50.9859 
 326   0.0000       1.881658        51.2025 
 327   0.0000       1.900757        51.7222 
 328   0.0000       1.904699        51.8295 
 329   0.0000       1.920133        52.2495 
 330   0.0000       1.927316        52.4449 
 331   0.0000       1.929141        52.4946 
 332   0.0000       1.935564        52.6694 
 333   0.0000       1.942477        52.8575 
 334   0.0000       1.959311        53.3156 
 335   0.0000       1.971761        53.6543 
 336   0.0000       1.992924        54.2302 
 337   0.0000       1.998457        54.3808 
 338   0.0000       2.007498        54.6268 
 339   0.0000       2.020989        54.9939 
 340   0.0000       2.030782        55.2604 
 341   0.0000       2.037271        55.4370 
 342   0.0000       2.055047        55.9207 
 343   0.0000       2.074165        56.4409 
 344   0.0000       2.084304        56.7168 
 345   0.0000       2.116661        57.5973 
 346   0.0000       2.120899        57.7126 
 347   0.0000       2.129218        57.9390 
 348   0.0000       2.152742        58.5791 
 349   0.0000       2.160999        58.8038 
 350   0.0000       2.166924        58.9650 
 351   0.0000       2.208685        60.1014 
 352   0.0000       2.210851        60.1603 
 353   0.0000       2.225979        60.5720 
 354   0.0000       2.234786        60.8116 
 355   0.0000       2.246528        61.1311 
 356   0.0000       2.277447        61.9725 
 357   0.0000       2.280383        62.0524 
 358   0.0000       2.292574        62.3841 
 359   0.0000       2.299061        62.5606 
 360   0.0000       2.309726        62.8508 
 361   0.0000       2.330952        63.4284 
 362   0.0000       2.342800        63.7508 
 363   0.0000       2.347264        63.8723 
 364   0.0000       2.368323        64.4453 
 365   0.0000       2.387227        64.9597 
 366   0.0000       2.392799        65.1114 
 367   0.0000       2.403560        65.4042 
 368   0.0000       2.420412        65.8627 
 369   0.0000       2.430224        66.1298 
 370   0.0000       2.459176        66.9176 
 371   0.0000       2.468094        67.1602 
 372   0.0000       2.468982        67.1844 
 373   0.0000       2.487014        67.6751 
 374   0.0000       2.495773        67.9134 
 375   0.0000       2.510851        68.3237 
 376   0.0000       2.513054        68.3837 
 377   0.0000       2.533455        68.9388 
 378   0.0000       2.549976        69.3884 
 379   0.0000       2.557794        69.6011 
 380   0.0000       2.578062        70.1526 
 381   0.0000       2.584505        70.3280 
 382   0.0000       2.588722        70.4427 
 383   0.0000       2.611254        71.0558 
 384   0.0000       2.616151        71.1891 
 385   0.0000       2.633445        71.6597 
 386   0.0000       2.639410        71.8220 
 387   0.0000       2.644897        71.9713 
 388   0.0000       2.667265        72.5800 
 389   0.0000       2.675093        72.7930 
 390   0.0000       2.686285        73.0975 
 391   0.0000       2.697440        73.4011 
 392   0.0000       2.718282        73.9682 
 393   0.0000       2.723691        74.1154 
 394   0.0000       2.735794        74.4447 
 395   0.0000       2.743385        74.6513 
 396   0.0000       2.754926        74.9653 
 397   0.0000       2.762212        75.1636 
 398   0.0000       2.772937        75.4554 
 399   0.0000       2.779295        75.6285 
 400   0.0000       2.790746        75.9400 
 401   0.0000       2.796191        76.0882 
 402   0.0000       2.811904        76.5158 
 403   0.0000       2.816415        76.6385 
 404   0.0000       2.832535        77.0772 
 405   0.0000       2.835279        77.1519 
 406   0.0000       2.840012        77.2807 
 407   0.0000       2.848371        77.5081 
 408   0.0000       2.861739        77.8719 
 409   0.0000       2.868213        78.0480 
 410   0.0000       2.877394        78.2979 
 411   0.0000       2.895648        78.7946 
 412   0.0000       2.899112        78.8888 
 413   0.0000       2.910941        79.2107 
 414   0.0000       2.913478        79.2798 
 415   0.0000       2.925891        79.6175 
 416   0.0000       2.927405        79.6587 
 417   0.0000       2.947013        80.1923 
 418   0.0000       2.955427        80.4213 
 419   0.0000       2.963555        80.6424 
 420   0.0000       2.975415        80.9652 
 421   0.0000       2.985594        81.2421 
 422   0.0000       2.989302        81.3430 
 423   0.0000       2.998011        81.5800 
 424   0.0000       3.005599        81.7865 
 425   0.0000       3.011169        81.9381 
 426   0.0000       3.018708        82.1432 
 427   0.0000       3.024764        82.3080 
 428   0.0000       3.033840        82.5550 
 429   0.0000       3.040163        82.7270 
 430   0.0000       3.050232        83.0010 
 431   0.0000       3.056812        83.1801 
 432   0.0000       3.065528        83.4173 
 433   0.0000       3.068361        83.4943 
 434   0.0000       3.081514        83.8522 
 435   0.0000       3.085566        83.9625 
 436   0.0000       3.089336        84.0651 
 437   0.0000       3.099325        84.3369 
 438   0.0000       3.105055        84.4928 
 439   0.0000       3.107480        84.5588 
 440   0.0000       3.118750        84.8655 
 441   0.0000       3.123943        85.0068 
 442   0.0000       3.128269        85.1245 
 443   0.0000       3.142475        85.5111 
 444   0.0000       3.148320        85.6701 
 445   0.0000       3.152379        85.7806 
 446   0.0000       3.165873        86.1478 
 447   0.0000       3.171734        86.3073 
 448   0.0000       3.173596        86.3579 
 449   0.0000       3.180073        86.5342 
 450   0.0000       3.195740        86.9605 
 451   0.0000       3.205228        87.2187 
 452   0.0000       3.215576        87.5003 
 453   0.0000       3.226035        87.7849 
 454   0.0000       3.230620        87.9096 
 455   0.0000       3.237011        88.0835 
 456   0.0000       3.250450        88.4492 
 457   0.0000       3.253488        88.5319 
 458   0.0000       3.262724        88.7832 
 459   0.0000       3.265372        88.8553 
 460   0.0000       3.270879        89.0051 
 461   0.0000       3.277292        89.1796 
 462   0.0000       3.287108        89.4468 
 463   0.0000       3.293448        89.6193 
 464   0.0000       3.301983        89.8515 
 465   0.0000       3.308310        90.0237 
 466   0.0000       3.308789        90.0367 
 467   0.0000       3.319570        90.3301 
 468   0.0000       3.330581        90.6297 
 469   0.0000       3.340307        90.8944 
 470   0.0000       3.341792        90.9348 
 471   0.0000       3.343809        90.9897 
 472   0.0000       3.351172        91.1900 
 473   0.0000       3.360031        91.4311 
 474   0.0000       3.367435        91.6326 
 475   0.0000       3.370126        91.7058 
 476   0.0000       3.376134        91.8693 
 477   0.0000       3.380826        91.9970 
 478   0.0000       3.387642        92.1824 
 479   0.0000       3.394813        92.3776 
 480   0.0000       3.397371        92.4472 
 481   0.0000       3.409628        92.7807 
 482   0.0000       3.411530        92.8325 
 483   0.0000       3.419542        93.0505 
 484   0.0000       3.422687        93.1360 
 485   0.0000       3.428632        93.2978 
 486   0.0000       3.429558        93.3230 
 487   0.0000       3.440896        93.6315 
 488   0.0000       3.442196        93.6669 
 489   0.0000       3.443241        93.6954 
 490   0.0000       3.451029        93.9073 
 491   0.0000       3.454154        93.9923 
 492   0.0000       3.455776        94.0364 
 493   0.0000       3.464277        94.2678 
 494   0.0000       3.471419        94.4621 
 495   0.0000       3.476252        94.5936 
 496   0.0000       3.485247        94.8384 
 497   0.0000       3.496855        95.1543 
 498   0.0000       3.498819        95.2077 
 499   0.0000       3.506795        95.4247 
 500   0.0000       3.512933        95.5918 
 501   0.0000       3.523850        95.8888 
 502   0.0000       3.535056        96.1938 
 503   0.0000       3.539187        96.3062 
 504   0.0000       3.551060        96.6293 
 505   0.0000       3.555891        96.7607 
 506   0.0000       3.564794        97.0030 
 507   0.0000       3.574063        97.2552 
 508   0.0000       3.582916        97.4961 
 509   0.0000       3.587310        97.6157 
 510   0.0000       3.597434        97.8912 
 511   0.0000       3.604376        98.0801 
 512   0.0000       3.610446        98.2452 
 513   0.0000       3.617584        98.4395 
 514   0.0000       3.624947        98.6398 
 515   0.0000       3.628394        98.7336 
 516   0.0000       3.631969        98.8309 
 517   0.0000       3.634743        98.9064 
 518   0.0000       3.641323        99.0854 
 519   0.0000       3.645944        99.2112 
 520   0.0000       3.653459        99.4157 
 521   0.0000       3.661429        99.6326 
 522   0.0000       3.667728        99.8039 
 523   0.0000       3.669516        99.8526 
 524   0.0000       3.679036       100.1117 
 525   0.0000       3.685411       100.2851 
 526   0.0000       3.689646       100.4004 
 527   0.0000       3.690359       100.4198 
 528   0.0000       3.694505       100.5326 
 529   0.0000       3.713904       101.0605 
 530   0.0000       3.718047       101.1732 
 531   0.0000       3.723802       101.3298 
 532   0.0000       3.730925       101.5236 
 533   0.0000       3.736812       101.6838 
 534   0.0000       3.747262       101.9682 
 535   0.0000       3.758051       102.2618 
 536   0.0000       3.762757       102.3898 
 537   0.0000       3.765033       102.4518 
 538   0.0000       3.778828       102.8271 
 539   0.0000       3.782485       102.9266 
 540   0.0000       3.786160       103.0266 
 541   0.0000       3.793147       103.2168 
 542   0.0000       3.796830       103.3170 
 543   0.0000       3.806695       103.5854 
 544   0.0000       3.810851       103.6985 
 545   0.0000       3.818192       103.8983 
 546   0.0000       3.821523       103.9889 
 547   0.0000       3.825983       104.1103 
 548   0.0000       3.841531       104.5334 
 549   0.0000       3.846276       104.6625 
 550   0.0000       3.851757       104.8116 
 551   0.0000       3.867375       105.2366 
 552   0.0000       3.876292       105.4793 
 553   0.0000       3.883154       105.6660 
 554   0.0000       3.893903       105.9585 
 555   0.0000       3.895873       106.0121 
 556   0.0000       3.904221       106.2393 
 557   0.0000       3.923350       106.7598 
 558   0.0000       3.929202       106.9190 
 559   0.0000       3.934252       107.0564 
 560   0.0000       3.946253       107.3830 
 561   0.0000       3.949220       107.4637 
 562   0.0000       3.962220       107.8175 
 563   0.0000       3.970467       108.0419 
 564   0.0000       3.979211       108.2798 
 565   0.0000       3.987804       108.5137 
 566   0.0000       3.991192       108.6059 
 567   0.0000       4.003302       108.9354 
 568   0.0000       4.013498       109.2128 
 569   0.0000       4.016013       109.2813 
 570   0.0000       4.027010       109.5805 
 571   0.0000       4.038495       109.8930 
 572   0.0000       4.046290       110.1051 
 573   0.0000       4.053607       110.3043 
 574   0.0000       4.062649       110.5503 
 575   0.0000       4.070583       110.7662 
 576   0.0000       4.082457       111.0893 
 577   0.0000       4.095036       111.4316 
 578   0.0000       4.101520       111.6080 
 579   0.0000       4.107861       111.7806 
 580   0.0000       4.121855       112.1614 
 581   0.0000       4.124836       112.2425 
 582   0.0000       4.131490       112.4236 
 583   0.0000       4.136792       112.5678 
 584   0.0000       4.144489       112.7773 
 585   0.0000       4.156739       113.1106 
 586   0.0000       4.160847       113.2224 
 587   0.0000       4.165331       113.3444 
 588   0.0000       4.174047       113.5816 
 589   0.0000       4.178885       113.7132 
 590   0.0000       4.186435       113.9187 
 591   0.0000       4.194861       114.1480 
 592   0.0000       4.196077       114.1810 
 593   0.0000       4.205223       114.4299 
 594   0.0000       4.208405       114.5165 
 595   0.0000       4.215135       114.6997 
 596   0.0000       4.224355       114.9505 
 597   0.0000       4.229901       115.1014 
 598   0.0000       4.236618       115.2842 
 599   0.0000       4.243362       115.4678 
 600   0.0000       4.246994       115.5666 
 601   0.0000       4.261646       115.9653 
 602   0.0000       4.274029       116.3022 
 603   0.0000       4.277944       116.4088 
 604   0.0000       4.293634       116.8357 
 605   0.0000       4.300294       117.0169 
 606   0.0000       4.307551       117.2144 
 607   0.0000       4.318158       117.5031 
 608   0.0000       4.326242       117.7230 
 609   0.0000       4.332250       117.8865 
 610   0.0000       4.341592       118.1407 
 611   0.0000       4.345737       118.2535 
 612   0.0000       4.351352       118.4063 
 613   0.0000       4.357374       118.5702 
 614   0.0000       4.371314       118.9495 
 615   0.0000       4.376963       119.1032 
 616   0.0000       4.380607       119.2024 
 617   0.0000       4.385585       119.3378 
 618   0.0000       4.403802       119.8335 
 619   0.0000       4.407853       119.9438 
 620   0.0000       4.413851       120.1070 
 621   0.0000       4.423133       120.3596 
 622   0.0000       4.430435       120.5583 
 623   0.0000       4.434591       120.6714 
 624   0.0000       4.439385       120.8018 
 625   0.0000       4.458724       121.3281 
 626   0.0000       4.463499       121.4580 
 627   0.0000       4.467101       121.5560 
 628   0.0000       4.474630       121.7609 
 629   0.0000       4.495130       122.3187 
 630   0.0000       4.502750       122.5261 
 631   0.0000       4.512567       122.7932 
 632   0.0000       4.517338       122.9230 
 633   0.0000       4.531950       123.3206 
 634   0.0000       4.543892       123.6456 
 635   0.0000       4.547109       123.7331 
 636   0.0000       4.558277       124.0370 
 637   0.0000       4.565483       124.2331 
 638   0.0000       4.571633       124.4004 
 639   0.0000       4.575088       124.4945 
 640   0.0000       4.587821       124.8410 
 641   0.0000       4.593997       125.0090 
 642   0.0000       4.601236       125.2060 
 643   0.0000       4.611421       125.4831 
 644   0.0000       4.619354       125.6990 
 645   0.0000       4.628241       125.9409 
 646   0.0000       4.634322       126.1063 
 647   0.0000       4.643382       126.3529 
 648   0.0000       4.648326       126.4874 
 649   0.0000       4.654824       126.6642 
 650   0.0000       4.659401       126.7887 
 651   0.0000       4.662251       126.8663 
 652   0.0000       4.666530       126.9827 
 653   0.0000       4.686145       127.5165 
 654   0.0000       4.697602       127.8282 
 655   0.0000       4.710015       128.1660 
 656   0.0000       4.715657       128.3196 
 657   0.0000       4.722498       128.5057 
 658   0.0000       4.744432       129.1026 
 659   0.0000       4.748260       129.2067 
 660   0.0000       4.756864       129.4408 
 661   0.0000       4.766613       129.7061 
 662   0.0000       4.778353       130.0256 
 663   0.0000       4.784963       130.2055 
 664   0.0000       4.798565       130.5756 
 665   0.0000       4.817131       131.0808 
 666   0.0000       4.830876       131.4548 
 667   0.0000       4.846055       131.8679 
 668   0.0000       4.868757       132.4856 
 669   0.0000       4.884419       132.9118 
 670   0.0000       4.902570       133.4057 
 671   0.0000       4.930132       134.1557 
 672   0.0000       4.942659       134.4966 
 673   0.0000       4.951447       134.7357 
 674   0.0000       4.966980       135.1584 
 675   0.0000       4.988334       135.7395 
 676   0.0000       5.018224       136.5528 
 677   0.0000       5.030401       136.8842 
 678   0.0000       5.031743       136.9207 
 679   0.0000       5.047154       137.3400 
 680   0.0000       5.054617       137.5431 
 681   0.0000       5.083156       138.3197 
 682   0.0000       5.096911       138.6940 
 683   0.0000       5.107708       138.9878 
 684   0.0000       5.113748       139.1522 
 685   0.0000       5.118727       139.2876 
 686   0.0000       5.127897       139.5372 
 687   0.0000       5.144520       139.9895 
 688   0.0000       5.159674       140.4019 
 689   0.0000       5.162595       140.4813 
 690   0.0000       5.168840       140.6513 
 691   0.0000       5.191528       141.2687 
 692   0.0000       5.191925       141.2795 
 693   0.0000       5.200871       141.5229 
 694   0.0000       5.209087       141.7465 
 695   0.0000       5.212723       141.8454 
 696   0.0000       5.223805       142.1470 
 697   0.0000       5.224587       142.1682 
 698   0.0000       5.238723       142.5529 
 699   0.0000       5.258607       143.0940 
 700   0.0000       5.266382       143.3055 
 701   0.0000       5.277154       143.5987 
 702   0.0000       5.303877       144.3258 
 703   0.0000       5.308568       144.4535 
 704   0.0000       5.319202       144.7428 
 705   0.0000       5.338843       145.2773 
 706   0.0000       5.347527       145.5136 
 707   0.0000       5.368463       146.0833 
 708   0.0000       5.374278       146.2415 
 709   0.0000       5.384488       146.5194 
 710   0.0000       5.399989       146.9412 
 711   0.0000       5.407488       147.1452 
 712   0.0000       5.429636       147.7479 
 713   0.0000       5.450940       148.3276 
 714   0.0000       5.470426       148.8579 
 715   0.0000       5.485127       149.2579 
 716   0.0000       5.504549       149.7864 
 717   0.0000       5.516278       150.1056 
 718   0.0000       5.519900       150.2041 
 719   0.0000       5.535943       150.6407 
 720   0.0000       5.545623       150.9041 
 721   0.0000       5.551079       151.0525 
 722   0.0000       5.559255       151.2750 
 723   0.0000       5.578907       151.8098 
 724   0.0000       5.589623       152.1014 
 725   0.0000       5.597343       152.3114 
 726   0.0000       5.608263       152.6086 
 727   0.0000       5.622404       152.9934 
 728   0.0000       5.630884       153.2242 
 729   0.0000       5.637289       153.3984 
 730   0.0000       5.649436       153.7290 
 731   0.0000       5.677000       154.4790 
 732   0.0000       5.686426       154.7355 
 733   0.0000       5.702423       155.1708 
 734   0.0000       5.709146       155.3538 
 735   0.0000       5.722076       155.7056 
 736   0.0000       5.728985       155.8936 
 737   0.0000       5.739705       156.1853 
 738   0.0000       5.752611       156.5365 
 739   0.0000       5.756139       156.6325 
 740   0.0000       5.772714       157.0835 
 741   0.0000       5.783249       157.3702 
 742   0.0000       5.794043       157.6639 
 743   0.0000       5.815055       158.2357 
 744   0.0000       5.825522       158.5205 
 745   0.0000       5.852204       159.2466 
 746   0.0000       5.869770       159.7246 
 747   0.0000       5.874458       159.8521 
 748   0.0000       5.920384       161.1018 
 749   0.0000       5.936711       161.5461 
 750   0.0000       5.969564       162.4401 
 751   0.0000       5.973420       162.5450 
 752   0.0000       5.981087       162.7537 
 753   0.0000       5.993369       163.0879 
 754   0.0000       6.010610       163.5570 
 755   0.0000       6.023765       163.9150 
 756   0.0000       6.055547       164.7798 
 757   0.0000       6.066145       165.0682 
 758   0.0000       6.073727       165.2745 
 759   0.0000       6.095984       165.8802 
 760   0.0000       6.116961       166.4510 
 761   0.0000       6.167468       167.8253 
 762   0.0000       6.216407       169.1570 
 763   0.0000       6.227196       169.4506 
 764   0.0000       6.273868       170.7206 
 765   0.0000       6.296716       171.3424 
 766   0.0000       6.297516       171.3641 
 767   0.0000       6.325375       172.1222 
 768   0.0000       6.347933       172.7360 
 769   0.0000       6.367448       173.2671 
 770   0.0000       6.387102       173.8019 
 771   0.0000       6.395364       174.0267 
 772   0.0000       6.406506       174.3299 
 773   0.0000       6.448108       175.4619 
 774   0.0000       6.463408       175.8783 
 775   0.0000       6.474757       176.1871 
 776   0.0000       6.503010       176.9559 
 777   0.0000       6.556812       178.4199 
 778   0.0000       6.584258       179.1668 
 779   0.0000       6.600075       179.5972 
 780   0.0000       6.663999       181.3366 
 781   0.0000       6.680906       181.7967 
 782   0.0000       6.721279       182.8953 
 783   0.0000       6.761099       183.9789 
 784   0.0000       6.816607       185.4893 
 785   0.0000       6.873366       187.0338 
 786   0.0000       6.908944       188.0019 
 787   0.0000       6.920611       188.3194 
 788   0.0000       6.932649       188.6470 
 789   0.0000       7.045598       191.7205 
 790   0.0000       7.054538       191.9637 
 791   0.0000       7.068790       192.3516 
 792   0.0000       7.081222       192.6898 
 793   0.0000       7.142760       194.3644 
 794   0.0000       7.237114       196.9319 
 795   0.0000       7.258952       197.5261 
 796   0.0000       7.278689       198.0632 
 797   0.0000       7.282911       198.1781 
 798   0.0000       7.347115       199.9252 
 799   0.0000       7.370860       200.5713 
 800   0.0000       7.436424       202.3554 
 801   0.0000       7.521779       204.6780 
 802   0.0000       7.581364       206.2994 
 803   0.0000       7.588826       206.5025 
 804   0.0000       7.697716       209.4655 
 805   0.0000       7.819605       212.7823 
 806   0.0000       7.835773       213.2222 
 807   0.0000       7.934688       215.9138 
 808   0.0000       7.966320       216.7746 
 809   0.0000       9.397192       255.7106 
 810   0.0000       9.611172       261.5333 
 811   0.0000      10.810340       294.1643 
 812   0.0000      11.495274       312.8023 
 813   0.0000      11.862252       322.7883 
 814   0.0000      12.582178       342.3785 
 815   0.0000      12.926347       351.7438 
 816   0.0000      13.012246       354.0812 
 817   0.0000      13.091628       356.2413 
 818   0.0000      13.188387       358.8742 
 819   0.0000      13.363909       363.6505 
 820   0.0000      13.562121       369.0441 
 821   0.0000      13.711489       373.1086 
 822   0.0000      13.926635       378.9630 
 823   0.0000      14.056553       382.4982 
 824   0.0000      14.080891       383.1605 
 825   0.0000      14.590340       397.0233 
 826   0.0000      14.833171       403.6311 
 827   0.0000      15.985026       434.9747 

                    ********************************
                    * MULLIKEN POPULATION ANALYSIS *
                    ********************************

-----------------------
MULLIKEN ATOMIC CHARGES
-----------------------
   0 C :   -0.309755
   1 C :    0.024059
   2 O :   -0.364599
   3 C :    0.457135
   4 O :   -0.430354
   5 C :   -0.232568
   6 C :    0.155683
   7 C :   -0.270279
   8 N :   -0.122985
   9 C :    0.214794
  10 S :   -0.440248
  11 N :   -0.207137
  12 C :    0.062154
  13 C :    0.064197
  14 C :   -0.190015
  15 C :   -0.133898
  16 C :   -0.280313
  17 C :    0.312235
  18 O :   -0.357783
  19 C :   -0.252302
  20 H :    0.106435
  21 H :    0.107290
  22 H :    0.107415
  23 H :    0.109902
  24 H :    0.120097
  25 H :    0.131382
  26 H :    0.131870
  27 H :    0.095224
  28 H :    0.197676
  29 H :    0.194894
  30 H :    0.150022
  31 H :    0.149213
  32 H :    0.161288
  33 H :    0.131268
  34 H :    0.241260
  35 H :    0.166742
Sum of atomic charges:   -0.0000000

--------------------------------
MULLIKEN REDUCED ORBITAL CHARGES
--------------------------------
  0 C s       :     3.263894  s :     3.263894
      pz      :     0.971193  p :     2.967739
      px      :     0.967270
      py      :     1.029276
      dz2     :     0.020008  d :     0.073621
      dxz     :     0.018624
      dyz     :     0.007903
      dx2y2   :     0.006455
      dxy     :     0.020631
      f0      :     0.000502  f :     0.004501
      f+1     :     0.001273
      f-1     :     0.000264
      f+2     :     0.000705
      f-2     :     0.000614
      f+3     :     0.000863
      f-3     :     0.000280
  1 C s       :     3.167244  s :     3.167244
      pz      :     0.981139  p :     2.645622
      px      :     0.825347
      py      :     0.839137
      dz2     :     0.034155  d :     0.151578
      dxz     :     0.027066
      dyz     :     0.020980
      dx2y2   :     0.025890
      dxy     :     0.043487
      f0      :     0.001120  f :     0.011497
      f+1     :     0.002029
      f-1     :     0.001355
      f+2     :     0.001006
      f-2     :     0.002026
      f+3     :     0.002100
      f-3     :     0.001861
  2 O s       :     3.722995  s :     3.722995
      pz      :     1.779219  p :     4.605581
      px      :     1.628629
      py      :     1.197733
      dz2     :     0.004048  d :     0.033759
      dxz     :     0.003361
      dyz     :     0.006792
      dx2y2   :     0.008399
      dxy     :     0.011160
      f0      :     0.000273  f :     0.002264
      f+1     :     0.000140
      f-1     :     0.000440
      f+2     :     0.000216
      f-2     :     0.000259
      f+3     :     0.000490
      f-3     :     0.000446
  3 C s       :     3.037778  s :     3.037778
      pz      :     0.780774  p :     2.183919
      px      :     0.676951
      py      :     0.726194
      dz2     :     0.070313  d :     0.294762
      dxz     :     0.031672
      dyz     :     0.071193
      dx2y2   :     0.055423
      dxy     :     0.066161
      f0      :     0.003683  f :     0.026405
      f+1     :     0.003254
      f-1     :     0.003154
      f+2     :     0.004959
      f-2     :     0.003739
      f+3     :     0.004077
      f-3     :     0.003540
  4 O s       :     3.772502  s :     3.772502
      pz      :     1.443286  p :     4.620570
      px      :     1.402753
      py      :     1.774531
      dz2     :     0.009186  d :     0.034885
      dxz     :     0.009969
      dyz     :     0.005441
      dx2y2   :     0.005953
      dxy     :     0.004336
      f0      :     0.000312  f :     0.002398
      f+1     :     0.000536
      f-1     :     0.000238
      f+2     :     0.000455
      f-2     :     0.000474
      f+3     :     0.000185
      f-3     :     0.000198
  5 C s       :     3.192473  s :     3.192473
      pz      :     0.974873  p :     2.949311
      px      :     1.096724
      py      :     0.877715
      dz2     :     0.012634  d :     0.080297
      dxz     :     0.006710
      dyz     :     0.030414
      dx2y2   :     0.008807
      dxy     :     0.021732
      f0      :     0.000812  f :     0.010487
      f+1     :     0.001275
      f-1     :     0.001671
      f+2     :     0.002078
      f-2     :     0.001572
      f+3     :     0.001741
      f-3     :     0.001338
  6 C s       :     3.185904  s :     3.185904
      pz      :     0.825577  p :     2.467956
      px      :     0.819823
      py      :     0.822555
      dz2     :     0.035115  d :     0.176100
      dxz     :     0.020299
      dyz     :     0.045529
      dx2y2   :     0.022972
      dxy     :     0.052185
      f0      :     0.002073  f :     0.014358
      f+1     :     0.001322
      f-1     :     0.002286
      f+2     :     0.002420
      f-2     :     0.002240
      f+3     :     0.002303
      f-3     :     0.001714
  7 C s       :     3.271914  s :     3.271914
      pz      :     0.970388  p :     2.924549
      px      :     0.995118
      py      :     0.959043
      dz2     :     0.017717  d :     0.069168
      dxz     :     0.010908
      dyz     :     0.010887
      dx2y2   :     0.020504
      dxy     :     0.009152
      f0      :     0.000622  f :     0.004648
      f+1     :     0.000989
      f-1     :     0.000491
      f+2     :     0.000435
      f-2     :     0.000793
      f+3     :     0.000320
      f-3     :     0.000998
  8 N s       :     3.340125  s :     3.340125
      pz      :     1.261762  p :     3.718477
      px      :     1.360238
      py      :     1.096476
      dz2     :     0.013326  d :     0.059448
      dxz     :     0.011089
      dyz     :     0.011942
      dx2y2   :     0.013133
      dxy     :     0.009958
      f0      :     0.000565  f :     0.004936
      f+1     :     0.001072
      f-1     :     0.000524
      f+2     :     0.000956
      f-2     :     0.001003
      f+3     :     0.000379
      f-3     :     0.000437
  9 C s       :     3.153996  s :     3.153996
      pz      :     0.780721  p :     2.352000
      px      :     0.739891
      py      :     0.831388
      dz2     :     0.057421  d :     0.261609
      dxz     :     0.032030
      dyz     :     0.054869
      dx2y2   :     0.062947
      dxy     :     0.054342
      f0      :     0.002270  f :     0.017601
      f+1     :     0.002422
      f-1     :     0.002198
      f+2     :     0.003394
      f-2     :     0.001906
      f+3     :     0.002737
      f-3     :     0.002676
 10 S s       :     5.856384  s :     5.856384
      pz      :     3.385825  p :    10.488997
      px      :     3.570654
      py      :     3.532519
      dz2     :     0.013995  d :     0.084741
      dxz     :     0.014012
      dyz     :     0.030810
      dx2y2   :     0.005609
      dxy     :     0.020315
      f0      :     0.001060  f :     0.010126
      f+1     :     0.000816
      f-1     :     0.002213
      f+2     :     0.001226
      f-2     :     0.003089
      f+3     :     0.001029
      f-3     :     0.000694
 11 N s       :     3.378323  s :     3.378323
      pz      :     1.362000  p :     3.766218
      px      :     1.380518
      py      :     1.023700
      dz2     :     0.006997  d :     0.058136
      dxz     :     0.008683
      dyz     :     0.014924
      dx2y2   :     0.012282
      dxy     :     0.015250
      f0      :     0.000442  f :     0.004460
      f+1     :     0.000524
      f-1     :     0.000575
      f+2     :     0.000689
      f-2     :     0.000703
      f+3     :     0.000775
      f-3     :     0.000752
 12 C s       :     3.131851  s :     3.131851
      pz      :     0.841514  p :     2.612486
      px      :     0.916409
      py      :     0.854563
      dz2     :     0.032574  d :     0.182268
      dxz     :     0.033581
      dyz     :     0.041776
      dx2y2   :     0.024379
      dxy     :     0.049958
      f0      :     0.001127  f :     0.011242
      f+1     :     0.001331
      f-1     :     0.001785
      f+2     :     0.001824
      f-2     :     0.002863
      f+3     :     0.001124
      f-3     :     0.001190
 13 C s       :     3.107410  s :     3.107410
      pz      :     0.883434  p :     2.708255
      px      :     0.915356
      py      :     0.909466
      dz2     :     0.016384  d :     0.108722
      dxz     :     0.015780
      dyz     :     0.026511
      dx2y2   :     0.022454
      dxy     :     0.027593
      f0      :     0.000988  f :     0.011416
      f+1     :     0.001508
      f-1     :     0.001262
[...]
      f-1     :     0.004686
      f+2     :     0.007645
      f-2     :     0.005136
      f+3     :     0.006735
      f-3     :     0.008753
 15 C s       :     2.705597  s :     2.705597
      pz      :     0.887783  p :     2.795680
      px      :     0.952106
      py      :     0.955791
      dz2     :     0.081678  d :     0.417899
      dxz     :     0.077189
      dyz     :     0.052828
      dx2y2   :     0.109049
      dxy     :     0.097155
      f0      :     0.003488  f :     0.041128
      f+1     :     0.005127
      f-1     :     0.005000
      f+2     :     0.007425
      f-2     :     0.005646
      f+3     :     0.007919
      f-3     :     0.006524
 16 C s       :     2.701425  s :     2.701425
      pz      :     0.932484  p :     2.870661
      px      :     0.969870
      py      :     0.968307
      dz2     :     0.037713  d :     0.390224
      dxz     :     0.065428
      dyz     :     0.075798
      dx2y2   :     0.098676
      dxy     :     0.112610
      f0      :     0.003547  f :     0.040304
      f+1     :     0.004703
      f-1     :     0.003984
      f+2     :     0.006018
      f-2     :     0.004788
      f+3     :     0.008938
      f-3     :     0.008325
 17 C s       :     2.701324  s :     2.701324
      pz      :     0.856886  p :     2.679426
      px      :     0.821347
      py      :     1.001193
      dz2     :     0.115687  d :     0.709080
      dxz     :     0.118759
      dyz     :     0.121353
      dx2y2   :     0.175663
      dxy     :     0.177619
      f0      :     0.007913  f :     0.099307
      f+1     :     0.015978
      f-1     :     0.008334
      f+2     :     0.015913
      f-2     :     0.012859
      f+3     :     0.018698
      f-3     :     0.019612
 18 O s       :     3.177081  s :     3.177081
      pz      :     1.460012  p :     4.346193
      px      :     1.375512
      py      :     1.510668
      dz2     :     0.007134  d :     0.075443
      dxz     :     0.017047
      dyz     :     0.015688
      dx2y2   :     0.017364
      dxy     :     0.018209
      f0      :     0.000543  f :     0.005061
      f+1     :     0.000727
      f-1     :     0.000387
      f+2     :     0.000590
      f-2     :     0.000888
      f+3     :     0.000860
      f-3     :     0.001066
 19 C s       :     2.694594  s :     2.694594
      pz      :     0.925142  p :     2.844883
      px      :     0.961296
      py      :     0.958445
      dz2     :     0.066128  d :     0.387190
      dxz     :     0.072906
      dyz     :     0.054251
      dx2y2   :     0.096222
      dxy     :     0.097683
      f0      :     0.003452  f :     0.040772
      f+1     :     0.005174
      f-1     :     0.004661
      f+2     :     0.007409
      f-2     :     0.006179
      f+3     :     0.007641
      f-3     :     0.006256
 20 H s       :     0.843535  s :     0.843535
      pz      :     0.069699  p :     0.155138
      px      :     0.043984
      py      :     0.041454
      dz2     :     0.009225  d :     0.027748
      dxz     :     0.007620
      dyz     :     0.007279
      dx2y2   :     0.001448
      dxy     :     0.002176
 21 H s       :     0.847828  s :     0.847828
      pz      :     0.041546  p :     0.151818
      px      :     0.053877
      py      :     0.056396
      dz2     :     0.003347  d :     0.027470
      dxz     :     0.004658
      dyz     :     0.004303
      dx2y2   :     0.008517
      dxy     :     0.006646
 22 H s       :     0.846962  s :     0.846962
      pz      :     0.039952  p :     0.152214
      px      :     0.047900
      py      :     0.064362
      dz2     :     0.002326  d :     0.027562
      dxz     :     0.002892
      dyz     :     0.006566
      dx2y2   :     0.007983
      dxy     :     0.007795
 23 H s       :     0.854717  s :     0.854717
      pz      :     0.040395  p :     0.144185
      px      :     0.040714
      py      :     0.063076
      dz2     :     0.002550  d :     0.026900
      dxz     :     0.002949
      dyz     :     0.007035
      dx2y2   :     0.006917
      dxy     :     0.007449
 24 H s       :     0.852579  s :     0.852579
      pz      :     0.074142  p :     0.148838
      px      :     0.040964
      py      :     0.033732
      dz2     :     0.010224  d :     0.027032
      dxz     :     0.008114
      dyz     :     0.005509
      dx2y2   :     0.001100
      dxy     :     0.002086
 25 H s       :     0.826055  s :     0.826055
      pz      :     0.038871  p :     0.151099
      px      :     0.070385
      py      :     0.041843
      dz2     :     0.002339  d :     0.027749
      dxz     :     0.008536
      dyz     :     0.000846
      dx2y2   :     0.008317
      dxy     :     0.007712
 26 H s       :     0.824828  s :     0.824828
      pz      :     0.070403  p :     0.151048
      px      :     0.042549
      py      :     0.038096
      dz2     :     0.009356  d :     0.027761
      dxz     :     0.008047
      dyz     :     0.007798
      dx2y2   :     0.001646
      dxy     :     0.000913
 27 H s       :     0.845284  s :     0.845284
      pz      :     0.039346  p :     0.150361
      px      :     0.039771
      py      :     0.071243
      dz2     :     0.003101  d :     0.027705
      dxz     :     0.000422
      dyz     :     0.008434
      dx2y2   :     0.006699
      dxy     :     0.009049
 28 H s       :     0.741979  s :     0.741979
      pz      :     0.061211  p :     0.253672
      px      :     0.072056
      py      :     0.120405
      dz2     :     0.005500  d :     0.061826
      dxz     :     0.001199
      dyz     :     0.018470
      dx2y2   :     0.016656
      dxy     :     0.020001
 29 H s       :     0.749263  s :     0.749263
      pz      :     0.106452  p :     0.254279
      px      :     0.100717
      py      :     0.047110
      dz2     :     0.018602  d :     0.061428
      dxz     :     0.014090
      dyz     :     0.009795
      dx2y2   :     0.010732
      dxy     :     0.008210
 30 H s       :     0.832652  s :     0.832652
      pz      :     0.045408  p :     0.148614
      px      :     0.055509
      py      :     0.047697
      dz2     :     0.004200  d :     0.028455
      dxz     :     0.006521
      dyz     :     0.004750
      dx2y2   :     0.005927
      dxy     :     0.007057
 31 H s       :     0.845012  s :     0.845012
      pz      :     0.049551  p :     0.157550
      px      :     0.069528
      py      :     0.038471
      dz2     :     0.004233  d :     0.027534
      dxz     :     0.007053
      dyz     :     0.002446
      dx2y2   :     0.006820
      dxy     :     0.006982
 32 H s       :     0.843088  s :     0.843088
      pz      :     0.039020  p :     0.151345
      px      :     0.039825
      py      :     0.072500
      dz2     :     0.002881  d :     0.026449
      dxz     :     0.001222
      dyz     :     0.006946
      dx2y2   :     0.007578
      dxy     :     0.007822
 33 H s       :     0.848435  s :     0.848435
      pz      :     0.059353  p :     0.159217
      px      :     0.048434
      py      :     0.051430
      dz2     :     0.006188  d :     0.027769
      dxz     :     0.005060
      dyz     :     0.005793
      dx2y2   :     0.005606
      dxy     :     0.005122
 34 H s       :     0.706228  s :     0.706228
      pz      :     0.121042  p :     0.347643
      px      :     0.082789
      py      :     0.143813
      dz2     :     0.025028  d :     0.099552
      dxz     :     0.012669
      dyz     :     0.023736
      dx2y2   :     0.019701
      dxy     :     0.018417
 35 H s       :     0.838695  s :     0.838695
      pz      :     0.042140  p :     0.157944
      px      :     0.041250
      py      :     0.074555
      dz2     :     0.003001  d :     0.028099
      dxz     :     0.001327
      dyz     :     0.007649
      dx2y2   :     0.008045
      dxy     :     0.008076


                      *****************************
                      * MAYER POPULATION ANALYSIS *
                      *****************************

  NA   - Mulliken gross atomic population
  ZA   - Total nuclear charge
  QA   - Mulliken gross atomic charge
  VA   - Mayer's total valence
  BVA  - Mayer's bonded valence
  FA   - Mayer's free valence

  ATOM       NA         ZA         QA         VA         BVA        FA
  0 C      6.3098     6.0000    -0.3098     3.8737     3.8737     0.0000
  1 C      5.9759     6.0000     0.0241     3.8443     3.8443    -0.0000
  2 O      8.3646     8.0000    -0.3646     2.0513     2.0513    -0.0000
  3 C      5.5429     6.0000     0.4571     4.2320     4.2320    -0.0000
  4 O      8.4304     8.0000    -0.4304     2.0810     2.0810     0.0000
  5 C      6.2326     6.0000    -0.2326     3.6492     3.6492    -0.0000
  6 C      5.8443     6.0000     0.1557     3.8789     3.8789    -0.0000
  7 C      6.2703     6.0000    -0.2703     3.9031     3.9031     0.0000
  8 N      7.1230     7.0000    -0.1230     3.3100     3.3100    -0.0000
  9 C      5.7852     6.0000     0.2148     4.1492     4.1492    -0.0000
 10 S     16.4402    16.0000    -0.4402     1.7540     1.7540    -0.0000
 11 N      7.2071     7.0000    -0.2071     3.2459     3.2459    -0.0000
 12 C      5.9378     6.0000     0.0622     3.9352     3.9352     0.0000
 13 C      5.9358     6.0000     0.0642     3.7065     3.7065     0.0000
 14 C      6.1900     6.0000    -0.1900     3.8480     3.8480     0.0000
 15 C      6.1339     6.0000    -0.1339     3.7959     3.7959    -0.0000
 16 C      6.2803     6.0000    -0.2803     3.7908     3.7908    -0.0000
 17 C      5.6878     6.0000     0.3122     3.8790     3.8790    -0.0000
 18 O      8.3578     8.0000    -0.3578     2.1191     2.1191    -0.0000
 19 C      6.2523     6.0000    -0.2523     3.8440     3.8440    -0.0000
 20 H      0.8936     1.0000     0.1064     0.9760     0.9760     0.0000
 21 H      0.8927     1.0000     0.1073     0.9836     0.9836     0.0000
 22 H      0.8926     1.0000     0.1074     0.9853     0.9853    -0.0000
 23 H      0.8901     1.0000     0.1099     0.9773     0.9773    -0.0000
 24 H      0.8799     1.0000     0.1201     0.9867     0.9867    -0.0000
 25 H      0.8686     1.0000     0.1314     0.9802     0.9802    -0.0000
 26 H      0.8681     1.0000     0.1319     0.9809     0.9809     0.0000
 27 H      0.9048     1.0000     0.0952     0.9858     0.9858    -0.0000
 28 H      0.8023     1.0000     0.1977     1.0226     1.0226    -0.0000
 29 H      0.8051     1.0000     0.1949     1.0190     1.0190    -0.0000
 30 H      0.8500     1.0000     0.1500     0.9933     0.9933    -0.0000
 31 H      0.8508     1.0000     0.1492     0.9851     0.9851     0.0000
 32 H      0.8387     1.0000     0.1613     0.9774     0.9774    -0.0000
 33 H      0.8687     1.0000     0.1313     0.9918     0.9918     0.0000
 34 H      0.7587     1.0000     0.2413     1.0104     1.0104    -0.0000
 35 H      0.8333     1.0000     0.1667     0.9861     0.9861    -0.0000

  Mayer bond orders larger than 0.100000
B(  0-C ,  1-C ) :   0.9607 B(  0-C , 20-H ) :   0.9716 B(  0-C , 21-H ) :   0.9781 
B(  0-C , 22-H ) :   0.9752 B(  1-C ,  2-O ) :   0.8874 B(  1-C , 23-H ) :   0.9847 
B(  1-C , 24-H ) :   0.9797 B(  2-O ,  3-C ) :   1.1526 B(  3-C ,  4-O ) :   1.9771 
B(  3-C ,  5-C ) :   1.0600 B(  5-C ,  6-C ) :   1.6529 B(  5-C , 12-C ) :   0.9735 
B(  6-C ,  7-C ) :   0.9670 B(  6-C ,  8-N ) :   1.1635 B(  7-C , 25-H ) :   0.9605 
B(  7-C , 26-H ) :   0.9598 B(  7-C , 27-H ) :   0.9903 B(  8-N ,  9-C ) :   1.1827 
B(  8-N , 28-H ) :   0.9477 B(  9-C , 10-S ) :   1.6051 B(  9-C , 11-N ) :   1.3075 
B( 11-N , 12-C ) :   0.9755 B( 11-N , 29-H ) :   0.9521 B( 12-C , 13-C ) :   0.9389 
B( 12-C , 30-H ) :   1.0024 B( 13-C , 14-C ) :   1.3528 B( 13-C , 19-C ) :   1.3792 
B( 14-C , 15-C ) :   1.3907 B( 14-C , 31-H ) :   0.9730 B( 15-C , 16-C ) :   1.3593 
B( 15-C , 32-H ) :   0.9717 B( 16-C , 17-C ) :   1.3316 B( 16-C , 33-H ) :   0.9852 
B( 17-C , 18-O ) :   1.1115 B( 17-C , 19-C ) :   1.3709 B( 18-O , 34-H ) :   0.9795 
B( 19-C , 35-H ) :   0.9575 

-------
TIMINGS
-------

Total SCF time: 0 days 1 hours 45 min 8 sec 

Total time                  ....    6308.922 sec
Sum of individual times     ....    6301.657 sec  ( 99.9%)

Fock matrix formation       ....    6267.617 sec  ( 99.3%)
Diagonalization             ....       1.548 sec  (  0.0%)
Density matrix formation    ....       0.265 sec  (  0.0%)
Population analysis         ....       0.428 sec  (  0.0%)
Initial guess               ....       5.204 sec  (  0.1%)
Orbital Transformation      ....       0.000 sec  (  0.0%)
Orbital Orthonormalization  ....       0.000 sec  (  0.0%)
DIIS solution               ....      22.596 sec  (  0.4%)
SOSCF solution              ....       2.682 sec  (  0.0%)

------------------------------------------------------------------------------
                                ORCA  MP2 
------------------------------------------------------------------------------

Freezing NCore=48 chemical core electrons

-------------
RI-MP2 ENERGY
-------------
Dimension of the basis                    ...  828
Memory devoted to MP2                     ...  256 MB   
Data format for buffers                   ... DOUBLE
Compression type for matrix containers    ... UNCOMPRESSED
Overall scaling of the MP2 energy         ...   1.000e+00
Calculating two index integrals           ... done (    0.042 sec)
Cholesky decomposition of V**-1           ... done (    0.350 sec)

-----------------
RI-TRANSFORMATION (AUX index driven)
-----------------

Dimension of the orbital-basis         ... 828
Dimension of the aux-basis             ... 2141
Transformation of internal/external MOs...   24-  76 to   77- 827
Number Format for Storage              ... Double (8 Byte)
Integral mode                          ... Direct

First Phase: integral generation and transformation of MO indices
  Aux angular momentum 0               ... done (    5.663 sec)
  Aux angular momentum 1               ... done (    8.792 sec)
  Aux angular momentum 2               ... done (   11.629 sec)
  Aux angular momentum 3               ... done (    9.452 sec)
  Aux angular momentum 4               ... done (    3.224 sec)
Closing buffer VIA ( 0.63 GB; CompressionRatio= 1.00)
  Phase 1 completed in    38.922 sec
Second Phase: sorting and transformation of aux index

IA-Transformation
Memory available                       ... 167 MB 
Max. # MO pairs treated in a batch     ... 12    
# of internal orbitals                 ... 53
# batches for internal orbitals        ... 5
Closing buffer IAV ( 0.63 GB; CompressionRatio= 1.00)
(ia|v) transformation done in    25.148 sec

  Phase 2 completed in    25.152 sec
RI-Integral transformation completed in    64.090 sec
Opening buffers                              ... done

Starting loop over batches of integrals:

Operator 0  - window                       ... ( 24- 76)x( 77-827)
Operator 0  - Memory available             ...   256 MB
Operator 0  - Memory needed per MO         ...  12.3 MB
Operator 0  - Number of orbitals per batch ... 13
Operator 0  - Number of batches            ... 5

OPERATOR  0   PASS   0:  MOs    24 ...   36
  Reading integrals       ... ok
  Internal MO  26
  Internal MO  29
  Internal MO  32
  Internal MO  35
OPERATOR  0   PASS   1:  MOs    37 ...   49
  Reading integrals       ... ok
  Internal MO  38
  Internal MO  41
  Internal MO  44
  Internal MO  47
OPERATOR  0   PASS   2:  MOs    50 ...   62
  Reading integrals       ... ok
  Internal MO  50
  Internal MO  53
  Internal MO  56
  Internal MO  59
  Internal MO  62
OPERATOR  0   PASS   3:  MOs    63 ...   75
  Reading integrals       ... ok
  Internal MO  65
  Internal MO  68
  Internal MO  71
  Internal MO  74
OPERATOR  0   PASS   4:  MOs    76 ...   76
  Reading integrals       ... ok
Time spent in pair loops =    94.281 sec
Deleting buffer (Ka|jb)[aa] ...done

-----------------------------------------------
 RI-MP2 CORRELATION ENERGY:     -3.534470873 Eh
-----------------------------------------------


-------
TIMINGS
-------

Total time                :  158.931 sec
Integral trafo            :   64.106 sec ( 40.3%)
I/O of integrals          :    3.245 sec (  2.0%)
K(i,j) Operators          :   58.300 sec ( 36.7%)
T(i,j) pair energies      :    9.174 sec (  5.8%)
V-calculation             :    0.042 sec (  0.0%)
V**(-1/2)                 :    0.350 sec (  0.2%)
Gamma(ia|P)               :    0.000 sec (  0.0%)
Gamma-Trafo               :    0.000 sec (  0.0%)
D(virtual)                :    0.000 sec (  0.0%)
D(internal)               :    0.000 sec (  0.0%)
W(virtual)                :    0.000 sec (  0.0%)
W(internal)               :    0.000 sec (  0.0%)
L(virtual)                :    0.000 sec (  0.0%)
L(internal)               :    0.000 sec (  0.0%)
G(D)                      :    0.000 sec (  0.0%)
G(Z)                      :    0.000 sec (  0.0%)
Z-Vector Solution         :    0.000 sec (  0.0%)
3-Index Derivative        :    0.000 sec (  0.0%)
2-Index Derivative        :    0.000 sec (  0.0%)
Separable Gradient        :    0.000 sec (  0.0%)


---------------------------------------
MP2 TOTAL ENERGY:    -1274.349411980 Eh
---------------------------------------

-------------------------   --------------------
FINAL SINGLE POINT ENERGY     -1274.349411979768
-------------------------   --------------------


                            ***************************************
                            *     ORCA property calculations      *
                            ***************************************


  WARNING: The energy has been calculated at the MP2 level but the densities
           used in the property calculations are still SCF densities
           MP2 response densities have not been calculated 
           use %mp2 Density relaxed end
           or  %mp2 Density unrelaxed end

                                    ---------------------
                                    Active property flags
                                    ---------------------
   (+) Dipole Moment


------------------------------------------------------------------------------
                       ORCA ELECTRIC PROPERTIES CALCULATION
------------------------------------------------------------------------------

Dipole Moment Calculation                       ... on
Quadrupole Moment Calculation                   ... off
Polarizability Calculation                      ... off
GBWName                                         ... CONFS/Conf276.orca.gbw
Electron density file                           ... CONFS/Conf276.orca.scfp
The origin for moment calculation is the CENTER OF MASS  = (32.784602, 31.545714 35.224724)

-------------
DIPOLE MOMENT
-------------
                                X             Y             Z
Electronic contribution:      8.94778      10.47564       6.10058
Nuclear contribution   :     -9.77991     -12.20906      -6.36989
                        -----------------------------------------
Total Dipole Moment    :     -0.83214      -1.73342      -0.26931
                        -----------------------------------------
Magnitude (a.u.)       :      1.94158
Magnitude (Debye)      :      4.93510



--------------------
Rotational spectrum 
--------------------
 
Rotational constants in cm-1:     0.012481     0.008871     0.006439 
Rotational constants in MHz :   374.185384   265.959721   193.023234 

 Dipole components along the rotational axes: 
x,y,z [a.u.] :    -1.937759     0.109922    -0.052343 
x,y,z [Debye]:    -4.925392     0.279399    -0.133046 

 

Timings for individual modules:

Sum of individual times         ...     6470.028 sec (= 107.834 min)
GTO integral calculation        ...        1.502 sec (=   0.025 min)   0.0 %
SCF iterations                  ...     6308.970 sec (= 105.150 min)  97.5 %
MP2 module                      ...      159.556 sec (=   2.659 min)   2.5 %
                             ****ORCA TERMINATED NORMALLY****
TOTAL RUN TIME: 0 days 1 hours 47 minutes 51 seconds 35 msec
