
                                        *****************
                                        * O   R   C   A *
                                        *****************

                                            #,                                       
                                            ###                                      
                                            ####                                     
                                            #####                                    
                                            ######                                   
                                           ########,                                 
                                     ,,################,,,,,                         
                               ,,#################################,,                 
                          ,,##########################################,,             
                       ,#########################################, ''#####,          
                    ,#############################################,,   '####,        
                  ,##################################################,,,,####,       
                ,###########''''           ''''###############################       
              ,#####''   ,,,,##########,,,,          '''####'''          '####       
            ,##' ,,,,###########################,,,                        '##       
           ' ,,###''''                  '''############,,,                           
         ,,##''                                '''############,,,,        ,,,,,,###''
      ,#''                                            '''#######################'''  
     '                                                          ''''####''''         
             ,#######,   #######,   ,#######,      ##                                
            ,#'     '#,  ##    ##  ,#'     '#,    #''#        ######   ,####,        
            ##       ##  ##   ,#'  ##            #'  '#       #        #'  '#        
            ##       ##  #######   ##           ,######,      #####,   #    #        
            '#,     ,#'  ##    ##  '#,     ,#' ,#      #,         ##   #,  ,#        
             '#######'   ##     ##  '#######'  #'      '#     #####' # '####'        



                  #######################################################
                  #                        -***-                        #
                  #          Department of theory and spectroscopy      #
                  #    Directorship and core code : Frank Neese         #
                  #        Max Planck Institute fuer Kohlenforschung    #
                  #                Kaiser Wilhelm Platz 1               #
                  #                 D-45470 Muelheim/Ruhr               #
                  #                      Germany                        #
                  #                                                     #
                  #                  All rights reserved                #
                  #                        -***-                        #
                  #######################################################


                         Program Version 5.0.0 -  RELEASE  -
                                (SVN: $Rev: 19529$)
                ($Date: 2021-06-28 11:36:33 +0200 (Mo, 28 Jun 2021) $)


 With contributions from (in alphabetic order):
   Daniel Aravena         : Magnetic Suceptibility
   Michael Atanasov       : Ab Initio Ligand Field Theory (pilot matlab implementation)
   Alexander A. Auer      : GIAO ZORA, VPT2 properties, NMR spectrum
   Ute Becker             : Parallelization
   Giovanni Bistoni       : ED, misc. LED, open-shell LED, HFLD
   Martin Brehm           : Molecular dynamics
   Dmytro Bykov           : SCF Hessian
   Vijay G. Chilkuri      : MRCI spin determinant printing, contributions to CSF-ICE
   Dipayan Datta          : RHF DLPNO-CCSD density
   Achintya Kumar Dutta   : EOM-CC, STEOM-CC
   Dmitry Ganyushin       : Spin-Orbit,Spin-Spin,Magnetic field MRCI
   Miquel Garcia          : C-PCM Hessian, Gaussian charge scheme
   Yang Guo               : DLPNO-NEVPT2, F12-NEVPT2, CIM, IAO-localization
   Andreas Hansen         : Spin unrestricted coupled pair/coupled cluster methods
   Benjamin Helmich-Paris : MC-RPA, TRAH-SCF, COSX integrals
   Lee Huntington         : MR-EOM, pCC
   Robert Izsak           : Overlap fitted RIJCOSX, COSX-SCS-MP3, EOM
   Marcus Kettner         : VPT2
   Christian Kollmar      : KDIIS, OOCD, Brueckner-CCSD(T), CCSD density, CASPT2, CASPT2-K
   Simone Kossmann        : Meta GGA functionals, TD-DFT gradient, OOMP2, MP2 Hessian
   Martin Krupicka        : Initial AUTO-CI
   Lucas Lang             : DCDCAS
   Marvin Lechner         : AUTO-CI (C++ implementation), FIC-MRCC
   Dagmar Lenk            : GEPOL surface, SMD
   Dimitrios Liakos       : Extrapolation schemes; Compound Job, initial MDCI parallelization
   Dimitrios Manganas     : Further ROCIS development; embedding schemes
   Dimitrios Pantazis     : SARC Basis sets
   Anastasios Papadopoulos: AUTO-CI, single reference methods and gradients
   Taras Petrenko         : DFT Hessian,TD-DFT gradient, ASA, ECA, R-Raman, ABS, FL, XAS/XES, NRVS
   Peter Pinski           : DLPNO-MP2, DLPNO-MP2 Gradient
   Christoph Reimann      : Effective Core Potentials
   Marius Retegan         : Local ZFS, SOC
   Christoph Riplinger    : Optimizer, TS searches, QM/MM, DLPNO-CCSD(T), (RO)-DLPNO pert. Triples
   Tobias Risthaus        : Range-separated hybrids, TD-DFT gradient, RPA, STAB
   Michael Roemelt        : Original ROCIS implementation
   Masaaki Saitow         : Open-shell DLPNO-CCSD energy and density
   Barbara Sandhoefer     : DKH picture change effects
   Avijit Sen             : IP-ROCIS
   Kantharuban Sivalingam : CASSCF convergence, NEVPT2, FIC-MRCI
   Bernardo de Souza      : ESD, SOC TD-DFT
   Georgi Stoychev        : AutoAux, RI-MP2 NMR
   Willem Van den Heuvel  : Paramagnetic NMR
   Boris Wezisla          : Elementary symmetry handling
   Frank Wennmohs         : Technical directorship


 We gratefully acknowledge several colleagues who have allowed us to
 interface, adapt or use parts of their codes:
   Stefan Grimme, W. Hujo, H. Kruse, P. Pracht,  : VdW corrections, initial TS optimization,
                  C. Bannwarth, S. Ehlert          DFT functionals, gCP, sTDA/sTD-DF
   Ed Valeev, F. Pavosevic, A. Kumar             : LibInt (2-el integral package), F12 methods
   Garnet Chan, S. Sharma, J. Yang, R. Olivares  : DMRG
   Ulf Ekstrom                                   : XCFun DFT Library
   Mihaly Kallay                                 : mrcc  (arbitrary order and MRCC methods)
   Jiri Pittner, Ondrej Demel                    : Mk-CCSD
   Frank Weinhold                                : gennbo (NPA and NBO analysis)
   Christopher J. Cramer and Donald G. Truhlar   : smd solvation model
   Lars Goerigk                                  : TD-DFT with DH, B97 family of functionals
   V. Asgeirsson, H. Jonsson                     : NEB implementation
   FAccTs GmbH                                   : IRC, NEB, NEB-TS, DLPNO-Multilevel, CI-OPT
                                                   MM, QMMM, 2- and 3-layer-ONIOM, Crystal-QMMM,
                                                   LR-CPCM, SF, NACMEs, symmetry and pop. for TD-DFT,
                                                   nearIR, NL-DFT gradient (VV10), updates on ESD,
                                                   ML-optimized integration grids
   S Lehtola, MJT Oliveira, MAL Marques          : LibXC Library
   Liviu Ungur et al                             : ANISO software


 Your calculation uses the libint2 library for the computation of 2-el integrals
 For citations please refer to: http://libint.valeyev.net

 Your ORCA version has been built with support for libXC version: 5.1.0
 For citations please refer to: https://tddft.org/programs/libxc/

 This ORCA versions uses:
   CBLAS   interface :  Fast vector & matrix operations
   LAPACKE interface :  Fast linear algebra routines
   SCALAPACK package :  Parallel linear algebra routines
   Shared memory     :  Shared parallel matrices
   BLAS/LAPACK       :  OpenBLAS 0.3.15  USE64BITINT DYNAMIC_ARCH NO_AFFINITY Zen SINGLE_THREADED
        Core in use  :  Zen
   Copyright (c) 2011-2014, The OpenBLAS Project


================================================================================

----- Orbital basis set information -----
Your calculation utilizes the basis: cc-pVTZ 
       H, B-Ne : Obtained from the ccRepo (grant-hill.group.shef.ac.uk/ccrepo) Feb. 2017
                 T. H. Dunning, Jr., J. Chem. Phys. 90, 1007 (1989)
            He : Obtained from the ccRepo (grant-hill.group.shef.ac.uk/ccrepo) Feb. 2017
                 D. E. Woon, T. H. Dunning, Jr., J. Chem. Phys. 100, 2975 (1994)
  Li-Be, Na-Mg : Obtained from the ccRepo (grant-hill.group.shef.ac.uk/ccrepo) Feb. 2017
                 B. P. Prascher, D. E. Woon, K. A. Peterson, T. H. Dunning, Jr., A. K. Wilson, Theor. Chem. Acc. 128, 69 (2011)
         Al-Ar : Obtained from the ccRepo (grant-hill.group.shef.ac.uk/ccrepo) Feb. 2017
                 D. E. Woon, T. H. Dunning, Jr., J. Chem. Phys. 98, 1358 (1993)
            Ca : Obtained from the Peterson Research Group Website (tyr0.chem.wsu.edu/~kipeters) Feb. 2017
                 J. Koput, K. A. Peterson, J. Phys. Chem. 106, 9595 (2002)
         Sc-Zn : Obtained from the ccRepo (grant-hill.group.shef.ac.uk/ccrepo) Feb. 2017
                 N. B. Balabanov, K. A. Peterson, J. Chem. Phys. 123, 064107 (2005)
                 N. B. Balabanov, K. A. Peterson, J. Chem. Phys. 125, 074110 (2006)
         Ga-Kr : Obtained from the ccRepo (grant-hill.group.shef.ac.uk/ccrepo) Feb. 2017
                 A. K. Wilson, D. E. Woon, K. A. Peterson, T. H. Dunning, Jr., J. Chem. Phys. 110, 7667 (1999)
             Y : Obtained from the ccRepo (grant-hill.group.shef.ac.uk/ccrepo) Feb. 2017
                 K. A. Peterson, D. Figgen, M. Dolg, H. Stoll, J. Chem. Phys. 126, 124101 (2007)
        Ag, Au : Obtained from the Peterson Research Group Website (tyr0.chem.wsu.edu/~kipeters) Feb. 2017
                 K. A. Peterson, C. Puzzarini, Theor. Chem. Acc. 114, 283 (2005)

----- AuxC basis set information -----
Your calculation utilizes the auxiliary basis: cc-pVTZ/C 
  Obtained from the EMSL Basis Set Exchange (bse.pnl.gov) Feb. 2017
  H-He, B-F, Al-Ar, Ga-Kr : F. Weigend, A. Kohn, C. Hattig, J. Chem. Phys. 116, 3175 (2002)
             Li-Be, Na-Mg : C. Haettig, Phys. Chem. Chem. Phys. 7, 59 (2005)
                       Ne : C. Haettig, Phys. Chem. Chem. Phys. 7, 59 (2005)
                            F. Weigend, A. Kohn, C. Hattig, J. Chem. Phys. 116, 3175 (2002)
                    Sc-Zn : J. G. Hill, J. A. Platts, J. Chem. Phys. 128, 044104 (2008)

================================================================================
                                        WARNINGS
                       Please study these warnings very carefully!
================================================================================


WARNING: No MP2 level density has been requested!
         To caclulate MP2 level properties use
         %mp2 Density relaxed end
         or
         %mp2 Density unrelaxed end

WARNING: Post HF methods need fully converged wavefunctions
  ===> : Setting SCFConvForced true
         You can overwrite this default with %scf ConvForced false 


INFO   : the flag for use of the SHARK integral package has been found!

================================================================================
                                       INPUT FILE
================================================================================
NAME = CONFS/Conf502.orca
|  1> ! ri-mp2 cc-pvtz cc-pvtz/c TightSCF NoKeepInts
|  2> 
|  3> %scf
|  4>   MaxCore 4096
|  5> end
|  6> *xyz  0  1
|  7>     C       15.3959838   14.1724501   16.9671123
|  8>     C       15.4603834   15.0660466   15.7056819
|  9>     O       16.5548824   16.0153001   15.7093696
| 10>     C       17.6580325   15.8872590   16.5042780
| 11>     O       18.2724775   14.8380826   16.5997885
| 12>     C       17.8774091   17.0367735   17.4437438
| 13>     C       17.4058141   18.2963289   17.2544003
| 14>     C       16.6109937   18.8252967   16.0783600
| 15>     N       17.7084745   19.2974220   18.1831829
| 16>     C       18.5740042   19.1552263   19.2356110
| 17>     S       18.9638454   20.4253055   20.2206788
| 18>     N       19.0990899   17.9029806   19.4311175
| 19>     C       18.6900682   16.6915602   18.6956949
| 20>     C       17.9029445   15.7503849   19.6041340
| 21>     C       18.2889968   14.4043407   19.7418599
| 22>     C       17.5560965   13.5285665   20.5600823
| 23>     C       16.4257843   14.0016437   21.2478407
| 24>     C       16.0357074   15.3406505   21.1111265
| 25>     O       14.9390496   15.7982481   21.7660578
| 26>     C       16.7666305   16.2097440   20.2951665
| 27>     H       16.2163194   13.4445459   16.9896941
| 28>     H       14.4578039   13.6050176   16.9790951
| 29>     H       15.4347516   14.7752758   17.8831381
| 30>     H       15.5598479   14.4133616   14.8285295
| 31>     H       14.5155754   15.6144014   15.6002704
| 32>     H       15.5800527   18.4517860   16.1081767
| 33>     H       17.0590918   18.5057780   15.1290620
| 34>     H       16.5667607   19.9209915   16.0575005
| 35>     H       17.3339487   20.2241523   18.0569322
| 36>     H       19.7112072   17.8176135   20.2323744
| 37>     H       19.6045049   16.1742709   18.3706779
| 38>     H       19.1509011   14.0308187   19.1939978
| 39>     H       17.8620373   12.4879664   20.6521611
| 40>     H       15.8555534   13.3279404   21.8786784
| 41>     H       14.6049467   15.0723253   22.3141400
| 42>     H       16.4470291   17.2421441   20.2042847
| 43> *
| 44> 
| 45>                          ****END OF INPUT****
================================================================================

                       ****************************
                       * Single Point Calculation *
                       ****************************

---------------------------------
CARTESIAN COORDINATES (ANGSTROEM)
---------------------------------
  C     15.395984   14.172450   16.967112
  C     15.460383   15.066047   15.705682
  O     16.554882   16.015300   15.709370
  C     17.658033   15.887259   16.504278
  O     18.272477   14.838083   16.599788
  C     17.877409   17.036773   17.443744
  C     17.405814   18.296329   17.254400
  C     16.610994   18.825297   16.078360
  N     17.708474   19.297422   18.183183
  C     18.574004   19.155226   19.235611
  S     18.963845   20.425306   20.220679
  N     19.099090   17.902981   19.431117
  C     18.690068   16.691560   18.695695
  C     17.902945   15.750385   19.604134
  C     18.288997   14.404341   19.741860
  C     17.556096   13.528567   20.560082
  C     16.425784   14.001644   21.247841
  C     16.035707   15.340650   21.111127
  O     14.939050   15.798248   21.766058
  C     16.766631   16.209744   20.295166
  H     16.216319   13.444546   16.989694
  H     14.457804   13.605018   16.979095
  H     15.434752   14.775276   17.883138
  H     15.559848   14.413362   14.828529
  H     14.515575   15.614401   15.600270
  H     15.580053   18.451786   16.108177
  H     17.059092   18.505778   15.129062
  H     16.566761   19.920991   16.057500
  H     17.333949   20.224152   18.056932
  H     19.711207   17.817614   20.232374
  H     19.604505   16.174271   18.370678
  H     19.150901   14.030819   19.193998
  H     17.862037   12.487966   20.652161
  H     15.855553   13.327940   21.878678
  H     14.604947   15.072325   22.314140
  H     16.447029   17.242144   20.204285

----------------------------
CARTESIAN COORDINATES (A.U.)
----------------------------
  NO LB      ZA    FRAG     MASS         X           Y           Z
   0 C     6.0000    0    12.011   29.094193   26.782049   32.063196
   1 C     6.0000    0    12.011   29.215891   28.470702   29.679438
   2 O     8.0000    0    15.999   31.284194   30.264531   29.686406
   3 C     6.0000    0    12.011   33.368845   30.022569   31.188565
   4 O     8.0000    0    15.999   34.529978   28.039912   31.369054
   5 C     6.0000    0    12.011   33.783407   32.194836   32.963899
   6 C     6.0000    0    12.011   32.892222   34.575051   32.606091
   7 C     6.0000    0    12.011   31.390229   35.574655   30.383697
   8 N     7.0000    0    14.007   33.464167   36.466843   34.361236
   9 C     6.0000    0    12.011   35.099781   36.198132   36.350037
  10 S    16.0000    0    32.060   35.836474   38.598234   38.211545
  11 N     7.0000    0    14.007   36.092049   33.831730   36.719491
  12 C     6.0000    0    12.011   35.319110   31.542478   35.329743
  13 C     6.0000    0    12.011   33.831662   29.763914   37.046444
  14 C     6.0000    0    12.011   34.561195   27.220259   37.306709
  15 C     6.0000    0    12.011   33.176214   25.565286   38.852925
  16 C     6.0000    0    12.011   31.040234   26.459272   40.152600
  17 C     6.0000    0    12.011   30.303095   28.989628   39.894247
  18 O     8.0000    0    15.999   28.230712   29.854362   41.131888
  19 C     6.0000    0    12.011   31.684340   30.631977   38.352307
  20 H     1.0000    0     1.008   30.644403   25.406510   32.105869
  21 H     1.0000    0     1.008   27.321290   25.709757   32.085840
  22 H     1.0000    0     1.008   29.167453   27.921225   33.794233
  23 H     1.0000    0     1.008   29.403851   27.237306   28.021860
  24 H     1.0000    0     1.008   27.430462   29.506942   29.480239
  25 H     1.0000    0     1.008   29.442033   34.868822   30.440042
  26 H     1.0000    0     1.008   32.237012   34.970852   28.589784
  27 H     1.0000    0     1.008   31.306641   37.645218   30.344278
  28 H     1.0000    0     1.008   32.756416   38.218109   34.122657
  29 H     1.0000    0     1.008   37.248783   33.670410   38.233647
  30 H     1.0000    0     1.008   37.047145   30.564942   34.715550
  31 H     1.0000    0     1.008   36.189958   26.514405   36.271399
  32 H     1.0000    0     1.008   33.754359   23.598836   39.026929
  33 H     1.0000    0     1.008   29.962654   25.186157   41.344710
  34 H     1.0000    0     1.008   27.599349   28.482567   42.167614
  35 H     1.0000    0     1.008   31.080381   32.582930   38.180565

--------------------------------
INTERNAL COORDINATES (ANGSTROEM)
--------------------------------
 C      0   0   0     0.000000000000     0.00000000     0.00000000
 C      1   0   0     1.547213193887     0.00000000     0.00000000
 O      2   1   0     1.448800837726   114.06550827     0.00000000
 C      3   2   1     1.365728388374   123.38493895    19.32785849
 O      4   3   2     1.219604867140   122.22032897    47.61154087
 C      4   3   2     1.500701725096   114.24448914   239.36604621
 C      6   4   3     1.358209339788   124.91208034   336.09312373
 C      7   6   4     1.514799389001   127.89766281   358.23979674
 N      7   6   4     1.398723643419   119.73777698   181.85829692
 C      9   7   6     1.370024154659   124.92525624     6.95600791
 S     10   9   7     1.653915326154   121.78515945   175.25475745
 N     10   9   7     1.371880853812   116.48857391   355.15199165
 C     12  10   9     1.475020181963   124.92340148   352.94280570
 C     13  12  10     1.526642152844   110.64719872   251.11525560
 C     14  13  12     1.407067798729   120.43410538   233.30086985
 C     15  14  13     1.404852730711   120.67914966   181.00020352
 C     16  15  14     1.405140321605   119.65970074     0.00000000
 C     17  16  15     1.401352907315   119.85855496     0.14399394
 O     18  17  16     1.356830461608   120.00938151   179.51450898
 C     18  17  16     1.398342880504   120.35084710   359.90344687
 H      1   2   3     1.096952578144   111.64795526   289.31169785
 H      1   2   3     1.096496581990   110.08439638   170.33364923
 H      1   2   3     1.097271631440   111.21406159    50.94372399
 H      2   1   3     1.097855741348   108.16796757   121.26493778
 H      2   1   3     1.097481994330   109.33238478   237.87028281
 H      8   7   6     1.096922341870   110.67907332    73.46234987
 H      8   7   6     1.097292485929   110.83647651   313.72044417
 H      8   7   6     1.096785654436   112.63003597   193.99161653
 H      9   7   6     1.007490874924   119.64986891   181.92791197
 H     12  10   9     1.011922798695   114.92128979   181.91766179
 H     13  12  10     1.099735763031   107.64340479   132.91014739
 H     15  14  13     1.087451418436   119.78419564   359.71156216
 H     16  15  14     1.088543451882   119.90598806   179.58140474
 H     17  16  15     1.084894289545   119.89046983   179.84066929
 H     19  18  17     0.969011226615   107.39991661     3.72092718
 H     20  18  17     1.084552683337   119.11034566   180.02836157

---------------------------
INTERNAL COORDINATES (A.U.)
---------------------------
 C      0   0   0     0.000000000000     0.00000000     0.00000000
 C      1   0   0     2.923809207235     0.00000000     0.00000000
 O      2   1   0     2.737836805897   114.06550827     0.00000000
 C      3   2   1     2.580852627348   123.38493895    19.32785849
 O      4   3   2     2.304719190493   122.22032897    47.61154087
 C      4   3   2     2.835915269135   114.24448914   239.36604621
 C      6   4   3     2.566643684733   124.91208034   336.09312373
 C      7   6   4     2.862555993043   127.89766281   358.23979674
 N      7   6   4     2.643204623102   119.73777698   181.85829692
 C      9   7   6     2.588970449163   124.92525624     6.95600791
 S     10   9   7     3.125447015126   121.78515945   175.25475745
 N     10   9   7     2.592479102074   116.48857391   355.15199165
 C     12  10   9     2.787384185917   124.92340148   352.94280570
 C     13  12  10     2.884935573375   110.64719872   251.11525560
 C     14  13  12     2.658972791457   120.43410538   233.30086985
 C     15  14  13     2.654786919536   120.67914966   181.00020352
 C     16  15  14     2.655330387563   119.65970074     0.00000000
 C     17  16  15     2.648173211801   119.85855496     0.14399394
 O     18  17  16     2.564037982600   120.00938151   179.51450898
 C     18  17  16     2.642485085471   120.35084710   359.90344687
 H      1   2   3     2.072939954591   111.64795526   289.31169785
 H      1   2   3     2.072078246742   110.08439638   170.33364923
 H      1   2   3     2.073542877943   111.21406159    50.94372399
 H      2   1   3     2.074646685701   108.16796757   121.26493778
 H      2   1   3     2.073940406194   109.33238478   237.87028281
 H      8   7   6     2.072882816315   110.67907332    73.46234987
 H      8   7   6     2.073582287216   110.83647651   313.72044417
 H      8   7   6     2.072624514497   112.63003597   193.99161653
 H      9   7   6     1.903881836030   119.64986891   181.92791197
 H     12  10   9     1.912256958205   114.92128979   181.91766179
 H     13  12  10     2.078199411808   107.64340479   132.91014739
 H     15  14  13     2.054985364789   119.78419564   359.71156216
 H     16  15  14     2.057049008929   119.90598806   179.58140474
 H     17  16  15     2.050153091495   119.89046983   179.84066929
 H     19  18  17     1.831165838997   107.39991661     3.72092718
 H     20  18  17     2.049507549316   119.11034566   180.02836157

---------------------
BASIS SET INFORMATION
---------------------
There are 5 groups of distinct atoms

 Group   1 Type C   : 18s5p2d1f contracted to 4s3p2d1f pattern {8811/311/11/1}
 Group   2 Type O   : 18s5p2d1f contracted to 4s3p2d1f pattern {8811/311/11/1}
 Group   3 Type N   : 18s5p2d1f contracted to 4s3p2d1f pattern {8811/311/11/1}
 Group   4 Type S   : 41s16p2d1f contracted to 5s4p2d1f pattern {13131311/7711/11/1}
 Group   5 Type H   : 5s2p1d contracted to 3s2p1d pattern {311/11/1}

Atom   0C    basis set group =>   1
Atom   1C    basis set group =>   1
Atom   2O    basis set group =>   2
Atom   3C    basis set group =>   1
Atom   4O    basis set group =>   2
Atom   5C    basis set group =>   1
Atom   6C    basis set group =>   1
Atom   7C    basis set group =>   1
Atom   8N    basis set group =>   3
Atom   9C    basis set group =>   1
Atom  10S    basis set group =>   4
Atom  11N    basis set group =>   3
Atom  12C    basis set group =>   1
Atom  13C    basis set group =>   1
Atom  14C    basis set group =>   1
Atom  15C    basis set group =>   1
Atom  16C    basis set group =>   1
Atom  17C    basis set group =>   1
Atom  18O    basis set group =>   2
Atom  19C    basis set group =>   1
Atom  20H    basis set group =>   5
Atom  21H    basis set group =>   5
Atom  22H    basis set group =>   5
Atom  23H    basis set group =>   5
Atom  24H    basis set group =>   5
Atom  25H    basis set group =>   5
Atom  26H    basis set group =>   5
Atom  27H    basis set group =>   5
Atom  28H    basis set group =>   5
Atom  29H    basis set group =>   5
Atom  30H    basis set group =>   5
Atom  31H    basis set group =>   5
Atom  32H    basis set group =>   5
Atom  33H    basis set group =>   5
Atom  34H    basis set group =>   5
Atom  35H    basis set group =>   5
---------------------------------
AUXILIARY/C BASIS SET INFORMATION
---------------------------------
There are 5 groups of distinct atoms

 Group   1 Type C   : 8s6p5d3f1g contracted to 8s6p5d3f1g pattern {11111111/111111/11111/111/1}
 Group   2 Type O   : 8s6p5d3f1g contracted to 8s6p5d3f1g pattern {11111111/111111/11111/111/1}
 Group   3 Type N   : 8s6p5d3f1g contracted to 8s6p5d3f1g pattern {11111111/111111/11111/111/1}
 Group   4 Type S   : 10s8p7d5f2g contracted to 10s8p7d5f2g pattern {1111111111/11111111/1111111/11111/11}
 Group   5 Type H   : 4s3p2d1f contracted to 4s3p2d1f pattern {1111/111/11/1}

Atom   0C    basis set group =>   1
Atom   1C    basis set group =>   1
Atom   2O    basis set group =>   2
Atom   3C    basis set group =>   1
Atom   4O    basis set group =>   2
Atom   5C    basis set group =>   1
Atom   6C    basis set group =>   1
Atom   7C    basis set group =>   1
Atom   8N    basis set group =>   3
Atom   9C    basis set group =>   1
Atom  10S    basis set group =>   4
Atom  11N    basis set group =>   3
Atom  12C    basis set group =>   1
Atom  13C    basis set group =>   1
Atom  14C    basis set group =>   1
Atom  15C    basis set group =>   1
Atom  16C    basis set group =>   1
Atom  17C    basis set group =>   1
Atom  18O    basis set group =>   2
Atom  19C    basis set group =>   1
Atom  20H    basis set group =>   5
Atom  21H    basis set group =>   5
Atom  22H    basis set group =>   5
Atom  23H    basis set group =>   5
Atom  24H    basis set group =>   5
Atom  25H    basis set group =>   5
Atom  26H    basis set group =>   5
Atom  27H    basis set group =>   5
Atom  28H    basis set group =>   5
Atom  29H    basis set group =>   5
Atom  30H    basis set group =>   5
Atom  31H    basis set group =>   5
Atom  32H    basis set group =>   5
Atom  33H    basis set group =>   5
Atom  34H    basis set group =>   5
Atom  35H    basis set group =>   5
------------------------------------------------------------------------------
                           ORCA GTO INTEGRAL CALCULATION
------------------------------------------------------------------------------
------------------------------------------------------------------------------
                   ___                                                        
                  /   \      - P O W E R E D   B Y -                         
                 /     \                                                     
                 |  |  |   _    _      __       _____    __    __             
                 |  |  |  | |  | |    /  \     |  _  \  |  |  /  |          
                  \  \/   | |  | |   /    \    | | | |  |  | /  /          
                 / \  \   | |__| |  /  /\  \   | |_| |  |  |/  /          
                |  |  |   |  __  | /  /__\  \  |    /   |      \           
                |  |  |   | |  | | |   __   |  |    \   |  |\   \          
                \     /   | |  | | |  |  |  |  | |\  \  |  | \   \       
                 \___/    |_|  |_| |__|  |__|  |_| \__\ |__|  \__/        
                                                                              
                      - O R C A' S   B I G   F R I E N D -                    
                                      &                                       
                       - I N T E G R A L  F E E D E R -                       
                                                                              
 v1 FN, 2020, v2 2021                                                         
------------------------------------------------------------------------------


Reading SHARK input file CONFS/Conf502.orca.SHARKINP.tmp ... ok
----------------------
SHARK INTEGRAL PACKAGE
----------------------

Number of atoms                             ...     36
Number of basis functions                   ...    828
Number of shells                            ...    298
Maximum angular momentum                    ...      3
Integral batch strategy                     ... SHARK/LIBINT Hybrid
RI-J (if used) integral strategy            ... SPLIT-RIJ (Revised 2003 algorithm where possible)
Printlevel                                  ...      1
Contraction scheme used                     ... SEGMENTED contraction
Coulomb Range Separation                    ... NOT USED
Exchange Range Separation                   ... NOT USED
Finite Nucleus Model                        ... NOT USED
Auxiliary Coulomb fitting basis             ... NOT available
Auxiliary J/K fitting basis                 ... NOT available
Auxiliary Correlation fitting basis         ... AVAILABLE
   # of basis functions in Aux-C            ...   2141
   # of shells in Aux-C                     ...    629
   Maximum angular momentum in Aux-C        ...      4
Auxiliary 'external' fitting basis          ... NOT available
Integral threshold                          ...     2.500000e-11
Primitive cut-off                           ...     2.500000e-12
Primitive pair pre-selection threshold      ...     2.500000e-12

Calculating pre-screening integrals         ... done (  0.6 sec) Dimension = 298
Organizing shell pair data                  ... done (  1.2 sec)
Shell pair information
Total number of shell pairs                 ...     44551
Shell pairs after pre-screening             ...     34052
Total number of primitive shell pairs       ...    234348
Primitive shell pairs kept                  ...     97427
          la=0 lb=0:   6781 shell pairs
          la=1 lb=0:   9452 shell pairs
          la=1 lb=1:   3346 shell pairs
          la=2 lb=0:   5455 shell pairs
          la=2 lb=1:   3735 shell pairs
          la=2 lb=2:   1068 shell pairs
          la=3 lb=0:   1961 shell pairs
          la=3 lb=1:   1348 shell pairs
          la=3 lb=2:    755 shell pairs
          la=3 lb=3:    151 shell pairs

Calculating one electron integrals          ... done (  0.3 sec)
Calculating RI/C V-Matrix + Cholesky decomp.... done (  1.0 sec)
Calculating Nuclear repulsion               ... done (  0.0 sec) ENN=   1721.473130435116 Eh

SHARK setup successfully completed in   3.8 seconds

Maximum memory used throughout the entire GTOINT-calculation: 506.3 MB
-------------------------------------------------------------------------------
                                 ORCA SCF
-------------------------------------------------------------------------------

------------
SCF SETTINGS
------------
Hamiltonian:
 Ab initio Hamiltonian  Method          .... Hartree-Fock(GTOs)


General Settings:
 Integral files         IntName         .... CONFS/Conf502.orca
 Hartree-Fock type      HFTyp           .... RHF
 Total Charge           Charge          ....    0
 Multiplicity           Mult            ....    1
 Number of Electrons    NEL             ....  154
 Basis Dimension        Dim             ....  828
 Nuclear Repulsion      ENuc            ....   1721.4731304351 Eh

Convergence Acceleration:
 DIIS                   CNVDIIS         .... on
   Start iteration      DIISMaxIt       ....    12
   Startup error        DIISStart       ....  0.200000
   # of expansion vecs  DIISMaxEq       ....     5
   Bias factor          DIISBfac        ....   1.050
   Max. coefficient     DIISMaxC        ....  10.000
 Trust-Rad. Augm. Hess. CNVTRAH         .... auto
   Auto Start mean grad. ratio tolernc. ....  1.125000
   Auto Start start iteration           ....    20
   Auto Start num. interpolation iter.  ....    10
   Max. Number of Micro iterations      ....    16
   Max. Number of Macro iterations      .... Maxiter - #DIIS iter
   Number of Davidson start vectors     ....     2
   Converg. threshold I  (grad. norm)   ....   1.000e-05
   Converg. threshold II (energy diff.) ....   1.000e-08
   Grad. Scal. Fac. for Micro threshold ....   0.100
   Minimum threshold for Micro iter.    ....   0.010
   NR start threshold (gradient norm)   ....   0.001
   Initial trust radius                 ....   0.400
   Minimum AH scaling param. (alpha)    ....   1.000
   Maximum AH scaling param. (alpha)    .... 1000.000
   Orbital update algorithm             .... Taylor
   White noise on init. David. guess    .... on
   Maximum white noise                  ....   0.010
   Quad. conv. algorithm                .... NR
 SOSCF                  CNVSOSCF        .... on
   Start iteration      SOSCFMaxIt      ....   150
   Startup grad/error   SOSCFStart      ....  0.003300
 Level Shifting         CNVShift        .... on
   Level shift para.    LevelShift      ....    0.2500
   Turn off err/grad.   ShiftErr        ....    0.0010
 Zerner damping         CNVZerner       .... off
 Static damping         CNVDamp         .... on
   Fraction old density DampFac         ....    0.7000
   Max. Damping (<1)    DampMax         ....    0.9800
   Min. Damping (>=0)   DampMin         ....    0.0000
   Turn off err/grad.   DampErr         ....    0.1000
 Fernandez-Rico         CNVRico         .... off

SCF Procedure:
 Maximum # iterations   MaxIter         ....   125
 SCF integral mode      SCFMode         .... Direct
   Integral package                     .... SHARK and LIBINT hybrid scheme
 Reset frequency        DirectResetFreq ....    20
 Integral Threshold     Thresh          ....  2.500e-11 Eh
 Primitive CutOff       TCut            ....  2.500e-12 Eh

Convergence Tolerance:
 Convergence Check Mode ConvCheckMode   .... Total+1el-Energy
 Convergence forced     ConvForced      .... 1
 Energy Change          TolE            ....  1.000e-08 Eh
 1-El. energy change                    ....  1.000e-05 Eh
 Orbital Gradient       TolG            ....  1.000e-05
 Orbital Rotation angle TolX            ....  1.000e-05
 DIIS Error             TolErr          ....  5.000e-07


Diagonalization of the overlap matrix:
Smallest eigenvalue                        ... 3.388e-05
Time for diagonalization                   ...    0.107 sec
Threshold for overlap eigenvalues          ... 1.000e-08
Number of eigenvalues below threshold      ... 0
Time for construction of square roots      ...    0.186 sec
Total time needed                          ...    0.294 sec

Time for model grid setup =    2.153 sec

------------------------------
INITIAL GUESS: MODEL POTENTIAL
------------------------------
Loading Hartree-Fock densities                     ... done
Calculating cut-offs                               ... done
Initializing the effective Hamiltonian             ... done
Setting up the integral package (SHARK)            ... done
Starting the Coulomb interaction                   ... done (   9.7 sec)
Reading the grid                                   ... done
Mapping shells                                     ... done
Starting the XC term evaluation                    ... done (   4.2 sec)
Transforming the Hamiltonian                       ... done (   0.1 sec)
Diagonalizing the Hamiltonian                      ... done (   0.1 sec)
Back transforming the eigenvectors                 ... done (   0.0 sec)
Now organizing SCF variables                       ... done
                      ------------------
                      INITIAL GUESS DONE (  16.7 sec)
                      ------------------
--------------
SCF ITERATIONS
--------------
ITER       Energy         Delta-E        Max-DP      RMS-DP      [F,P]     Damp
               ***  Starting incremental Fock matrix formation  ***
  0  -1270.0060920004   0.000000000000 0.04931994  0.00043958  0.3039309 0.7000
  1  -1270.2727648815  -0.266672881143 0.03608278  0.00035499  0.1767323 0.7000
                               ***Turning on DIIS***
  2  -1270.4390132887  -0.166248407154 0.02583839  0.00023709  0.1097006 0.7000
  3  -1272.5966973425  -2.157684053817 0.06313745  0.00051202  0.0828346 0.0000
  4  -1270.7452767056   1.851420636853 0.01101804  0.00009949  0.0068502 0.0000
  5  -1270.8071750728  -0.061898367137 0.00504305  0.00005395  0.0035584 0.0000
                      *** Initiating the SOSCF procedure ***
                           *** Shutting down DIIS ***
                      *** Re-Reading the Fockian *** 
                      *** Removing any level shift *** 
ITER      Energy       Delta-E        Grad      Rot      Max-DP    RMS-DP
  6  -1270.78587991   0.0212951667  0.001646  0.001646  0.002551  0.000027
               *** Restarting incremental Fock matrix formation ***
  7  -1270.80028309  -0.0144031801  0.000937  0.002416  0.001631  0.000017
  8  -1270.80033178  -0.0000486985  0.000430  0.002846  0.001730  0.000018
  9  -1270.80035032  -0.0000185330  0.000189  0.000379  0.000362  0.000005
 10  -1270.80035269  -0.0000023727  0.000057  0.000154  0.000118  0.000001
 11  -1270.80035292  -0.0000002309  0.000021  0.000126  0.000072  0.000001
 12  -1270.80035299  -0.0000000643  0.000011  0.000038  0.000028  0.000000
                 **** Energy Check signals convergence ****
              ***Rediagonalizing the Fockian in SOSCF/NRSCF***

               *****************************************************
               *                     SUCCESS                       *
               *           SCF CONVERGED AFTER  13 CYCLES          *
               *****************************************************


----------------
TOTAL SCF ENERGY
----------------

Total Energy       :        -1270.80035299 Eh          -34580.23563 eV

Components:
Nuclear Repulsion  :         1721.47313044 Eh           46843.66537 eV
Electronic Energy  :        -2992.27348343 Eh          -81423.90100 eV
One Electron Energy:        -5164.28840937 Eh         -140527.43190 eV
Two Electron Energy:         2172.01492594 Eh           59103.53090 eV

Virial components:
Potential Energy   :        -2539.74219948 Eh          -69109.89873 eV
Kinetic Energy     :         1268.94184648 Eh           34529.66310 eV
Virial Ratio       :            2.00146461


---------------
SCF CONVERGENCE
---------------

  Last Energy change         ...   -5.2946e-09  Tolerance :   1.0000e-08
  Last MAX-Density change    ...    4.5454e-06  Tolerance :   1.0000e-07
  Last RMS-Density change    ...    9.0800e-08  Tolerance :   5.0000e-09
  Last Orbital Gradient      ...    2.8218e-06  Tolerance :   1.0000e-05
  Last Orbital Rotation      ...    7.6519e-06  Tolerance :   1.0000e-05

             **** THE GBW FILE WAS UPDATED (CONFS/Conf502.orca.gbw) ****
             **** DENSITY CONFS/Conf502.orca.scfp WAS UPDATED ****
             **** ENERGY FILE WAS UPDATED (CONFS/Conf502.orca.en.tmp) ****
             **** THE GBW FILE WAS UPDATED (CONFS/Conf502.orca.gbw) ****
             **** DENSITY CONFS/Conf502.orca.scfp WAS UPDATED ****
----------------
ORBITAL ENERGIES
----------------

  NO   OCC          E(Eh)            E(eV) 
   0   2.0000     -91.888756     -2500.4202 
   1   2.0000     -20.594783      -560.4125 
   2   2.0000     -20.589099      -560.2579 
   3   2.0000     -20.549067      -559.1686 
   4   2.0000     -15.628761      -425.2802 
   5   2.0000     -15.607727      -424.7078 
   6   2.0000     -11.395823      -310.0961 
   7   2.0000     -11.383850      -309.7703 
   8   2.0000     -11.335648      -308.4587 
   9   2.0000     -11.310903      -307.7853 
  10   2.0000     -11.306900      -307.6764 
  11   2.0000     -11.305004      -307.6248 
  12   2.0000     -11.259815      -306.3952 
  13   2.0000     -11.259214      -306.3788 
  14   2.0000     -11.256286      -306.2991 
  15   2.0000     -11.250957      -306.1541 
  16   2.0000     -11.240679      -305.8744 
  17   2.0000     -11.236534      -305.7616 
  18   2.0000     -11.233325      -305.6743 
  19   2.0000     -11.225060      -305.4494 
  20   2.0000      -8.893820      -242.0131 
  21   2.0000      -6.575397      -178.9256 
  22   2.0000      -6.573389      -178.8710 
  23   2.0000      -6.572804      -178.8551 
  24   2.0000      -1.446603       -39.3641 
  25   2.0000      -1.414596       -38.4931 
  26   2.0000      -1.354783       -36.8655 
  27   2.0000      -1.339761       -36.4568 
  28   2.0000      -1.237682       -33.6790 
  29   2.0000      -1.155100       -31.4319 
  30   2.0000      -1.120352       -30.4863 
  31   2.0000      -1.043132       -28.3851 
  32   2.0000      -1.031957       -28.0810 
  33   2.0000      -1.012592       -27.5540 
  34   2.0000      -0.998929       -27.1822 
  35   2.0000      -0.984463       -26.7886 
  36   2.0000      -0.923130       -25.1196 
  37   2.0000      -0.896393       -24.3921 
  38   2.0000      -0.848655       -23.0931 
  39   2.0000      -0.837673       -22.7942 
  40   2.0000      -0.831029       -22.6135 
  41   2.0000      -0.817943       -22.2574 
  42   2.0000      -0.743780       -20.2393 
  43   2.0000      -0.729798       -19.8588 
  44   2.0000      -0.726722       -19.7751 
  45   2.0000      -0.692598       -18.8465 
  46   2.0000      -0.685703       -18.6589 
  47   2.0000      -0.676188       -18.4000 
  48   2.0000      -0.672868       -18.3097 
  49   2.0000      -0.661365       -17.9967 
  50   2.0000      -0.651953       -17.7405 
  51   2.0000      -0.645372       -17.5615 
  52   2.0000      -0.634092       -17.2545 
  53   2.0000      -0.622253       -16.9324 
  54   2.0000      -0.603171       -16.4131 
  55   2.0000      -0.601588       -16.3700 
  56   2.0000      -0.598566       -16.2878 
  57   2.0000      -0.577438       -15.7129 
  58   2.0000      -0.575097       -15.6492 
  59   2.0000      -0.564100       -15.3499 
  60   2.0000      -0.551836       -15.0162 
  61   2.0000      -0.545891       -14.8545 
  62   2.0000      -0.536435       -14.5971 
  63   2.0000      -0.526091       -14.3157 
  64   2.0000      -0.518596       -14.1117 
  65   2.0000      -0.510438       -13.8897 
  66   2.0000      -0.500773       -13.6267 
  67   2.0000      -0.496261       -13.5039 
  68   2.0000      -0.479496       -13.0478 
  69   2.0000      -0.464292       -12.6340 
  70   2.0000      -0.456104       -12.4112 
  71   2.0000      -0.449193       -12.2232 
  72   2.0000      -0.354257        -9.6398 
  73   2.0000      -0.346867        -9.4387 
  74   2.0000      -0.327977        -8.9247 
  75   2.0000      -0.318151        -8.6573 
  76   2.0000      -0.315594        -8.5878 
  77   0.0000       0.073274         1.9939 
  78   0.0000       0.108397         2.9496 
  79   0.0000       0.120780         3.2866 
  80   0.0000       0.133021         3.6197 
  81   0.0000       0.139986         3.8092 
  82   0.0000       0.143844         3.9142 
  83   0.0000       0.151854         4.1322 
  84   0.0000       0.157991         4.2992 
  85   0.0000       0.161811         4.4031 
  86   0.0000       0.169391         4.6094 
  87   0.0000       0.183220         4.9857 
  88   0.0000       0.190263         5.1773 
  89   0.0000       0.194384         5.2895 
  90   0.0000       0.196567         5.3488 
  91   0.0000       0.207243         5.6394 
  92   0.0000       0.212806         5.7908 
  93   0.0000       0.219233         5.9656 
  94   0.0000       0.228312         6.2127 
  95   0.0000       0.236782         6.4432 
  96   0.0000       0.246285         6.7018 
  97   0.0000       0.253761         6.9052 
  98   0.0000       0.260438         7.0869 
  99   0.0000       0.281978         7.6730 
 100   0.0000       0.291608         7.9350 
 101   0.0000       0.307745         8.3742 
 102   0.0000       0.313864         8.5407 
 103   0.0000       0.323882         8.8133 
 104   0.0000       0.325927         8.8689 
 105   0.0000       0.332832         9.0568 
 106   0.0000       0.339543         9.2394 
 107   0.0000       0.349112         9.4998 
 108   0.0000       0.351587         9.5672 
 109   0.0000       0.362218         9.8565 
 110   0.0000       0.369222        10.0471 
 111   0.0000       0.379147        10.3171 
 112   0.0000       0.384902        10.4737 
 113   0.0000       0.391874        10.6634 
 114   0.0000       0.400833        10.9072 
 115   0.0000       0.412831        11.2337 
 116   0.0000       0.422782        11.5045 
 117   0.0000       0.426749        11.6124 
 118   0.0000       0.431505        11.7418 
 119   0.0000       0.440687        11.9917 
 120   0.0000       0.446438        12.1482 
 121   0.0000       0.451142        12.2762 
 122   0.0000       0.454285        12.3617 
 123   0.0000       0.461001        12.5445 
 124   0.0000       0.462137        12.5754 
 125   0.0000       0.473129        12.8745 
 126   0.0000       0.484445        13.1824 
 127   0.0000       0.492082        13.3902 
 128   0.0000       0.500772        13.6267 
 129   0.0000       0.504011        13.7148 
 130   0.0000       0.508503        13.8371 
 131   0.0000       0.512400        13.9431 
 132   0.0000       0.518272        14.1029 
 133   0.0000       0.520082        14.1522 
 134   0.0000       0.527030        14.3412 
 135   0.0000       0.534079        14.5330 
 136   0.0000       0.536605        14.6018 
 137   0.0000       0.539167        14.6715 
 138   0.0000       0.546169        14.8620 
 139   0.0000       0.555185        15.1073 
 140   0.0000       0.558567        15.1994 
 141   0.0000       0.562813        15.3149 
 142   0.0000       0.565874        15.3982 
 143   0.0000       0.568595        15.4723 
 144   0.0000       0.572389        15.5755 
 145   0.0000       0.579906        15.7801 
 146   0.0000       0.586517        15.9599 
 147   0.0000       0.592314        16.1177 
 148   0.0000       0.594850        16.1867 
 149   0.0000       0.598448        16.2846 
 150   0.0000       0.605922        16.4880 
 151   0.0000       0.607963        16.5435 
 152   0.0000       0.611793        16.6477 
 153   0.0000       0.619033        16.8447 
 154   0.0000       0.622865        16.9490 
 155   0.0000       0.627286        17.0693 
 156   0.0000       0.630367        17.1531 
 157   0.0000       0.638462        17.3734 
 158   0.0000       0.642315        17.4783 
 159   0.0000       0.648297        17.6411 
 160   0.0000       0.652542        17.7566 
 161   0.0000       0.654155        17.8005 
 162   0.0000       0.657494        17.8913 
 163   0.0000       0.667790        18.1715 
 164   0.0000       0.670047        18.2329 
 165   0.0000       0.674841        18.3634 
 166   0.0000       0.678827        18.4718 
 167   0.0000       0.682665        18.5763 
 168   0.0000       0.686686        18.6857 
 169   0.0000       0.692617        18.8471 
 170   0.0000       0.700154        19.0521 
 171   0.0000       0.709804        19.3148 
 172   0.0000       0.718373        19.5479 
 173   0.0000       0.724629        19.7181 
 174   0.0000       0.725368        19.7383 
 175   0.0000       0.736291        20.0355 
 176   0.0000       0.739934        20.1346 
 177   0.0000       0.747065        20.3287 
 178   0.0000       0.749900        20.4058 
 179   0.0000       0.756346        20.5812 
 180   0.0000       0.762594        20.7512 
 181   0.0000       0.765144        20.8206 
 182   0.0000       0.779614        21.2144 
 183   0.0000       0.798752        21.7351 
 184   0.0000       0.802705        21.8427 
 185   0.0000       0.809392        22.0247 
 186   0.0000       0.811718        22.0880 
 187   0.0000       0.825493        22.4628 
 188   0.0000       0.830003        22.5855 
 189   0.0000       0.836702        22.7678 
 190   0.0000       0.842885        22.9361 
 191   0.0000       0.846293        23.0288 
 192   0.0000       0.853961        23.2374 
 193   0.0000       0.866215        23.5709 
 194   0.0000       0.872805        23.7502 
 195   0.0000       0.880796        23.9677 
 196   0.0000       0.884384        24.0653 
 197   0.0000       0.896588        24.3974 
 198   0.0000       0.906028        24.6543 
 199   0.0000       0.909188        24.7403 
 200   0.0000       0.917002        24.9529 
 201   0.0000       0.921151        25.0658 
 202   0.0000       0.931779        25.3550 
 203   0.0000       0.932429        25.3727 
 204   0.0000       0.945454        25.7271 
 205   0.0000       0.962686        26.1960 
 206   0.0000       0.965597        26.2752 
 207   0.0000       0.971213        26.4281 
 208   0.0000       0.974364        26.5138 
 209   0.0000       0.981629        26.7115 
 210   0.0000       0.984106        26.7789 
 211   0.0000       0.986044        26.8316 
 212   0.0000       0.997304        27.1380 
 213   0.0000       1.006256        27.3816 
 214   0.0000       1.018230        27.7074 
 215   0.0000       1.021761        27.8035 
 216   0.0000       1.028794        27.9949 
 217   0.0000       1.037510        28.2321 
 218   0.0000       1.046048        28.4644 
 219   0.0000       1.051096        28.6018 
 220   0.0000       1.052097        28.6290 
 221   0.0000       1.057061        28.7641 
 222   0.0000       1.068910        29.0865 
 223   0.0000       1.083383        29.4804 
 224   0.0000       1.088798        29.6277 
 225   0.0000       1.094126        29.7727 
 226   0.0000       1.103327        30.0230 
 227   0.0000       1.111632        30.2491 
 228   0.0000       1.118345        30.4317 
 229   0.0000       1.123817        30.5806 
 230   0.0000       1.130903        30.7734 
 231   0.0000       1.138746        30.9869 
 232   0.0000       1.141219        31.0542 
 233   0.0000       1.146408        31.1953 
 234   0.0000       1.165850        31.7244 
 235   0.0000       1.167268        31.7630 
 236   0.0000       1.173507        31.9328 
 237   0.0000       1.178344        32.0644 
 238   0.0000       1.184351        32.2278 
 239   0.0000       1.190061        32.3832 
 240   0.0000       1.198938        32.6248 
 241   0.0000       1.204609        32.7791 
 242   0.0000       1.210078        32.9279 
 243   0.0000       1.217204        33.1218 
 244   0.0000       1.226171        33.3658 
 245   0.0000       1.232821        33.5468 
 246   0.0000       1.238365        33.6976 
 247   0.0000       1.243876        33.8476 
 248   0.0000       1.249468        33.9997 
 249   0.0000       1.262208        34.3464 
 250   0.0000       1.272866        34.6364 
 251   0.0000       1.275045        34.6957 
 252   0.0000       1.278007        34.7763 
 253   0.0000       1.290674        35.1210 
 254   0.0000       1.302855        35.4525 
 255   0.0000       1.307081        35.5675 
 256   0.0000       1.312632        35.7185 
 257   0.0000       1.320573        35.9346 
 258   0.0000       1.325723        36.0748 
 259   0.0000       1.336845        36.3774 
 260   0.0000       1.346631        36.6437 
 261   0.0000       1.358145        36.9570 
 262   0.0000       1.361379        37.0450 
 263   0.0000       1.364432        37.1281 
 264   0.0000       1.376835        37.4656 
 265   0.0000       1.382335        37.6152 
 266   0.0000       1.394754        37.9532 
 267   0.0000       1.398780        38.0628 
 268   0.0000       1.407738        38.3065 
 269   0.0000       1.414790        38.4984 
 270   0.0000       1.419000        38.6130 
 271   0.0000       1.429457        38.8975 
 272   0.0000       1.437725        39.1225 
 273   0.0000       1.449937        39.4548 
 274   0.0000       1.456200        39.6252 
 275   0.0000       1.463881        39.8342 
 276   0.0000       1.467547        39.9340 
 277   0.0000       1.475181        40.1417 
 278   0.0000       1.486624        40.4531 
 279   0.0000       1.488473        40.5034 
 280   0.0000       1.490391        40.5556 
 281   0.0000       1.500360        40.8269 
 282   0.0000       1.505500        40.9667 
 283   0.0000       1.514370        41.2081 
 284   0.0000       1.519894        41.3584 
 285   0.0000       1.529172        41.6109 
 286   0.0000       1.535326        41.7784 
 287   0.0000       1.539851        41.9015 
 288   0.0000       1.540597        41.9218 
 289   0.0000       1.546434        42.0806 
 290   0.0000       1.554526        42.3008 
 291   0.0000       1.565824        42.6082 
 292   0.0000       1.571797        42.7708 
 293   0.0000       1.584324        43.1116 
 294   0.0000       1.589998        43.2660 
 295   0.0000       1.599121        43.5143 
 296   0.0000       1.606977        43.7281 
 297   0.0000       1.616501        43.9872 
 298   0.0000       1.622521        44.1510 
 299   0.0000       1.630388        44.3651 
 300   0.0000       1.634075        44.4654 
 301   0.0000       1.642913        44.7059 
 302   0.0000       1.651333        44.9351 
 303   0.0000       1.656727        45.0818 
 304   0.0000       1.672034        45.4983 
 305   0.0000       1.676153        45.6104 
 306   0.0000       1.694685        46.1147 
 307   0.0000       1.697671        46.1960 
 308   0.0000       1.705719        46.4150 
 309   0.0000       1.716214        46.7006 
 310   0.0000       1.723800        46.9070 
 311   0.0000       1.726926        46.9921 
 312   0.0000       1.742550        47.4172 
 313   0.0000       1.745900        47.5083 
 314   0.0000       1.758104        47.8404 
 315   0.0000       1.760375        47.9022 
 316   0.0000       1.774194        48.2783 
 317   0.0000       1.776713        48.3468 
 318   0.0000       1.788486        48.6672 
 319   0.0000       1.801915        49.0326 
 320   0.0000       1.814239        49.3680 
 321   0.0000       1.825175        49.6655 
 322   0.0000       1.843685        50.1692 
 323   0.0000       1.854406        50.4610 
 324   0.0000       1.864805        50.7439 
 325   0.0000       1.873852        50.9901 
 326   0.0000       1.887103        51.3507 
 327   0.0000       1.903582        51.7991 
 328   0.0000       1.910767        51.9946 
 329   0.0000       1.921258        52.2801 
 330   0.0000       1.936544        52.6960 
 331   0.0000       1.939894        52.7872 
 332   0.0000       1.946767        52.9742 
 333   0.0000       1.965253        53.4773 
 334   0.0000       1.975259        53.7495 
 335   0.0000       1.983093        53.9627 
 336   0.0000       1.994512        54.2734 
 337   0.0000       2.007596        54.6295 
 338   0.0000       2.025260        55.1101 
 339   0.0000       2.026865        55.1538 
 340   0.0000       2.034308        55.3563 
 341   0.0000       2.038302        55.4650 
 342   0.0000       2.047313        55.7102 
 343   0.0000       2.068491        56.2865 
 344   0.0000       2.082360        56.6639 
 345   0.0000       2.105785        57.3013 
 346   0.0000       2.118804        57.6556 
 347   0.0000       2.130431        57.9720 
 348   0.0000       2.151837        58.5545 
 349   0.0000       2.157749        58.7153 
 350   0.0000       2.177860        59.2626 
 351   0.0000       2.194312        59.7103 
 352   0.0000       2.208779        60.1039 
 353   0.0000       2.223482        60.5040 
 354   0.0000       2.245976        61.1161 
 355   0.0000       2.261007        61.5251 
 356   0.0000       2.280289        62.0498 
 357   0.0000       2.290321        62.3228 
 358   0.0000       2.305219        62.7282 
 359   0.0000       2.313569        62.9554 
 360   0.0000       2.328864        63.3716 
 361   0.0000       2.343783        63.7776 
 362   0.0000       2.349670        63.9378 
 363   0.0000       2.358774        64.1855 
 364   0.0000       2.372330        64.5544 
 365   0.0000       2.383380        64.8551 
 366   0.0000       2.394055        65.1456 
 367   0.0000       2.405823        65.4658 
 368   0.0000       2.412851        65.6570 
 369   0.0000       2.433838        66.2281 
 370   0.0000       2.446728        66.5789 
 371   0.0000       2.458670        66.9038 
 372   0.0000       2.477980        67.4293 
 373   0.0000       2.487927        67.6999 
 374   0.0000       2.494868        67.8888 
 375   0.0000       2.510350        68.3101 
 376   0.0000       2.516920        68.4889 
 377   0.0000       2.527886        68.7873 
 378   0.0000       2.539913        69.1146 
 379   0.0000       2.565478        69.8102 
 380   0.0000       2.578246        70.1576 
 381   0.0000       2.581937        70.2581 
 382   0.0000       2.594461        70.5989 
 383   0.0000       2.602027        70.8048 
 384   0.0000       2.613597        71.1196 
 385   0.0000       2.629531        71.5532 
 386   0.0000       2.640037        71.8391 
 387   0.0000       2.655707        72.2655 
 388   0.0000       2.665727        72.5381 
 389   0.0000       2.680798        72.9482 
 390   0.0000       2.694188        73.3126 
 391   0.0000       2.701920        73.5230 
 392   0.0000       2.709960        73.7418 
 393   0.0000       2.718518        73.9746 
 394   0.0000       2.727782        74.2267 
 395   0.0000       2.730622        74.3040 
 396   0.0000       2.745045        74.6965 
 397   0.0000       2.751921        74.8836 
 398   0.0000       2.763675        75.2034 
 399   0.0000       2.769290        75.3562 
 400   0.0000       2.778318        75.6019 
 401   0.0000       2.792564        75.9895 
 402   0.0000       2.803176        76.2783 
 403   0.0000       2.804363        76.3106 
 404   0.0000       2.829547        76.9959 
 405   0.0000       2.833244        77.0965 
 406   0.0000       2.846844        77.4666 
 407   0.0000       2.850678        77.5709 
 408   0.0000       2.859997        77.8245 
 409   0.0000       2.872182        78.1561 
 410   0.0000       2.877664        78.3052 
 411   0.0000       2.882733        78.4431 
 412   0.0000       2.894322        78.7585 
 413   0.0000       2.902374        78.9776 
 414   0.0000       2.909963        79.1841 
 415   0.0000       2.922331        79.5207 
 416   0.0000       2.932475        79.7967 
 417   0.0000       2.941196        80.0340 
 418   0.0000       2.952341        80.3373 
 419   0.0000       2.960642        80.5632 
 420   0.0000       2.971631        80.8622 
 421   0.0000       2.974368        80.9367 
 422   0.0000       2.977610        81.0249 
 423   0.0000       2.993318        81.4523 
 424   0.0000       3.000843        81.6571 
 425   0.0000       3.016946        82.0953 
 426   0.0000       3.018417        82.1353 
 427   0.0000       3.026856        82.3649 
 428   0.0000       3.029906        82.4479 
 429   0.0000       3.036040        82.6148 
 430   0.0000       3.044500        82.8451 
 431   0.0000       3.055944        83.1565 
 432   0.0000       3.065767        83.4238 
 433   0.0000       3.068118        83.4877 
 434   0.0000       3.080968        83.8374 
 435   0.0000       3.086784        83.9957 
 436   0.0000       3.091680        84.1289 
 437   0.0000       3.097164        84.2781 
 438   0.0000       3.103099        84.4396 
 439   0.0000       3.116045        84.7919 
 440   0.0000       3.118511        84.8590 
 441   0.0000       3.127033        85.0909 
 442   0.0000       3.132310        85.2345 
 443   0.0000       3.134872        85.3042 
 444   0.0000       3.150272        85.7233 
 445   0.0000       3.153838        85.8203 
 446   0.0000       3.163712        86.0890 
 447   0.0000       3.168612        86.2223 
 448   0.0000       3.178268        86.4851 
 449   0.0000       3.188539        86.7646 
 450   0.0000       3.193139        86.8897 
 451   0.0000       3.203955        87.1840 
 452   0.0000       3.215335        87.4937 
 453   0.0000       3.219315        87.6020 
 454   0.0000       3.223513        87.7163 
 455   0.0000       3.231254        87.9269 
 456   0.0000       3.238189        88.1156 
 457   0.0000       3.250868        88.4606 
 458   0.0000       3.256302        88.6085 
 459   0.0000       3.272504        89.0493 
 460   0.0000       3.274709        89.1094 
 461   0.0000       3.277111        89.1747 
 462   0.0000       3.283292        89.3429 
 463   0.0000       3.289656        89.5161 
 464   0.0000       3.306987        89.9877 
 465   0.0000       3.311401        90.1078 
 466   0.0000       3.312404        90.1351 
 467   0.0000       3.318959        90.3135 
 468   0.0000       3.323077        90.4255 
 469   0.0000       3.331790        90.6626 
 470   0.0000       3.337262        90.8115 
 471   0.0000       3.339119        90.8620 
 472   0.0000       3.346315        91.0579 
 473   0.0000       3.357499        91.3622 
 474   0.0000       3.358532        91.3903 
 475   0.0000       3.366506        91.6073 
 476   0.0000       3.375407        91.8495 
 477   0.0000       3.379384        91.9577 
 478   0.0000       3.388831        92.2148 
 479   0.0000       3.392087        92.3034 
 480   0.0000       3.396815        92.4320 
 481   0.0000       3.399960        92.5176 
 482   0.0000       3.406107        92.6849 
 483   0.0000       3.410407        92.8019 
 484   0.0000       3.417123        92.9846 
 485   0.0000       3.424208        93.1774 
 486   0.0000       3.425895        93.2233 
 487   0.0000       3.438723        93.5724 
 488   0.0000       3.443009        93.6890 
 489   0.0000       3.447666        93.8158 
 490   0.0000       3.449573        93.8677 
 491   0.0000       3.453358        93.9707 
 492   0.0000       3.459845        94.1472 
 493   0.0000       3.461176        94.1834 
 494   0.0000       3.466865        94.3382 
 495   0.0000       3.477204        94.6195 
 496   0.0000       3.483298        94.7854 
 497   0.0000       3.485170        94.8363 
 498   0.0000       3.498048        95.1867 
 499   0.0000       3.502505        95.3080 
 500   0.0000       3.509963        95.5109 
 501   0.0000       3.516150        95.6793 
 502   0.0000       3.520142        95.7879 
 503   0.0000       3.541975        96.3820 
 504   0.0000       3.546548        96.5065 
 505   0.0000       3.555783        96.7578 
 506   0.0000       3.561214        96.9056 
 507   0.0000       3.577425        97.3467 
 508   0.0000       3.583824        97.5208 
 509   0.0000       3.591248        97.7228 
 510   0.0000       3.595641        97.8424 
 511   0.0000       3.610698        98.2521 
 512   0.0000       3.612737        98.3076 
 513   0.0000       3.616113        98.3994 
 514   0.0000       3.621834        98.5551 
 515   0.0000       3.632565        98.8471 
 516   0.0000       3.634992        98.9132 
 517   0.0000       3.640559        99.0646 
 518   0.0000       3.647465        99.2526 
 519   0.0000       3.651375        99.3590 
 520   0.0000       3.659309        99.5749 
 521   0.0000       3.659865        99.5900 
 522   0.0000       3.666514        99.7709 
 523   0.0000       3.672544        99.9350 
 524   0.0000       3.681924       100.1903 
 525   0.0000       3.685498       100.2875 
 526   0.0000       3.695180       100.5510 
 527   0.0000       3.699066       100.6567 
 528   0.0000       3.707910       100.8973 
 529   0.0000       3.710589       100.9703 
 530   0.0000       3.715084       101.0926 
 531   0.0000       3.728560       101.4593 
 532   0.0000       3.740115       101.7737 
 533   0.0000       3.741536       101.8124 
 534   0.0000       3.746687       101.9525 
 535   0.0000       3.751480       102.0829 
 536   0.0000       3.757729       102.2530 
 537   0.0000       3.766399       102.4889 
 538   0.0000       3.772756       102.6619 
 539   0.0000       3.780853       102.8822 
 540   0.0000       3.788979       103.1034 
 541   0.0000       3.796047       103.2957 
 542   0.0000       3.804763       103.5329 
 543   0.0000       3.813878       103.7809 
 544   0.0000       3.815262       103.8186 
 545   0.0000       3.816804       103.8605 
 546   0.0000       3.823880       104.0531 
 547   0.0000       3.828588       104.1812 
 548   0.0000       3.836627       104.3999 
 549   0.0000       3.847835       104.7049 
 550   0.0000       3.851584       104.8069 
 551   0.0000       3.859205       105.0143 
 552   0.0000       3.874319       105.4256 
 553   0.0000       3.881782       105.6287 
 554   0.0000       3.899745       106.1175 
 555   0.0000       3.905598       106.2767 
 556   0.0000       3.911930       106.4490 
 557   0.0000       3.922789       106.7445 
 558   0.0000       3.927406       106.8701 
 559   0.0000       3.939141       107.1895 
 560   0.0000       3.946556       107.3913 
 561   0.0000       3.953248       107.5733 
 562   0.0000       3.955018       107.6215 
 563   0.0000       3.967064       107.9493 
 564   0.0000       3.975935       108.1907 
 565   0.0000       3.986846       108.4876 
 566   0.0000       3.990623       108.5904 
 567   0.0000       3.998218       108.7970 
 568   0.0000       4.005083       108.9839 
 569   0.0000       4.019867       109.3862 
 570   0.0000       4.029650       109.6523 
 571   0.0000       4.038730       109.8994 
 572   0.0000       4.046574       110.1129 
 573   0.0000       4.048582       110.1675 
 574   0.0000       4.063398       110.5707 
 575   0.0000       4.068093       110.6985 
 576   0.0000       4.080178       111.0273 
 577   0.0000       4.094886       111.4275 
 578   0.0000       4.100370       111.5767 
 579   0.0000       4.103202       111.6538 
 580   0.0000       4.111664       111.8841 
 581   0.0000       4.119452       112.0960 
 582   0.0000       4.130242       112.3896 
 583   0.0000       4.141142       112.6862 
 584   0.0000       4.143606       112.7533 
 585   0.0000       4.148860       112.8962 
 586   0.0000       4.157685       113.1364 
 587   0.0000       4.167993       113.4168 
 588   0.0000       4.174071       113.5822 
 589   0.0000       4.179072       113.7183 
 590   0.0000       4.180757       113.7642 
 591   0.0000       4.184960       113.8786 
 592   0.0000       4.192779       114.0913 
 593   0.0000       4.198110       114.2364 
 594   0.0000       4.209444       114.5448 
 595   0.0000       4.213569       114.6570 
 596   0.0000       4.219485       114.8180 
 597   0.0000       4.232088       115.1610 
 598   0.0000       4.235209       115.2459 
 599   0.0000       4.244054       115.4866 
 600   0.0000       4.255369       115.7945 
 601   0.0000       4.269023       116.1660 
 602   0.0000       4.274231       116.3077 
 603   0.0000       4.279762       116.4583 
 604   0.0000       4.283899       116.5708 
 605   0.0000       4.296995       116.9272 
 606   0.0000       4.299877       117.0056 
 607   0.0000       4.308496       117.2401 
 608   0.0000       4.318057       117.5003 
 609   0.0000       4.326825       117.7389 
 610   0.0000       4.330503       117.8390 
 611   0.0000       4.338684       118.0616 
 612   0.0000       4.348898       118.3395 
 613   0.0000       4.353543       118.4659 
 614   0.0000       4.363685       118.7419 
 615   0.0000       4.371566       118.9564 
 616   0.0000       4.379333       119.1677 
 617   0.0000       4.389081       119.4330 
 618   0.0000       4.397663       119.6665 
 619   0.0000       4.403394       119.8225 
 620   0.0000       4.413089       120.0863 
 621   0.0000       4.427099       120.4675 
 622   0.0000       4.435409       120.6936 
 623   0.0000       4.447388       121.0196 
 624   0.0000       4.447646       121.0266 
 625   0.0000       4.453350       121.1818 
 626   0.0000       4.462590       121.4332 
 627   0.0000       4.475299       121.7791 
 628   0.0000       4.479772       121.9008 
 629   0.0000       4.486919       122.0953 
 630   0.0000       4.499070       122.4259 
 631   0.0000       4.506261       122.6216 
 632   0.0000       4.514599       122.8485 
 633   0.0000       4.523818       123.0993 
 634   0.0000       4.536104       123.4337 
 635   0.0000       4.547046       123.7314 
 636   0.0000       4.553453       123.9058 
 637   0.0000       4.560111       124.0869 
 638   0.0000       4.567295       124.2824 
 639   0.0000       4.580275       124.6356 
 640   0.0000       4.582875       124.7064 
 641   0.0000       4.588405       124.8568 
 642   0.0000       4.611216       125.4776 
 643   0.0000       4.614435       125.5652 
 644   0.0000       4.619634       125.7066 
 645   0.0000       4.631266       126.0232 
 646   0.0000       4.632109       126.0461 
 647   0.0000       4.640686       126.2795 
 648   0.0000       4.645947       126.4226 
 649   0.0000       4.648596       126.4947 
 650   0.0000       4.654676       126.6602 
 651   0.0000       4.667793       127.0171 
 652   0.0000       4.674173       127.1907 
 653   0.0000       4.682940       127.4293 
 654   0.0000       4.689364       127.6041 
 655   0.0000       4.700162       127.8979 
 656   0.0000       4.721030       128.4658 
 657   0.0000       4.729957       128.7087 
 658   0.0000       4.734554       128.8338 
 659   0.0000       4.749108       129.2298 
 660   0.0000       4.755567       129.4056 
 661   0.0000       4.763522       129.6220 
 662   0.0000       4.778926       130.0412 
 663   0.0000       4.799145       130.5914 
 664   0.0000       4.817131       131.0808 
 665   0.0000       4.836592       131.6104 
 666   0.0000       4.840005       131.7032 
 667   0.0000       4.858728       132.2127 
 668   0.0000       4.864576       132.3718 
 669   0.0000       4.882617       132.8628 
 670   0.0000       4.910820       133.6302 
 671   0.0000       4.920440       133.8920 
 672   0.0000       4.930600       134.1684 
 673   0.0000       4.939979       134.4237 
 674   0.0000       4.962919       135.0479 
 675   0.0000       4.984904       135.6461 
 676   0.0000       5.011702       136.3753 
 677   0.0000       5.019397       136.5847 
 678   0.0000       5.031635       136.9178 
 679   0.0000       5.039020       137.1187 
 680   0.0000       5.052474       137.4848 
 681   0.0000       5.069480       137.9476 
 682   0.0000       5.078536       138.1940 
 683   0.0000       5.093504       138.6013 
 684   0.0000       5.110513       139.0641 
 685   0.0000       5.118649       139.2855 
 686   0.0000       5.127704       139.5319 
 687   0.0000       5.131018       139.6221 
 688   0.0000       5.149569       140.1269 
 689   0.0000       5.167306       140.6095 
 690   0.0000       5.170170       140.6875 
 691   0.0000       5.187930       141.1707 
 692   0.0000       5.193279       141.3163 
 693   0.0000       5.197517       141.4316 
 694   0.0000       5.207908       141.7144 
 695   0.0000       5.220240       142.0500 
 696   0.0000       5.224130       142.1558 
 697   0.0000       5.228853       142.2843 
 698   0.0000       5.233167       142.4017 
 699   0.0000       5.255536       143.0104 
 700   0.0000       5.261335       143.1682 
 701   0.0000       5.269944       143.4025 
 702   0.0000       5.292583       144.0185 
 703   0.0000       5.321627       144.8088 
 704   0.0000       5.325845       144.9236 
 705   0.0000       5.337584       145.2431 
 706   0.0000       5.344078       145.4198 
 707   0.0000       5.364520       145.9760 
 708   0.0000       5.368525       146.0850 
 709   0.0000       5.382578       146.4674 
 710   0.0000       5.390121       146.6726 
 711   0.0000       5.412227       147.2742 
 712   0.0000       5.431607       147.8015 
 713   0.0000       5.457386       148.5030 
 714   0.0000       5.466212       148.7432 
 715   0.0000       5.471021       148.8740 
 716   0.0000       5.491816       149.4399 
 717   0.0000       5.507109       149.8561 
 718   0.0000       5.513633       150.0336 
 719   0.0000       5.528331       150.4335 
 720   0.0000       5.532695       150.5523 
 721   0.0000       5.543772       150.8537 
 722   0.0000       5.553172       151.1095 
 723   0.0000       5.570308       151.5758 
 724   0.0000       5.584600       151.9647 
 725   0.0000       5.596380       152.2852 
 726   0.0000       5.609583       152.6445 
 727   0.0000       5.623989       153.0365 
 728   0.0000       5.634461       153.3215 
 729   0.0000       5.646838       153.6583 
 730   0.0000       5.647289       153.6705 
 731   0.0000       5.651415       153.7828 
 732   0.0000       5.672869       154.3666 
 733   0.0000       5.701651       155.1498 
 734   0.0000       5.703623       155.2035 
 735   0.0000       5.713855       155.4819 
 736   0.0000       5.727280       155.8472 
 737   0.0000       5.729856       155.9173 
 738   0.0000       5.746478       156.3696 
 739   0.0000       5.754947       156.6001 
 740   0.0000       5.763331       156.8282 
 741   0.0000       5.784854       157.4139 
 742   0.0000       5.793833       157.6582 
 743   0.0000       5.814441       158.2190 
 744   0.0000       5.816423       158.2729 
 745   0.0000       5.837326       158.8417 
 746   0.0000       5.845588       159.0665 
 747   0.0000       5.867206       159.6548 
 748   0.0000       5.893278       160.3642 
 749   0.0000       5.931514       161.4047 
 750   0.0000       5.943463       161.7298 
 751   0.0000       5.976700       162.6343 
 752   0.0000       5.985920       162.8852 
 753   0.0000       6.000896       163.2927 
 754   0.0000       6.013221       163.6281 
 755   0.0000       6.030734       164.1046 
 756   0.0000       6.056786       164.8135 
 757   0.0000       6.063591       164.9987 
 758   0.0000       6.088811       165.6850 
 759   0.0000       6.093501       165.8126 
 760   0.0000       6.099106       165.9651 
 761   0.0000       6.184258       168.2822 
 762   0.0000       6.212515       169.0511 
 763   0.0000       6.221505       169.2958 
 764   0.0000       6.229359       169.5095 
 765   0.0000       6.299447       171.4167 
 766   0.0000       6.316134       171.8708 
 767   0.0000       6.344088       172.6314 
 768   0.0000       6.350984       172.8191 
 769   0.0000       6.366456       173.2401 
 770   0.0000       6.380385       173.6191 
 771   0.0000       6.385425       173.7562 
 772   0.0000       6.410664       174.4430 
 773   0.0000       6.447464       175.4444 
 774   0.0000       6.464933       175.9198 
 775   0.0000       6.466392       175.9595 
 776   0.0000       6.503876       176.9795 
 777   0.0000       6.557532       178.4395 
 778   0.0000       6.562290       178.5690 
 779   0.0000       6.596270       179.4936 
 780   0.0000       6.640140       180.6874 
 781   0.0000       6.680160       181.7764 
 782   0.0000       6.704659       182.4430 
 783   0.0000       6.758259       183.9016 
 784   0.0000       6.820016       185.5821 
 785   0.0000       6.911072       188.0598 
 786   0.0000       6.922046       188.3585 
 787   0.0000       6.928873       188.5442 
 788   0.0000       6.974541       189.7869 
 789   0.0000       7.007709       190.6894 
 790   0.0000       7.057671       192.0490 
 791   0.0000       7.067626       192.3199 
 792   0.0000       7.085291       192.8006 
 793   0.0000       7.134659       194.1439 
 794   0.0000       7.215130       196.3337 
 795   0.0000       7.239466       196.9959 
 796   0.0000       7.262537       197.6237 
 797   0.0000       7.284660       198.2257 
 798   0.0000       7.346994       199.9219 
 799   0.0000       7.404348       201.4826 
 800   0.0000       7.415519       201.7865 
 801   0.0000       7.585516       206.4124 
 802   0.0000       7.590077       206.5365 
 803   0.0000       7.614279       207.1951 
 804   0.0000       7.670987       208.7382 
 805   0.0000       7.812491       212.5887 
 806   0.0000       7.825192       212.9343 
 807   0.0000       7.924597       215.6392 
 808   0.0000       7.937036       215.9777 
 809   0.0000       9.425498       256.4808 
 810   0.0000       9.614289       261.6181 
 811   0.0000      10.839912       294.9690 
 812   0.0000      11.343450       308.6710 
 813   0.0000      11.879310       323.2525 
 814   0.0000      12.587868       342.5333 
 815   0.0000      12.827997       349.0676 
 816   0.0000      12.941948       352.1683 
 817   0.0000      13.095393       356.3438 
 818   0.0000      13.209401       359.4461 
 819   0.0000      13.412123       364.9624 
 820   0.0000      13.476134       366.7042 
 821   0.0000      13.866444       377.3251 
 822   0.0000      13.948403       379.5553 
 823   0.0000      13.987103       380.6084 
 824   0.0000      14.045042       382.1850 
 825   0.0000      14.566530       396.3754 
 826   0.0000      14.715585       400.4314 
 827   0.0000      15.968362       434.5212 

                    ********************************
                    * MULLIKEN POPULATION ANALYSIS *
                    ********************************

-----------------------
MULLIKEN ATOMIC CHARGES
-----------------------
   0 C :   -0.327069
   1 C :    0.061810
   2 O :   -0.378072
   3 C :    0.463653
   4 O :   -0.413336
   5 C :   -0.190927
   6 C :    0.140295
   7 C :   -0.282449
   8 N :   -0.122487
   9 C :    0.200996
  10 S :   -0.438928
  11 N :   -0.201255
  12 C :    0.049467
  13 C :    0.039347
  14 C :   -0.160533
  15 C :   -0.137585
  16 C :   -0.274552
  17 C :    0.312586
  18 O :   -0.360533
  19 C :   -0.275076
  20 H :    0.126590
  21 H :    0.106290
  22 H :    0.106006
  23 H :    0.101150
  24 H :    0.094497
  25 H :    0.122656
  26 H :    0.129403
  27 H :    0.103531
  28 H :    0.197059
  29 H :    0.194274
  30 H :    0.154852
  31 H :    0.158717
  32 H :    0.161137
  33 H :    0.130342
  34 H :    0.240461
  35 H :    0.167684
Sum of atomic charges:    0.0000000

--------------------------------
MULLIKEN REDUCED ORBITAL CHARGES
--------------------------------
  0 C s       :     3.269855  s :     3.269855
      pz      :     0.933609  p :     2.980044
      px      :     1.040036
      py      :     1.006398
      dz2     :     0.021939  d :     0.072822
      dxz     :     0.003449
      dyz     :     0.020793
      dx2y2   :     0.006666
      dxy     :     0.019975
      f0      :     0.000415  f :     0.004348
      f+1     :     0.000150
      f-1     :     0.001924
      f+2     :     0.000519
      f-2     :     0.000266
      f+3     :     0.000150
      f-3     :     0.000924
  1 C s       :     3.163087  s :     3.163087
      pz      :     0.985182  p :     2.612129
      px      :     0.790687
      py      :     0.836260
      dz2     :     0.027963  d :     0.151550
      dxz     :     0.020140
      dyz     :     0.034578
      dx2y2   :     0.029297
      dxy     :     0.039572
      f0      :     0.001394  f :     0.011424
      f+1     :     0.000933
      f-1     :     0.001991
      f+2     :     0.000535
      f-2     :     0.001953
      f+3     :     0.002147
      f-3     :     0.002470
  2 O s       :     3.724504  s :     3.724504
      pz      :     1.656463  p :     4.620791
      px      :     1.303034
      py      :     1.661293
      dz2     :     0.004449  d :     0.030493
      dxz     :     0.008566
      dyz     :     0.003593
      dx2y2   :     0.006065
      dxy     :     0.007820
      f0      :     0.000218  f :     0.002285
      f+1     :     0.000447
      f-1     :     0.000111
      f+2     :     0.000456
      f-2     :     0.000264
      f+3     :     0.000375
      f-3     :     0.000413
[...]
 15 C s       :     2.705553  s :     2.705553
      pz      :     0.889909  p :     2.795942
      px      :     0.939675
      py      :     0.966358
      dz2     :     0.086450  d :     0.415840
      dxz     :     0.071102
      dyz     :     0.054065
      dx2y2   :     0.114613
      dxy     :     0.089609
      f0      :     0.002962  f :     0.041036
      f+1     :     0.005073
      f-1     :     0.005733
      f+2     :     0.007086
      f-2     :     0.006176
      f+3     :     0.007384
      f-3     :     0.006622
 16 C s       :     2.701669  s :     2.701669
      pz      :     0.933795  p :     2.869064
      px      :     0.962913
      py      :     0.972357
      dz2     :     0.040338  d :     0.391202
      dxz     :     0.057914
      dyz     :     0.083812
      dx2y2   :     0.097175
      dxy     :     0.111963
      f0      :     0.004070  f :     0.040364
      f+1     :     0.004438
      f-1     :     0.003780
      f+2     :     0.006198
      f-2     :     0.005024
      f+3     :     0.009220
      f-3     :     0.007634
 17 C s       :     2.701308  s :     2.701308
      pz      :     0.847469  p :     2.684896
      px      :     0.822460
      py      :     1.014967
      dz2     :     0.119293  d :     0.708666
      dxz     :     0.109434
      dyz     :     0.133878
      dx2y2   :     0.170593
      dxy     :     0.175467
      f0      :     0.008470  f :     0.099302
      f+1     :     0.015735
      f-1     :     0.008883
      f+2     :     0.015951
      f-2     :     0.013974
      f+3     :     0.018359
      f-3     :     0.017930
 18 O s       :     3.177213  s :     3.177213
      pz      :     1.452904  p :     4.348390
      px      :     1.394477
      py      :     1.501009
      dz2     :     0.007598  d :     0.075578
      dxz     :     0.017136
      dyz     :     0.016821
      dx2y2   :     0.016158
      dxy     :     0.017865
      f0      :     0.000573  f :     0.005076
      f+1     :     0.000737
      f-1     :     0.000353
      f+2     :     0.000661
      f-2     :     0.000960
      f+3     :     0.000818
      f-3     :     0.000975
 19 C s       :     2.695296  s :     2.695296
      pz      :     0.928474  p :     2.847823
      px      :     0.955304
      py      :     0.964045
      dz2     :     0.070495  d :     0.388761
      dxz     :     0.068547
      dyz     :     0.056008
      dx2y2   :     0.100472
      dxy     :     0.093240
      f0      :     0.003096  f :     0.040839
      f+1     :     0.005106
      f-1     :     0.005254
      f+2     :     0.007137
      f-2     :     0.006684
      f+3     :     0.007358
      f-3     :     0.006203
 20 H s       :     0.841342  s :     0.841342
      pz      :     0.037706  p :     0.154830
      px      :     0.062582
      py      :     0.054542
      dz2     :     0.002400  d :     0.027734
      dxz     :     0.004432
      dyz     :     0.004505
      dx2y2   :     0.009053
      dxy     :     0.007344
 21 H s       :     0.845435  s :     0.845435
      pz      :     0.039112  p :     0.152425
      px      :     0.064144
      py      :     0.049169
      dz2     :     0.002302  d :     0.027572
      dxz     :     0.006018
      dyz     :     0.003018
      dx2y2   :     0.008488
      dxy     :     0.007746
 22 H s       :     0.845145  s :     0.845145
      pz      :     0.065391  p :     0.153664
      px      :     0.039894
      py      :     0.048379
      dz2     :     0.008861  d :     0.027603
      dxz     :     0.006004
      dyz     :     0.007222
      dx2y2   :     0.002032
      dxy     :     0.003484
 23 H s       :     0.854822  s :     0.854822
      pz      :     0.066980  p :     0.146115
      px      :     0.028677
      py      :     0.050458
      dz2     :     0.009176  d :     0.027032
      dxz     :     0.003994
      dyz     :     0.008039
      dx2y2   :     0.002390
      dxy     :     0.003433
 24 H s       :     0.856920  s :     0.856920
      pz      :     0.042076  p :     0.144616
      px      :     0.062237
      py      :     0.040303
      dz2     :     0.002689  d :     0.026912
      dxz     :     0.006850
      dyz     :     0.003300
      dx2y2   :     0.006611
      dxy     :     0.007463
 25 H s       :     0.831122  s :     0.831122
      pz      :     0.038320  p :     0.151534
      px      :     0.069648
      py      :     0.043567
      dz2     :     0.002365  d :     0.027751
      dxz     :     0.008351
      dyz     :     0.000716
      dx2y2   :     0.008548
      dxy     :     0.007771
 26 H s       :     0.828701  s :     0.828701
      pz      :     0.064561  p :     0.150505
      px      :     0.043762
      py      :     0.042182
      dz2     :     0.008974  d :     0.027718
      dxz     :     0.007304
      dyz     :     0.006754
      dx2y2   :     0.002956
      dxy     :     0.001730
 27 H s       :     0.842844  s :     0.842844
      pz      :     0.036967  p :     0.150045
      px      :     0.039848
      py      :     0.073230
      dz2     :     0.002319  d :     0.027703
      dxz     :     0.000123
      dyz     :     0.009076
      dx2y2   :     0.006798
      dxy     :     0.009387
 28 H s       :     0.742881  s :     0.742881
      pz      :     0.058232  p :     0.254168
      px      :     0.082311
      py      :     0.113625
      dz2     :     0.005977  d :     0.061880
      dxz     :     0.002691
      dyz     :     0.016458
      dx2y2   :     0.017635
      dxy     :     0.019119
 29 H s       :     0.748554  s :     0.748554
      pz      :     0.112526  p :     0.253991
      px      :     0.098267
      py      :     0.043199
      dz2     :     0.021101  d :     0.061324
      dxz     :     0.015767
      dyz     :     0.010229
      dx2y2   :     0.008454
      dxy     :     0.005773
 30 H s       :     0.827951  s :     0.827951
      pz      :     0.040426  p :     0.148455
      px      :     0.065157
      py      :     0.042872
      dz2     :     0.003119  d :     0.028344
      dxz     :     0.007328
      dyz     :     0.003075
      dx2y2   :     0.007278
      dxy     :     0.007544
 31 H s       :     0.841201  s :     0.841201
      pz      :     0.052668  p :     0.155942
      px      :     0.065925
      py      :     0.037350
      dz2     :     0.004960  d :     0.027472
      dxz     :     0.006819
      dyz     :     0.003252
      dx2y2   :     0.006115
      dxy     :     0.006326
 32 H s       :     0.842923  s :     0.842923
      pz      :     0.037445  p :     0.151223
      px      :     0.038697
      py      :     0.075082
      dz2     :     0.002637  d :     0.026467
      dxz     :     0.000710
      dyz     :     0.007248
      dx2y2   :     0.007838
      dxy     :     0.008033
 33 H s       :     0.849012  s :     0.849012
      pz      :     0.057496  p :     0.159088
      px      :     0.049960
      py      :     0.051632
      dz2     :     0.005856  d :     0.027763
      dxz     :     0.004850
      dyz     :     0.005747
      dx2y2   :     0.005926
      dxy     :     0.005384
 34 H s       :     0.706767  s :     0.706767
      pz      :     0.115009  p :     0.347957
      px      :     0.085948
      py      :     0.147001
      dz2     :     0.023172  d :     0.099596
      dxz     :     0.011696
      dyz     :     0.023949
      dx2y2   :     0.020871
      dxy     :     0.019907
 35 H s       :     0.839467  s :     0.839467
      pz      :     0.041048  p :     0.157250
      px      :     0.040244
      py      :     0.075958
      dz2     :     0.002655  d :     0.028036
      dxz     :     0.000867
      dyz     :     0.008007
      dx2y2   :     0.008059
      dxy     :     0.008449


                      *****************************
                      * MAYER POPULATION ANALYSIS *
                      *****************************

  NA   - Mulliken gross atomic population
  ZA   - Total nuclear charge
  QA   - Mulliken gross atomic charge
  VA   - Mayer's total valence
  BVA  - Mayer's bonded valence
  FA   - Mayer's free valence

  ATOM       NA         ZA         QA         VA         BVA        FA
  0 C      6.3271     6.0000    -0.3271     3.8700     3.8700     0.0000
  1 C      5.9382     6.0000     0.0618     3.8707     3.8707    -0.0000
  2 O      8.3781     8.0000    -0.3781     2.0067     2.0067    -0.0000
  3 C      5.5363     6.0000     0.4637     4.2124     4.2124     0.0000
  4 O      8.4133     8.0000    -0.4133     2.0992     2.0992     0.0000
  5 C      6.1909     6.0000    -0.1909     3.6226     3.6226     0.0000
  6 C      5.8597     6.0000     0.1403     3.8452     3.8452     0.0000
  7 C      6.2824     6.0000    -0.2824     3.8976     3.8976     0.0000
  8 N      7.1225     7.0000    -0.1225     3.2917     3.2917    -0.0000
  9 C      5.7990     6.0000     0.2010     4.1552     4.1552     0.0000
 10 S     16.4389    16.0000    -0.4389     1.7566     1.7566     0.0000
 11 N      7.2013     7.0000    -0.2013     3.2601     3.2601    -0.0000
 12 C      5.9505     6.0000     0.0495     3.9583     3.9583     0.0000
 13 C      5.9607     6.0000     0.0393     3.7435     3.7435     0.0000
 14 C      6.1605     6.0000    -0.1605     3.8589     3.8589     0.0000
 15 C      6.1376     6.0000    -0.1376     3.8091     3.8091     0.0000
 16 C      6.2746     6.0000    -0.2746     3.7887     3.7887     0.0000
 17 C      5.6874     6.0000     0.3126     3.8732     3.8732    -0.0000
 18 O      8.3605     8.0000    -0.3605     2.1144     2.1144    -0.0000
 19 C      6.2751     6.0000    -0.2751     3.8380     3.8380     0.0000
 20 H      0.8734     1.0000     0.1266     0.9861     0.9861     0.0000
 21 H      0.8937     1.0000     0.1063     0.9818     0.9818     0.0000
 22 H      0.8940     1.0000     0.1060     0.9749     0.9749    -0.0000
 23 H      0.8989     1.0000     0.1011     0.9740     0.9740     0.0000
 24 H      0.9055     1.0000     0.0945     0.9713     0.9713    -0.0000
 25 H      0.8773     1.0000     0.1227     0.9771     0.9771    -0.0000
 26 H      0.8706     1.0000     0.1294     0.9821     0.9821    -0.0000
 27 H      0.8965     1.0000     0.1035     0.9864     0.9864     0.0000
 28 H      0.8029     1.0000     0.1971     1.0232     1.0232    -0.0000
 29 H      0.8057     1.0000     0.1943     1.0181     1.0181     0.0000
 30 H      0.8451     1.0000     0.1549     0.9960     0.9960    -0.0000
 31 H      0.8413     1.0000     0.1587     0.9878     0.9878    -0.0000
 32 H      0.8389     1.0000     0.1611     0.9770     0.9770     0.0000
 33 H      0.8697     1.0000     0.1303     0.9911     0.9911     0.0000
 34 H      0.7595     1.0000     0.2405     1.0109     1.0109    -0.0000
 35 H      0.8323     1.0000     0.1677     0.9878     0.9878    -0.0000

  Mayer bond orders larger than 0.100000
B(  0-C ,  1-C ) :   0.9633 B(  0-C , 20-H ) :   0.9706 B(  0-C , 21-H ) :   0.9752 
B(  0-C , 22-H ) :   0.9672 B(  1-C ,  2-O ) :   0.8991 B(  1-C , 23-H ) :   0.9841 
B(  1-C , 24-H ) :   0.9801 B(  2-O ,  3-C ) :   1.1029 B(  3-C ,  4-O ) :   2.0119 
B(  3-C ,  5-C ) :   1.0359 B(  5-C ,  6-C ) :   1.6605 B(  5-C , 12-C ) :   0.9607 
B(  6-C ,  7-C ) :   0.9530 B(  6-C ,  8-N ) :   1.1464 B(  7-C , 25-H ) :   0.9652 
B(  7-C , 26-H ) :   0.9664 B(  7-C , 27-H ) :   0.9901 B(  8-N ,  9-C ) :   1.1810 
B(  8-N , 28-H ) :   0.9490 B(  9-C , 10-S ) :   1.6114 B(  9-C , 11-N ) :   1.3025 
B( 11-N , 12-C ) :   0.9912 B( 11-N , 29-H ) :   0.9517 B( 12-C , 13-C ) :   0.9447 
B( 12-C , 30-H ) :   0.9996 B( 13-C , 14-C ) :   1.3807 B( 13-C , 19-C ) :   1.3651 
B( 14-C , 15-C ) :   1.3937 B( 14-C , 31-H ) :   0.9623 B( 15-C , 16-C ) :   1.3622 
B( 15-C , 32-H ) :   0.9708 B( 16-C , 17-C ) :   1.3317 B( 16-C , 33-H ) :   0.9849 
B( 17-C , 18-O ) :   1.1092 B( 17-C , 19-C ) :   1.3720 B( 18-O , 34-H ) :   0.9802 
B( 19-C , 35-H ) :   0.9589 

-------
TIMINGS
-------

Total SCF time: 0 days 2 hours 4 min 23 sec 

Total time                  ....    7463.598 sec
Sum of individual times     ....    7451.062 sec  ( 99.8%)

Fock matrix formation       ....    7404.292 sec  ( 99.2%)
Diagonalization             ....       2.286 sec  (  0.0%)
Density matrix formation    ....       0.251 sec  (  0.0%)
Population analysis         ....       1.159 sec  (  0.0%)
Initial guess               ....      14.592 sec  (  0.2%)
Orbital Transformation      ....       0.000 sec  (  0.0%)
Orbital Orthonormalization  ....       0.000 sec  (  0.0%)
DIIS solution               ....      21.859 sec  (  0.3%)
SOSCF solution              ....       4.468 sec  (  0.1%)

Maximum memory used throughout the entire SCF-calculation: 748.7 MB

------------------------------------------------------------------------------
                                ORCA  MP2 
------------------------------------------------------------------------------

Freezing NCore=48 chemical core electrons

-------------
RI-MP2 ENERGY
-------------
Dimension of the basis                    ...  828
Memory devoted to MP2                     ...  256 MB   
Data format for buffers                   ... DOUBLE
Compression type for matrix containers    ... UNCOMPRESSED
Overall scaling of the MP2 energy         ...   1.000e+00
Calculating two index integrals           ... done (    0.048 sec)
Cholesky decomposition of V**-1           ... done (    0.771 sec)

-----------------
RI-TRANSFORMATION (AUX index driven)
-----------------

Dimension of the orbital-basis         ... 828
Dimension of the aux-basis             ... 2141
Transformation of internal/external MOs...   24-  76 to   77- 827
Number Format for Storage              ... Double (8 Byte)
Integral mode                          ... Direct

First Phase: integral generation and transformation of MO indices
  Aux angular momentum 0               ... done (    6.498 sec)
  Aux angular momentum 1               ... done (   13.729 sec)
  Aux angular momentum 2               ... done (   17.334 sec)
  Aux angular momentum 3               ... done (   12.396 sec)
  Aux angular momentum 4               ... done (    4.435 sec)
Closing buffer VIA ( 0.63 GB; CompressionRatio= 1.00)
  Phase 1 completed in    54.984 sec
Second Phase: sorting and transformation of aux index

IA-Transformation
Memory available                       ... 157 MB 
Max. # MO pairs treated in a batch     ... 11    
# of internal orbitals                 ... 53
# batches for internal orbitals        ... 5
Closing buffer IAV ( 0.63 GB; CompressionRatio= 1.00)
(ia|v) transformation done in    66.665 sec

  Phase 2 completed in    66.762 sec
RI-Integral transformation completed in   121.780 sec
Opening buffers                              ... done

Starting loop over batches of integrals:

Operator 0  - window                       ... ( 24- 76)x( 77-827)
Operator 0  - Memory available             ...   256 MB
Operator 0  - Memory needed per MO         ...  12.3 MB
Operator 0  - Number of orbitals per batch ... 13
Operator 0  - Number of batches            ... 5

OPERATOR  0   PASS   0:  MOs    24 ...   36
  Reading integrals       ... ok
  Internal MO  26
  Internal MO  29
  Internal MO  32
  Internal MO  35
OPERATOR  0   PASS   1:  MOs    37 ...   49
  Reading integrals       ... ok
  Internal MO  38
  Internal MO  41
  Internal MO  44
  Internal MO  47
OPERATOR  0   PASS   2:  MOs    50 ...   62
  Reading integrals       ... ok
  Internal MO  50
  Internal MO  53
  Internal MO  56
  Internal MO  59
  Internal MO  62
OPERATOR  0   PASS   3:  MOs    63 ...   75
  Reading integrals       ... ok
  Internal MO  65
  Internal MO  68
  Internal MO  71
  Internal MO  74
OPERATOR  0   PASS   4:  MOs    76 ...   76
  Reading integrals       ... ok
Time spent in pair loops =   189.994 sec
Deleting buffer (Ka|jb)[aa] ...done

-----------------------------------------------
 RI-MP2 CORRELATION ENERGY:     -3.534185362 Eh
-----------------------------------------------


-------
TIMINGS
-------

Total time                :  313.566 sec
Integral trafo            :  121.802 sec ( 38.8%)
I/O of integrals          :    6.091 sec (  1.9%)
K(i,j) Operators          :   84.273 sec ( 26.9%)
T(i,j) pair energies      :    3.274 sec (  1.0%)
V-calculation             :    0.048 sec (  0.0%)
V**(-1/2)                 :    0.771 sec (  0.2%)
Gamma(ia|P)               :    0.000 sec (  0.0%)
Gamma-Trafo               :    0.000 sec (  0.0%)
D(virtual)                :    0.000 sec (  0.0%)
D(internal)               :    0.000 sec (  0.0%)
W(virtual)                :    0.000 sec (  0.0%)
W(internal)               :    0.000 sec (  0.0%)
L(virtual)                :    0.000 sec (  0.0%)
L(internal)               :    0.000 sec (  0.0%)
G(D)                      :    0.000 sec (  0.0%)
G(Z)                      :    0.000 sec (  0.0%)
Z-Vector Solution         :    0.000 sec (  0.0%)
3-Index Derivative        :    0.000 sec (  0.0%)
2-Index Derivative        :    0.000 sec (  0.0%)
Separable Gradient        :    0.000 sec (  0.0%)


---------------------------------------
MP2 TOTAL ENERGY:    -1274.334538353 Eh
---------------------------------------

Maximum memory used throughout the entire MP2-calculation: 305.2 MB

-------------------------   --------------------
FINAL SINGLE POINT ENERGY     -1274.334538353077
-------------------------   --------------------


                            ***************************************
                            *     ORCA property calculations      *
                            ***************************************


  WARNING: The energy has been calculated at the MP2 level but the densities
           used in the property calculations are still SCF densities
           MP2 response densities have not been calculated 
           use %mp2 Density relaxed end
           or  %mp2 Density unrelaxed end

                                    ---------------------
                                    Active property flags
                                    ---------------------
   (+) Dipole Moment


------------------------------------------------------------------------------
                       ORCA ELECTRIC PROPERTIES CALCULATION
------------------------------------------------------------------------------

Dipole Moment Calculation                       ... on
Quadrupole Moment Calculation                   ... off
Polarizability Calculation                      ... off
GBWName                                         ... CONFS/Conf502.orca.gbw
Electron density file                           ... CONFS/Conf502.orca.scfp
The origin for moment calculation is the CENTER OF MASS  = (32.825234, 31.506704 35.301004)

-------------
DIPOLE MOMENT
-------------
                                X             Y             Z
Electronic contribution:      9.77895       9.81868       7.16829
Nuclear contribution   :    -11.29520     -11.07041      -7.96147
                        -----------------------------------------
Total Dipole Moment    :     -1.51625      -1.25173      -0.79318
                        -----------------------------------------
Magnitude (a.u.)       :      2.12013
Magnitude (Debye)      :      5.38895



--------------------
Rotational spectrum 
--------------------
 
Rotational constants in cm-1:     0.011738     0.009334     0.006483 
Rotational constants in MHz :   351.889400   279.812184   194.362319 

 Dipole components along the rotational axes: 
x,y,z [a.u.] :     1.806992    -0.677071     0.878247 
x,y,z [Debye]:     4.593008    -1.720978     2.232327 

 

Timings for individual modules:

Sum of individual times         ...     7784.339 sec (= 129.739 min)
GTO integral calculation        ...        4.645 sec (=   0.077 min)   0.1 %
SCF iterations                  ...     7463.821 sec (= 124.397 min)  95.9 %
MP2 module                      ...      315.873 sec (=   5.265 min)   4.1 %
                             ****ORCA TERMINATED NORMALLY****
TOTAL RUN TIME: 0 days 2 hours 9 minutes 45 seconds 811 msec
