
                                        *****************
                                        * O   R   C   A *
                                        *****************

                                            #,                                       
                                            ###                                      
                                            ####                                     
                                            #####                                    
                                            ######                                   
                                           ########,                                 
                                     ,,################,,,,,                         
                               ,,#################################,,                 
                          ,,##########################################,,             
                       ,#########################################, ''#####,          
                    ,#############################################,,   '####,        
                  ,##################################################,,,,####,       
                ,###########''''           ''''###############################       
              ,#####''   ,,,,##########,,,,          '''####'''          '####       
            ,##' ,,,,###########################,,,                        '##       
           ' ,,###''''                  '''############,,,                           
         ,,##''                                '''############,,,,        ,,,,,,###''
      ,#''                                            '''#######################'''  
     '                                                          ''''####''''         
             ,#######,   #######,   ,#######,      ##                                
            ,#'     '#,  ##    ##  ,#'     '#,    #''#        ######   ,####,        
            ##       ##  ##   ,#'  ##            #'  '#       #        #'  '#        
            ##       ##  #######   ##           ,######,      #####,   #    #        
            '#,     ,#'  ##    ##  '#,     ,#' ,#      #,         ##   #,  ,#        
             '#######'   ##     ##  '#######'  #'      '#     #####' # '####'        



                  #######################################################
                  #                        -***-                        #
                  #          Department of theory and spectroscopy      #
                  #    Directorship and core code : Frank Neese         #
                  #        Max Planck Institute fuer Kohlenforschung    #
                  #                Kaiser Wilhelm Platz 1               #
                  #                 D-45470 Muelheim/Ruhr               #
                  #                      Germany                        #
                  #                                                     #
                  #                  All rights reserved                #
                  #                        -***-                        #
                  #######################################################


                         Program Version 5.0.0 -  RELEASE  -
                                (SVN: $Rev: 19529$)
                ($Date: 2021-06-28 11:36:33 +0200 (Mo, 28 Jun 2021) $)


 With contributions from (in alphabetic order):
   Daniel Aravena         : Magnetic Suceptibility
   Michael Atanasov       : Ab Initio Ligand Field Theory (pilot matlab implementation)
   Alexander A. Auer      : GIAO ZORA, VPT2 properties, NMR spectrum
   Ute Becker             : Parallelization
   Giovanni Bistoni       : ED, misc. LED, open-shell LED, HFLD
   Martin Brehm           : Molecular dynamics
   Dmytro Bykov           : SCF Hessian
   Vijay G. Chilkuri      : MRCI spin determinant printing, contributions to CSF-ICE
   Dipayan Datta          : RHF DLPNO-CCSD density
   Achintya Kumar Dutta   : EOM-CC, STEOM-CC
   Dmitry Ganyushin       : Spin-Orbit,Spin-Spin,Magnetic field MRCI
   Miquel Garcia          : C-PCM Hessian, Gaussian charge scheme
   Yang Guo               : DLPNO-NEVPT2, F12-NEVPT2, CIM, IAO-localization
   Andreas Hansen         : Spin unrestricted coupled pair/coupled cluster methods
   Benjamin Helmich-Paris : MC-RPA, TRAH-SCF, COSX integrals
   Lee Huntington         : MR-EOM, pCC
   Robert Izsak           : Overlap fitted RIJCOSX, COSX-SCS-MP3, EOM
   Marcus Kettner         : VPT2
   Christian Kollmar      : KDIIS, OOCD, Brueckner-CCSD(T), CCSD density, CASPT2, CASPT2-K
   Simone Kossmann        : Meta GGA functionals, TD-DFT gradient, OOMP2, MP2 Hessian
   Martin Krupicka        : Initial AUTO-CI
   Lucas Lang             : DCDCAS
   Marvin Lechner         : AUTO-CI (C++ implementation), FIC-MRCC
   Dagmar Lenk            : GEPOL surface, SMD
   Dimitrios Liakos       : Extrapolation schemes; Compound Job, initial MDCI parallelization
   Dimitrios Manganas     : Further ROCIS development; embedding schemes
   Dimitrios Pantazis     : SARC Basis sets
   Anastasios Papadopoulos: AUTO-CI, single reference methods and gradients
   Taras Petrenko         : DFT Hessian,TD-DFT gradient, ASA, ECA, R-Raman, ABS, FL, XAS/XES, NRVS
   Peter Pinski           : DLPNO-MP2, DLPNO-MP2 Gradient
   Christoph Reimann      : Effective Core Potentials
   Marius Retegan         : Local ZFS, SOC
   Christoph Riplinger    : Optimizer, TS searches, QM/MM, DLPNO-CCSD(T), (RO)-DLPNO pert. Triples
   Tobias Risthaus        : Range-separated hybrids, TD-DFT gradient, RPA, STAB
   Michael Roemelt        : Original ROCIS implementation
   Masaaki Saitow         : Open-shell DLPNO-CCSD energy and density
   Barbara Sandhoefer     : DKH picture change effects
   Avijit Sen             : IP-ROCIS
   Kantharuban Sivalingam : CASSCF convergence, NEVPT2, FIC-MRCI
   Bernardo de Souza      : ESD, SOC TD-DFT
   Georgi Stoychev        : AutoAux, RI-MP2 NMR
   Willem Van den Heuvel  : Paramagnetic NMR
   Boris Wezisla          : Elementary symmetry handling
   Frank Wennmohs         : Technical directorship


 We gratefully acknowledge several colleagues who have allowed us to
 interface, adapt or use parts of their codes:
   Stefan Grimme, W. Hujo, H. Kruse, P. Pracht,  : VdW corrections, initial TS optimization,
                  C. Bannwarth, S. Ehlert          DFT functionals, gCP, sTDA/sTD-DF
   Ed Valeev, F. Pavosevic, A. Kumar             : LibInt (2-el integral package), F12 methods
   Garnet Chan, S. Sharma, J. Yang, R. Olivares  : DMRG
   Ulf Ekstrom                                   : XCFun DFT Library
   Mihaly Kallay                                 : mrcc  (arbitrary order and MRCC methods)
   Jiri Pittner, Ondrej Demel                    : Mk-CCSD
   Frank Weinhold                                : gennbo (NPA and NBO analysis)
   Christopher J. Cramer and Donald G. Truhlar   : smd solvation model
   Lars Goerigk                                  : TD-DFT with DH, B97 family of functionals
   V. Asgeirsson, H. Jonsson                     : NEB implementation
   FAccTs GmbH                                   : IRC, NEB, NEB-TS, DLPNO-Multilevel, CI-OPT
                                                   MM, QMMM, 2- and 3-layer-ONIOM, Crystal-QMMM,
                                                   LR-CPCM, SF, NACMEs, symmetry and pop. for TD-DFT,
                                                   nearIR, NL-DFT gradient (VV10), updates on ESD,
                                                   ML-optimized integration grids
   S Lehtola, MJT Oliveira, MAL Marques          : LibXC Library
   Liviu Ungur et al                             : ANISO software


 Your calculation uses the libint2 library for the computation of 2-el integrals
 For citations please refer to: http://libint.valeyev.net

 Your ORCA version has been built with support for libXC version: 5.1.0
 For citations please refer to: https://tddft.org/programs/libxc/

 This ORCA versions uses:
   CBLAS   interface :  Fast vector & matrix operations
   LAPACKE interface :  Fast linear algebra routines
   SCALAPACK package :  Parallel linear algebra routines
   Shared memory     :  Shared parallel matrices
   BLAS/LAPACK       :  OpenBLAS 0.3.15  USE64BITINT DYNAMIC_ARCH NO_AFFINITY Zen SINGLE_THREADED
        Core in use  :  Zen
   Copyright (c) 2011-2014, The OpenBLAS Project


================================================================================

----- Orbital basis set information -----
Your calculation utilizes the basis: cc-pVTZ 
       H, B-Ne : Obtained from the ccRepo (grant-hill.group.shef.ac.uk/ccrepo) Feb. 2017
                 T. H. Dunning, Jr., J. Chem. Phys. 90, 1007 (1989)
            He : Obtained from the ccRepo (grant-hill.group.shef.ac.uk/ccrepo) Feb. 2017
                 D. E. Woon, T. H. Dunning, Jr., J. Chem. Phys. 100, 2975 (1994)
  Li-Be, Na-Mg : Obtained from the ccRepo (grant-hill.group.shef.ac.uk/ccrepo) Feb. 2017
                 B. P. Prascher, D. E. Woon, K. A. Peterson, T. H. Dunning, Jr., A. K. Wilson, Theor. Chem. Acc. 128, 69 (2011)
         Al-Ar : Obtained from the ccRepo (grant-hill.group.shef.ac.uk/ccrepo) Feb. 2017
                 D. E. Woon, T. H. Dunning, Jr., J. Chem. Phys. 98, 1358 (1993)
            Ca : Obtained from the Peterson Research Group Website (tyr0.chem.wsu.edu/~kipeters) Feb. 2017
                 J. Koput, K. A. Peterson, J. Phys. Chem. 106, 9595 (2002)
         Sc-Zn : Obtained from the ccRepo (grant-hill.group.shef.ac.uk/ccrepo) Feb. 2017
                 N. B. Balabanov, K. A. Peterson, J. Chem. Phys. 123, 064107 (2005)
                 N. B. Balabanov, K. A. Peterson, J. Chem. Phys. 125, 074110 (2006)
         Ga-Kr : Obtained from the ccRepo (grant-hill.group.shef.ac.uk/ccrepo) Feb. 2017
                 A. K. Wilson, D. E. Woon, K. A. Peterson, T. H. Dunning, Jr., J. Chem. Phys. 110, 7667 (1999)
             Y : Obtained from the ccRepo (grant-hill.group.shef.ac.uk/ccrepo) Feb. 2017
                 K. A. Peterson, D. Figgen, M. Dolg, H. Stoll, J. Chem. Phys. 126, 124101 (2007)
        Ag, Au : Obtained from the Peterson Research Group Website (tyr0.chem.wsu.edu/~kipeters) Feb. 2017
                 K. A. Peterson, C. Puzzarini, Theor. Chem. Acc. 114, 283 (2005)

----- AuxC basis set information -----
Your calculation utilizes the auxiliary basis: cc-pVTZ/C 
  Obtained from the EMSL Basis Set Exchange (bse.pnl.gov) Feb. 2017
  H-He, B-F, Al-Ar, Ga-Kr : F. Weigend, A. Kohn, C. Hattig, J. Chem. Phys. 116, 3175 (2002)
             Li-Be, Na-Mg : C. Haettig, Phys. Chem. Chem. Phys. 7, 59 (2005)
                       Ne : C. Haettig, Phys. Chem. Chem. Phys. 7, 59 (2005)
                            F. Weigend, A. Kohn, C. Hattig, J. Chem. Phys. 116, 3175 (2002)
                    Sc-Zn : J. G. Hill, J. A. Platts, J. Chem. Phys. 128, 044104 (2008)

================================================================================
                                        WARNINGS
                       Please study these warnings very carefully!
================================================================================


WARNING: No MP2 level density has been requested!
         To caclulate MP2 level properties use
         %mp2 Density relaxed end
         or
         %mp2 Density unrelaxed end

WARNING: Post HF methods need fully converged wavefunctions
  ===> : Setting SCFConvForced true
         You can overwrite this default with %scf ConvForced false 


INFO   : the flag for use of the SHARK integral package has been found!

================================================================================
                                       INPUT FILE
================================================================================
NAME = CONFS/Conf257.orca
|  1> ! ri-mp2 cc-pvtz cc-pvtz/c TightSCF NoKeepInts
|  2> 
|  3> %scf
|  4>   MaxCore 4096
|  5> end
|  6> *xyz  0  1
|  7>     C       15.2484522   13.8373357   16.5906705
|  8>     C       15.3079987   15.3752200   16.6628467
|  9>     O       16.4332518   15.8558363   15.9019983
| 10>     C       17.6682410   15.7987610   16.4777129
| 11>     O       18.2592264   14.7402897   16.6013052
| 12>     C       17.9446344   16.9679043   17.3732422
| 13>     C       17.5257605   18.2320987   17.1169364
| 14>     C       16.7666239   18.7190407   15.9004912
| 15>     N       17.8588397   19.2658922   17.9972064
| 16>     C       18.7036025   19.1383615   19.0688481
| 17>     S       19.1280490   20.4364243   20.0013801
| 18>     N       19.1765820   17.8766496   19.3310325
| 19>     C       18.7376056   16.6475935   18.6425057
| 20>     C       17.9084850   15.7700547   19.5768088
| 21>     C       18.2316291   14.4120768   19.7527102
| 22>     C       17.4552981   13.5930810   20.5894248
| 23>     C       16.3438622   14.1353248   21.2565672
| 24>     C       16.0159337   15.4863245   21.0812648
| 25>     O       14.9360697   16.0105775   21.7134747
| 26>     C       16.7900763   16.2989418   20.2471740
| 27>     H       16.0839715   13.3847340   17.1393438
| 28>     H       15.2925913   13.4952964   15.5492031
| 29>     H       14.3165374   13.4683452   17.0352999
| 30>     H       14.3856470   15.7812777   16.2282841
| 31>     H       15.3658082   15.7067950   17.7085901
| 32>     H       17.1375379   18.2377688   14.9866245
| 33>     H       16.8657048   19.8013594   15.7520376
| 34>     H       15.6980225   18.4889364   15.9905673
| 35>     H       17.5244711   20.1999668   17.8205696
| 36>     H       19.7756328   17.8064161   20.1437330
| 37>     H       19.6371747   16.0882059   18.3467347
| 38>     H       19.0778762   13.9846163   19.2198019
| 39>     H       17.7130076   12.5424020   20.7111388
| 40>     H       15.7399419   13.5052078   21.9011005
| 41>     H       14.5743104   15.3207097   22.2902281
| 42>     H       16.5185431   17.3421738   20.1271422
| 43> *
| 44> 
| 45>                          ****END OF INPUT****
================================================================================

                       ****************************
                       * Single Point Calculation *
                       ****************************

---------------------------------
CARTESIAN COORDINATES (ANGSTROEM)
---------------------------------
  C     15.248452   13.837336   16.590671
  C     15.307999   15.375220   16.662847
  O     16.433252   15.855836   15.901998
  C     17.668241   15.798761   16.477713
  O     18.259226   14.740290   16.601305
  C     17.944634   16.967904   17.373242
  C     17.525761   18.232099   17.116936
  C     16.766624   18.719041   15.900491
  N     17.858840   19.265892   17.997206
  C     18.703602   19.138361   19.068848
  S     19.128049   20.436424   20.001380
  N     19.176582   17.876650   19.331032
  C     18.737606   16.647593   18.642506
  C     17.908485   15.770055   19.576809
  C     18.231629   14.412077   19.752710
  C     17.455298   13.593081   20.589425
  C     16.343862   14.135325   21.256567
  C     16.015934   15.486325   21.081265
  O     14.936070   16.010578   21.713475
  C     16.790076   16.298942   20.247174
  H     16.083972   13.384734   17.139344
  H     15.292591   13.495296   15.549203
  H     14.316537   13.468345   17.035300
  H     14.385647   15.781278   16.228284
  H     15.365808   15.706795   17.708590
  H     17.137538   18.237769   14.986624
  H     16.865705   19.801359   15.752038
  H     15.698022   18.488936   15.990567
  H     17.524471   20.199967   17.820570
  H     19.775633   17.806416   20.143733
  H     19.637175   16.088206   18.346735
  H     19.077876   13.984616   19.219802
  H     17.713008   12.542402   20.711139
  H     15.739942   13.505208   21.901100
  H     14.574310   15.320710   22.290228
  H     16.518543   17.342174   20.127142

----------------------------
CARTESIAN COORDINATES (A.U.)
----------------------------
  NO LB      ZA    FRAG     MASS         X           Y           Z
   0 C     6.0000    0    12.011   28.815399   26.148775   31.351824
   1 C     6.0000    0    12.011   28.927925   29.054955   31.488217
   2 O     8.0000    0    15.999   31.054345   29.963188   30.050422
   3 C     6.0000    0    12.011   33.388137   29.855332   31.138365
   4 O     8.0000    0    15.999   34.504937   27.855111   31.371920
   5 C     6.0000    0    12.011   33.910445   32.064692   32.830670
   6 C     6.0000    0    12.011   33.118888   34.453673   32.346322
   7 C     6.0000    0    12.011   31.684327   35.373860   30.047574
   8 N     7.0000    0    14.007   33.748316   36.407260   34.009791
   9 C     6.0000    0    12.011   35.344686   36.166262   36.034901
  10 S    16.0000    0    32.060   36.146774   38.619245   37.797131
  11 N     7.0000    0    14.007   36.238488   33.781972   36.530357
  12 C     6.0000    0    12.011   35.408943   31.459393   35.229230
  13 C     6.0000    0    12.011   33.842132   29.801084   36.994807
  14 C     6.0000    0    12.011   34.452786   27.234878   37.327213
  15 C     6.0000    0    12.011   32.985733   25.687200   38.908374
  16 C     6.0000    0    12.011   30.885424   26.711893   40.169091
  17 C     6.0000    0    12.011   30.265728   29.264912   39.837817
  18 O     8.0000    0    15.999   28.225081   30.255607   41.032521
  19 C     6.0000    0    12.011   31.728646   30.800536   38.261614
  20 H     1.0000    0     1.008   30.394301   25.293482   32.388666
  21 H     1.0000    0     1.008   28.898809   25.502414   29.383735
  22 H     1.0000    0     1.008   27.054335   25.451484   32.192051
  23 H     1.0000    0     1.008   27.184933   29.822293   30.667013
  24 H     1.0000    0     1.008   29.037169   29.681541   33.464386
  25 H     1.0000    0     1.008   32.385253   34.464388   28.320616
  26 H     1.0000    0     1.008   31.871563   37.419146   29.767037
  27 H     1.0000    0     1.008   29.664963   34.939026   30.217793
  28 H     1.0000    0     1.008   33.116451   38.172405   33.675996
  29 H     1.0000    0     1.008   37.370530   33.649250   38.066139
  30 H     1.0000    0     1.008   37.108882   30.402303   34.670304
  31 H     1.0000    0     1.008   36.051961   26.427095   36.320162
  32 H     1.0000    0     1.008   33.472733   23.701705   39.138380
  33 H     1.0000    0     1.008   29.744180   25.521144   41.387082
  34 H     1.0000    0     1.008   27.541455   28.951946   42.122427
  35 H     1.0000    0     1.008   31.215523   32.771959   38.034787

--------------------------------
INTERNAL COORDINATES (ANGSTROEM)
--------------------------------
 C      0   0   0     0.000000000000     0.00000000     0.00000000
 C      1   0   0     1.540728175148     0.00000000     0.00000000
 O      2   1   0     1.440859762318   109.77895869     0.00000000
 C      3   2   1     1.363782686002   118.05588181   280.13694490
 O      4   3   2     1.218564849549   121.22176411    73.97441697
 C      4   3   2     1.498419865944   112.74792432   276.57167804
 C      6   4   3     1.356221032209   123.87547366   323.31388984
 C      7   6   4     1.514311663241   127.32842699   357.68651890
 N      7   6   4     1.398050795578   119.78203592   181.47736908
 C      9   7   6     1.370512386257   124.77644713     6.58626759
 S     10   9   7     1.653704264713   121.74200400   175.70383363
 N     10   9   7     1.372722545027   116.56751698   355.52124829
 C     12  10   9     1.475584064370   125.02587097   353.29835257
 C     13  12  10     1.526577085351   110.78108220   250.58666793
 C     14  13  12     1.406935460060   120.43839279   231.88634355
 C     15  14  13     1.404825705855   120.67987743   181.34484038
 C     16  15  14     1.405132406688   119.66444915     0.06052324
 C     17  16  15     1.401238103235   119.85321872     0.12836722
 O     18  17  16     1.356700712819   120.03569687   179.36507673
 C     18  17  16     1.398338694322   120.35509303   359.90754885
 H      1   2   3     1.097261677836   111.03068757    69.02035949
 H      1   2   3     1.097084084360   110.73900268   308.55858157
 H      1   2   3     1.096501020015   110.47181292   188.55866063
 H      2   1   3     1.097479005513   108.55882626   118.93053791
 H      2   1   3     1.098573246333   110.35847668   237.14581567
 H      8   7   6     1.097429807548   111.00697320   320.54647486
 H      8   7   6     1.096936308300   112.37757430   200.97986923
 H      8   7   6     1.096800184515   110.79255141    80.28650635
 H      9   7   6     1.007719344930   119.73547442   181.79696421
 H     12  10   9     1.012065565170   114.90417181   181.75435854
 H     13  12  10     1.099827048744   107.80616943   132.07210921
 H     15  14  13     1.087588106559   119.78919407     0.00000000
 H     16  15  14     1.088648173299   119.89593853   179.59504053
 H     17  16  15     1.084984026265   119.88134111   179.80166263
 H     19  18  17     0.969242929830   107.41755076     4.76457888
 H     20  18  17     1.084652440894   119.10129356   180.07514965

---------------------------
INTERNAL COORDINATES (A.U.)
---------------------------
 C      0   0   0     0.000000000000     0.00000000     0.00000000
 C      1   0   0     2.911554297846     0.00000000     0.00000000
 O      2   1   0     2.722830348168   109.77895869     0.00000000
 C      3   2   1     2.577175782728   118.05588181   280.13694490
 O      4   3   2     2.302753842070   121.22176411    73.97441697
 C      4   3   2     2.831603180262   112.74792432   276.57167804
 C      6   4   3     2.562886327939   123.87547366   323.31388984
 C      7   6   4     2.861634324928   127.32842699   357.68651890
 N      7   6   4     2.641933124952   119.78203592   181.47736908
 C      9   7   6     2.589893073174   124.77644713     6.58626759
 S     10   9   7     3.125048166805   121.74200400   175.70383363
 N     10   9   7     2.594069667960   116.56751698   355.52124829
 C     12  10   9     2.788449769238   125.02587097   353.29835257
 C     13  12  10     2.884812613634   110.78108220   250.58666793
 C     14  13  12     2.658722707617   120.43839279   231.88634355
 C     15  14  13     2.654735849959   120.67987743   181.34484038
 C     16  15  14     2.655315430538   119.66444915     0.06052324
 C     17  16  15     2.647956263530   119.85321872     0.12836722
 O     18  17  16     2.563792792923   120.03569687   179.36507673
 C     18  17  16     2.642477174734   120.35509303   359.90754885
 H      1   2   3     2.073524068358   111.03068757    69.02035949
 H      1   2   3     2.073188465324   110.73900268   308.55858157
 H      1   2   3     2.072086633393   110.47181292   188.55866063
 H      2   1   3     2.073934758147   108.55882626   118.93053791
 H      2   1   3     2.076002573622   110.35847668   237.14581567
 H      8   7   6     2.073841787467   111.00697320   320.54647486
 H      8   7   6     2.072909209042   112.37757430   200.97986923
 H      8   7   6     2.072651972367   110.79255141    80.28650635
 H      9   7   6     1.904313581771   119.73547442   181.79696421
 H     12  10   9     1.912526747744   114.90417181   181.75435854
 H     13  12  10     2.078371916806   107.80616943   132.07210921
 H     15  14  13     2.055243667906   119.78919407     0.00000000
 H     16  15  14     2.057246903729   119.89593853   179.59504053
 H     17  16  15     2.050322669320   119.88134111   179.80166263
 H     19  18  17     1.831603694618   107.41755076     4.76457888
 H     20  18  17     2.049696063779   119.10129356   180.07514965

---------------------
BASIS SET INFORMATION
---------------------
There are 5 groups of distinct atoms

 Group   1 Type C   : 18s5p2d1f contracted to 4s3p2d1f pattern {8811/311/11/1}
 Group   2 Type O   : 18s5p2d1f contracted to 4s3p2d1f pattern {8811/311/11/1}
 Group   3 Type N   : 18s5p2d1f contracted to 4s3p2d1f pattern {8811/311/11/1}
 Group   4 Type S   : 41s16p2d1f contracted to 5s4p2d1f pattern {13131311/7711/11/1}
 Group   5 Type H   : 5s2p1d contracted to 3s2p1d pattern {311/11/1}

Atom   0C    basis set group =>   1
Atom   1C    basis set group =>   1
Atom   2O    basis set group =>   2
Atom   3C    basis set group =>   1
Atom   4O    basis set group =>   2
Atom   5C    basis set group =>   1
Atom   6C    basis set group =>   1
Atom   7C    basis set group =>   1
Atom   8N    basis set group =>   3
Atom   9C    basis set group =>   1
Atom  10S    basis set group =>   4
Atom  11N    basis set group =>   3
Atom  12C    basis set group =>   1
Atom  13C    basis set group =>   1
Atom  14C    basis set group =>   1
Atom  15C    basis set group =>   1
Atom  16C    basis set group =>   1
Atom  17C    basis set group =>   1
Atom  18O    basis set group =>   2
Atom  19C    basis set group =>   1
Atom  20H    basis set group =>   5
Atom  21H    basis set group =>   5
Atom  22H    basis set group =>   5
Atom  23H    basis set group =>   5
Atom  24H    basis set group =>   5
Atom  25H    basis set group =>   5
Atom  26H    basis set group =>   5
Atom  27H    basis set group =>   5
Atom  28H    basis set group =>   5
Atom  29H    basis set group =>   5
Atom  30H    basis set group =>   5
Atom  31H    basis set group =>   5
Atom  32H    basis set group =>   5
Atom  33H    basis set group =>   5
Atom  34H    basis set group =>   5
Atom  35H    basis set group =>   5
---------------------------------
AUXILIARY/C BASIS SET INFORMATION
---------------------------------
There are 5 groups of distinct atoms

 Group   1 Type C   : 8s6p5d3f1g contracted to 8s6p5d3f1g pattern {11111111/111111/11111/111/1}
 Group   2 Type O   : 8s6p5d3f1g contracted to 8s6p5d3f1g pattern {11111111/111111/11111/111/1}
 Group   3 Type N   : 8s6p5d3f1g contracted to 8s6p5d3f1g pattern {11111111/111111/11111/111/1}
 Group   4 Type S   : 10s8p7d5f2g contracted to 10s8p7d5f2g pattern {1111111111/11111111/1111111/11111/11}
 Group   5 Type H   : 4s3p2d1f contracted to 4s3p2d1f pattern {1111/111/11/1}

Atom   0C    basis set group =>   1
Atom   1C    basis set group =>   1
Atom   2O    basis set group =>   2
Atom   3C    basis set group =>   1
Atom   4O    basis set group =>   2
Atom   5C    basis set group =>   1
Atom   6C    basis set group =>   1
Atom   7C    basis set group =>   1
Atom   8N    basis set group =>   3
Atom   9C    basis set group =>   1
Atom  10S    basis set group =>   4
Atom  11N    basis set group =>   3
Atom  12C    basis set group =>   1
Atom  13C    basis set group =>   1
Atom  14C    basis set group =>   1
Atom  15C    basis set group =>   1
Atom  16C    basis set group =>   1
Atom  17C    basis set group =>   1
Atom  18O    basis set group =>   2
Atom  19C    basis set group =>   1
Atom  20H    basis set group =>   5
Atom  21H    basis set group =>   5
Atom  22H    basis set group =>   5
Atom  23H    basis set group =>   5
Atom  24H    basis set group =>   5
Atom  25H    basis set group =>   5
Atom  26H    basis set group =>   5
Atom  27H    basis set group =>   5
Atom  28H    basis set group =>   5
Atom  29H    basis set group =>   5
Atom  30H    basis set group =>   5
Atom  31H    basis set group =>   5
Atom  32H    basis set group =>   5
Atom  33H    basis set group =>   5
Atom  34H    basis set group =>   5
Atom  35H    basis set group =>   5
------------------------------------------------------------------------------
                           ORCA GTO INTEGRAL CALCULATION
------------------------------------------------------------------------------
------------------------------------------------------------------------------
                   ___                                                        
                  /   \      - P O W E R E D   B Y -                         
                 /     \                                                     
                 |  |  |   _    _      __       _____    __    __             
                 |  |  |  | |  | |    /  \     |  _  \  |  |  /  |          
                  \  \/   | |  | |   /    \    | | | |  |  | /  /          
                 / \  \   | |__| |  /  /\  \   | |_| |  |  |/  /          
                |  |  |   |  __  | /  /__\  \  |    /   |      \           
                |  |  |   | |  | | |   __   |  |    \   |  |\   \          
                \     /   | |  | | |  |  |  |  | |\  \  |  | \   \       
                 \___/    |_|  |_| |__|  |__|  |_| \__\ |__|  \__/        
                                                                              
                      - O R C A' S   B I G   F R I E N D -                    
                                      &                                       
                       - I N T E G R A L  F E E D E R -                       
                                                                              
 v1 FN, 2020, v2 2021                                                         
------------------------------------------------------------------------------


Reading SHARK input file CONFS/Conf257.orca.SHARKINP.tmp ... ok
----------------------
SHARK INTEGRAL PACKAGE
----------------------

Number of atoms                             ...     36
Number of basis functions                   ...    828
Number of shells                            ...    298
Maximum angular momentum                    ...      3
Integral batch strategy                     ... SHARK/LIBINT Hybrid
RI-J (if used) integral strategy            ... SPLIT-RIJ (Revised 2003 algorithm where possible)
Printlevel                                  ...      1
Contraction scheme used                     ... SEGMENTED contraction
Coulomb Range Separation                    ... NOT USED
Exchange Range Separation                   ... NOT USED
Finite Nucleus Model                        ... NOT USED
Auxiliary Coulomb fitting basis             ... NOT available
Auxiliary J/K fitting basis                 ... NOT available
Auxiliary Correlation fitting basis         ... AVAILABLE
   # of basis functions in Aux-C            ...   2141
   # of shells in Aux-C                     ...    629
   Maximum angular momentum in Aux-C        ...      4
Auxiliary 'external' fitting basis          ... NOT available
Integral threshold                          ...     2.500000e-11
Primitive cut-off                           ...     2.500000e-12
Primitive pair pre-selection threshold      ...     2.500000e-12

Calculating pre-screening integrals         ... done (  0.5 sec) Dimension = 298
Organizing shell pair data                  ... done (  1.3 sec)
Shell pair information
Total number of shell pairs                 ...     44551
Shell pairs after pre-screening             ...     34313
Total number of primitive shell pairs       ...    234348
Primitive shell pairs kept                  ...     97882
          la=0 lb=0:   6821 shell pairs
          la=1 lb=0:   9502 shell pairs
          la=1 lb=1:   3369 shell pairs
          la=2 lb=0:   5498 shell pairs
          la=2 lb=1:   3784 shell pairs
          la=2 lb=2:   1081 shell pairs
          la=3 lb=0:   1983 shell pairs
          la=3 lb=1:   1369 shell pairs
          la=3 lb=2:    752 shell pairs
          la=3 lb=3:    154 shell pairs

Calculating one electron integrals          ... done (  0.3 sec)
Calculating RI/C V-Matrix + Cholesky decomp.... done (  1.3 sec)
Calculating Nuclear repulsion               ... done (  0.1 sec) ENN=   1727.727827092303 Eh

SHARK setup successfully completed in   3.9 seconds

Maximum memory used throughout the entire GTOINT-calculation: 510.3 MB
-------------------------------------------------------------------------------
                                 ORCA SCF
-------------------------------------------------------------------------------

------------
SCF SETTINGS
------------
Hamiltonian:
 Ab initio Hamiltonian  Method          .... Hartree-Fock(GTOs)


General Settings:
 Integral files         IntName         .... CONFS/Conf257.orca
 Hartree-Fock type      HFTyp           .... RHF
 Total Charge           Charge          ....    0
 Multiplicity           Mult            ....    1
 Number of Electrons    NEL             ....  154
 Basis Dimension        Dim             ....  828
 Nuclear Repulsion      ENuc            ....   1727.7278270923 Eh

Convergence Acceleration:
 DIIS                   CNVDIIS         .... on
   Start iteration      DIISMaxIt       ....    12
   Startup error        DIISStart       ....  0.200000
   # of expansion vecs  DIISMaxEq       ....     5
   Bias factor          DIISBfac        ....   1.050
   Max. coefficient     DIISMaxC        ....  10.000
 Trust-Rad. Augm. Hess. CNVTRAH         .... auto
   Auto Start mean grad. ratio tolernc. ....  1.125000
   Auto Start start iteration           ....    20
   Auto Start num. interpolation iter.  ....    10
   Max. Number of Micro iterations      ....    16
   Max. Number of Macro iterations      .... Maxiter - #DIIS iter
   Number of Davidson start vectors     ....     2
   Converg. threshold I  (grad. norm)   ....   1.000e-05
   Converg. threshold II (energy diff.) ....   1.000e-08
   Grad. Scal. Fac. for Micro threshold ....   0.100
   Minimum threshold for Micro iter.    ....   0.010
   NR start threshold (gradient norm)   ....   0.001
   Initial trust radius                 ....   0.400
   Minimum AH scaling param. (alpha)    ....   1.000
   Maximum AH scaling param. (alpha)    .... 1000.000
   Orbital update algorithm             .... Taylor
   White noise on init. David. guess    .... on
   Maximum white noise                  ....   0.010
   Quad. conv. algorithm                .... NR
 SOSCF                  CNVSOSCF        .... on
   Start iteration      SOSCFMaxIt      ....   150
   Startup grad/error   SOSCFStart      ....  0.003300
 Level Shifting         CNVShift        .... on
   Level shift para.    LevelShift      ....    0.2500
   Turn off err/grad.   ShiftErr        ....    0.0010
 Zerner damping         CNVZerner       .... off
 Static damping         CNVDamp         .... on
   Fraction old density DampFac         ....    0.7000
   Max. Damping (<1)    DampMax         ....    0.9800
   Min. Damping (>=0)   DampMin         ....    0.0000
   Turn off err/grad.   DampErr         ....    0.1000
 Fernandez-Rico         CNVRico         .... off

SCF Procedure:
 Maximum # iterations   MaxIter         ....   125
 SCF integral mode      SCFMode         .... Direct
   Integral package                     .... SHARK and LIBINT hybrid scheme
 Reset frequency        DirectResetFreq ....    20
 Integral Threshold     Thresh          ....  2.500e-11 Eh
 Primitive CutOff       TCut            ....  2.500e-12 Eh

Convergence Tolerance:
 Convergence Check Mode ConvCheckMode   .... Total+1el-Energy
 Convergence forced     ConvForced      .... 1
 Energy Change          TolE            ....  1.000e-08 Eh
 1-El. energy change                    ....  1.000e-05 Eh
 Orbital Gradient       TolG            ....  1.000e-05
 Orbital Rotation angle TolX            ....  1.000e-05
 DIIS Error             TolErr          ....  5.000e-07


Diagonalization of the overlap matrix:
Smallest eigenvalue                        ... 3.295e-05
Time for diagonalization                   ...    0.122 sec
Threshold for overlap eigenvalues          ... 1.000e-08
Number of eigenvalues below threshold      ... 0
Time for construction of square roots      ...    0.101 sec
Total time needed                          ...    0.225 sec

Time for model grid setup =    1.526 sec

------------------------------
INITIAL GUESS: MODEL POTENTIAL
------------------------------
Loading Hartree-Fock densities                     ... done
Calculating cut-offs                               ... done
Initializing the effective Hamiltonian             ... done
Setting up the integral package (SHARK)            ... done
Starting the Coulomb interaction                   ... done (   4.1 sec)
Reading the grid                                   ... done
Mapping shells                                     ... done
Starting the XC term evaluation                    ... done (   1.2 sec)
Transforming the Hamiltonian                       ... done (   0.1 sec)
Diagonalizing the Hamiltonian                      ... done (   0.1 sec)
Back transforming the eigenvectors                 ... done (   0.0 sec)
Now organizing SCF variables                       ... done
                      ------------------
                      INITIAL GUESS DONE (   7.3 sec)
                      ------------------
--------------
SCF ITERATIONS
--------------
ITER       Energy         Delta-E        Max-DP      RMS-DP      [F,P]     Damp
               ***  Starting incremental Fock matrix formation  ***
  0  -1269.9928329846   0.000000000000 0.04931625  0.00043561  0.3070168 0.7000
  1  -1270.2616831411  -0.268850156544 0.03608191  0.00035066  0.1810531 0.7000
                               ***Turning on DIIS***
  2  -1270.4290087735  -0.167325632387 0.02583841  0.00023473  0.1097281 0.7000
  3  -1272.5769089063  -2.147900132794 0.06313121  0.00050944  0.0827762 0.0000
  4  -1270.7359545494   1.840954356861 0.01195569  0.00010098  0.0071367 0.0000
  5  -1270.7997792447  -0.063824695220 0.00561756  0.00005434  0.0037021 0.0000
                      *** Initiating the SOSCF procedure ***
                           *** Shutting down DIIS ***
                      *** Re-Reading the Fockian *** 
                      *** Removing any level shift *** 
ITER      Energy       Delta-E        Grad      Rot      Max-DP    RMS-DP
  6  -1270.77775597   0.0220232713  0.002038  0.002038  0.003058  0.000028
               *** Restarting incremental Fock matrix formation ***
  7  -1270.79229916  -0.0145431833  0.001161  0.003002  0.002026  0.000018
  8  -1270.79235391  -0.0000547504  0.000547  0.003704  0.002339  0.000021
  9  -1270.79237576  -0.0000218499  0.000186  0.000371  0.000383  0.000005
 10  -1270.79237866  -0.0000029051  0.000054  0.000145  0.000131  0.000002
 11  -1270.79237895  -0.0000002852  0.000024  0.000147  0.000071  0.000001
 12  -1270.79237903  -0.0000000791  0.000012  0.000045  0.000028  0.000000
 13  -1270.79237903  -0.0000000062  0.000003  0.000008  0.000007  0.000000
                  ***Gradient check signals convergence***
              ***Rediagonalizing the Fockian in SOSCF/NRSCF***

               *****************************************************
               *                     SUCCESS                       *
               *           SCF CONVERGED AFTER  14 CYCLES          *
               *****************************************************


----------------
TOTAL SCF ENERGY
----------------

Total Energy       :        -1270.79237903 Eh          -34580.01865 eV

Components:
Nuclear Repulsion  :         1727.72782709 Eh           47013.86431 eV
Electronic Energy  :        -2998.52020612 Eh          -81593.88296 eV
One Electron Energy:        -5176.54371720 Eh         -140860.91578 eV
Two Electron Energy:         2178.02351107 Eh           59267.03281 eV

Virial components:
Potential Energy   :        -2539.81744477 Eh          -69111.94626 eV
Kinetic Energy     :         1269.02506574 Eh           34531.92761 eV
Virial Ratio       :            2.00139265


---------------
SCF CONVERGENCE
---------------

  Last Energy change         ...    3.8108e-09  Tolerance :   1.0000e-08
  Last MAX-Density change    ...    2.8743e-06  Tolerance :   1.0000e-07
  Last RMS-Density change    ...    3.7043e-08  Tolerance :   5.0000e-09
  Last Orbital Gradient      ...    1.0901e-06  Tolerance :   1.0000e-05
  Last Orbital Rotation      ...    3.2310e-06  Tolerance :   1.0000e-05

             **** THE GBW FILE WAS UPDATED (CONFS/Conf257.orca.gbw) ****
             **** DENSITY CONFS/Conf257.orca.scfp WAS UPDATED ****
             **** ENERGY FILE WAS UPDATED (CONFS/Conf257.orca.en.tmp) ****
             **** THE GBW FILE WAS UPDATED (CONFS/Conf257.orca.gbw) ****
             **** DENSITY CONFS/Conf257.orca.scfp WAS UPDATED ****
----------------
ORBITAL ENERGIES
----------------

  NO   OCC          E(Eh)            E(eV) 
   0   2.0000     -91.890204     -2500.4596 
   1   2.0000     -20.597586      -560.4888 
   2   2.0000     -20.582413      -560.0759 
   3   2.0000     -20.556819      -559.3795 
   4   2.0000     -15.629993      -425.3137 
   5   2.0000     -15.609616      -424.7593 
   6   2.0000     -11.395128      -310.0772 
   7   2.0000     -11.385728      -309.8214 
   8   2.0000     -11.335486      -308.4543 
   9   2.0000     -11.313972      -307.8688 
  10   2.0000     -11.309548      -307.7485 
  11   2.0000     -11.301734      -307.5358 
  12   2.0000     -11.261747      -306.4477 
  13   2.0000     -11.259965      -306.3992 
  14   2.0000     -11.259510      -306.3869 
  15   2.0000     -11.253916      -306.2346 
  16   2.0000     -11.243526      -305.9519 
  17   2.0000     -11.239565      -305.8441 
  18   2.0000     -11.236484      -305.7603 
  19   2.0000     -11.219500      -305.2981 
  20   2.0000      -8.895273      -242.0527 
  21   2.0000      -6.576849      -178.9651 
  22   2.0000      -6.574841      -178.9105 
  23   2.0000      -6.574254      -178.8945 
  24   2.0000      -1.450592       -39.4726 
  25   2.0000      -1.417405       -38.5696 
  26   2.0000      -1.358297       -36.9611 
  27   2.0000      -1.341030       -36.4913 
  28   2.0000      -1.239219       -33.7209 
  29   2.0000      -1.158103       -31.5136 
  30   2.0000      -1.122503       -30.5449 
  31   2.0000      -1.045570       -28.4514 
  32   2.0000      -1.029875       -28.0243 
  33   2.0000      -1.015622       -27.6365 
  34   2.0000      -1.000709       -27.2307 
  35   2.0000      -0.986131       -26.8340 
  36   2.0000      -0.924924       -25.1685 
  37   2.0000      -0.883582       -24.0435 
  38   2.0000      -0.851280       -23.1645 
  39   2.0000      -0.840802       -22.8794 
  40   2.0000      -0.834091       -22.6968 
  41   2.0000      -0.829090       -22.5607 
  42   2.0000      -0.748949       -20.3799 
  43   2.0000      -0.731696       -19.9105 
  44   2.0000      -0.729835       -19.8598 
  45   2.0000      -0.695926       -18.9371 
  46   2.0000      -0.687032       -18.6951 
  47   2.0000      -0.680885       -18.5278 
  48   2.0000      -0.673748       -18.3336 
  49   2.0000      -0.666753       -18.1433 
  50   2.0000      -0.648314       -17.6415 
  51   2.0000      -0.647857       -17.6291 
  52   2.0000      -0.638060       -17.3625 
  53   2.0000      -0.606709       -16.5094 
  54   2.0000      -0.605744       -16.4831 
  55   2.0000      -0.601590       -16.3701 
  56   2.0000      -0.595447       -16.2029 
  57   2.0000      -0.579165       -15.7599 
  58   2.0000      -0.574812       -15.6414 
  59   2.0000      -0.573700       -15.6112 
  60   2.0000      -0.561787       -15.2870 
  61   2.0000      -0.552076       -15.0228 
  62   2.0000      -0.536075       -14.5873 
  63   2.0000      -0.523558       -14.2467 
  64   2.0000      -0.517922       -14.0934 
  65   2.0000      -0.512900       -13.9567 
  66   2.0000      -0.501559       -13.6481 
  67   2.0000      -0.495841       -13.4925 
  68   2.0000      -0.481582       -13.1045 
  69   2.0000      -0.467394       -12.7184 
  70   2.0000      -0.455292       -12.3891 
  71   2.0000      -0.449861       -12.2413 
  72   2.0000      -0.356128        -9.6907 
  73   2.0000      -0.349537        -9.5114 
  74   2.0000      -0.329481        -8.9656 
  75   2.0000      -0.321169        -8.7394 
  76   2.0000      -0.317475        -8.6389 
  77   0.0000       0.070112         1.9078 
  78   0.0000       0.103701         2.8219 
  79   0.0000       0.119326         3.2470 
  80   0.0000       0.130646         3.5550 
  81   0.0000       0.135338         3.6827 
  82   0.0000       0.146221         3.9789 
  83   0.0000       0.148863         4.0508 
  84   0.0000       0.153533         4.1778 
  85   0.0000       0.160115         4.3570 
  86   0.0000       0.165629         4.5070 
  87   0.0000       0.179571         4.8864 
  88   0.0000       0.191000         5.1974 
  89   0.0000       0.197850         5.3838 
  90   0.0000       0.203142         5.5278 
  91   0.0000       0.207275         5.6402 
  92   0.0000       0.213058         5.7976 
  93   0.0000       0.219126         5.9627 
  94   0.0000       0.228245         6.2109 
  95   0.0000       0.234228         6.3737 
  96   0.0000       0.244341         6.6489 
  97   0.0000       0.244982         6.6663 
  98   0.0000       0.253278         6.8920 
  99   0.0000       0.277036         7.5385 
 100   0.0000       0.292065         7.9475 
 101   0.0000       0.308894         8.4054 
 102   0.0000       0.311922         8.4878 
 103   0.0000       0.319637         8.6978 
 104   0.0000       0.326527         8.8853 
 105   0.0000       0.334084         9.0909 
 106   0.0000       0.341028         9.2798 
 107   0.0000       0.349605         9.5132 
 108   0.0000       0.351673         9.5695 
 109   0.0000       0.365037         9.9332 
 110   0.0000       0.368626        10.0308 
 111   0.0000       0.373421        10.1613 
 112   0.0000       0.382815        10.4169 
 113   0.0000       0.387612        10.5474 
 114   0.0000       0.404117        10.9966 
 115   0.0000       0.418245        11.3810 
 116   0.0000       0.423792        11.5320 
 117   0.0000       0.426260        11.5991 
 118   0.0000       0.436642        11.8816 
 119   0.0000       0.438704        11.9377 
 120   0.0000       0.445481        12.1221 
 121   0.0000       0.450132        12.2487 
 122   0.0000       0.451664        12.2904 
 123   0.0000       0.459389        12.5006 
 124   0.0000       0.461395        12.5552 
 125   0.0000       0.474175        12.9030 
 126   0.0000       0.477957        13.0059 
 127   0.0000       0.484167        13.1748 
 128   0.0000       0.496156        13.5011 
 129   0.0000       0.499348        13.5879 
 130   0.0000       0.502482        13.6732 
 131   0.0000       0.505029        13.7425 
 132   0.0000       0.516676        14.0595 
 133   0.0000       0.517549        14.0832 
 134   0.0000       0.524807        14.2807 
 135   0.0000       0.529836        14.4176 
 136   0.0000       0.534976        14.5574 
 137   0.0000       0.540785        14.7155 
 138   0.0000       0.549795        14.9607 
 139   0.0000       0.552930        15.0460 
 140   0.0000       0.554513        15.0891 
 141   0.0000       0.556199        15.1349 
 142   0.0000       0.564878        15.3711 
 143   0.0000       0.570804        15.5324 
 144   0.0000       0.572687        15.5836 
 145   0.0000       0.578870        15.7519 
 146   0.0000       0.582380        15.8474 
 147   0.0000       0.592341        16.1184 
 148   0.0000       0.596726        16.2377 
 149   0.0000       0.600458        16.3393 
 150   0.0000       0.606174        16.4948 
 151   0.0000       0.608928        16.5698 
 152   0.0000       0.616933        16.7876 
 153   0.0000       0.621474        16.9112 
 154   0.0000       0.623650        16.9704 
 155   0.0000       0.628998        17.1159 
 156   0.0000       0.632160        17.2020 
 157   0.0000       0.634946        17.2778 
 158   0.0000       0.639260        17.3952 
 159   0.0000       0.642367        17.4797 
 160   0.0000       0.647201        17.6112 
 161   0.0000       0.654143        17.8001 
 162   0.0000       0.657196        17.8832 
 163   0.0000       0.664804        18.0902 
 164   0.0000       0.670006        18.2318 
 165   0.0000       0.678577        18.4650 
 166   0.0000       0.680326        18.5126 
 167   0.0000       0.687216        18.7001 
 168   0.0000       0.692575        18.8459 
 169   0.0000       0.695015        18.9123 
 170   0.0000       0.702683        19.1210 
 171   0.0000       0.707582        19.2543 
 172   0.0000       0.716589        19.4994 
 173   0.0000       0.722894        19.6710 
 174   0.0000       0.728831        19.8325 
 175   0.0000       0.733687        19.9646 
 176   0.0000       0.739295        20.1172 
 177   0.0000       0.746644        20.3172 
 178   0.0000       0.752911        20.4878 
 179   0.0000       0.759332        20.6625 
 180   0.0000       0.759740        20.6736 
 181   0.0000       0.765918        20.8417 
 182   0.0000       0.788484        21.4557 
 183   0.0000       0.795305        21.6413 
 184   0.0000       0.801078        21.7984 
 185   0.0000       0.806432        21.9441 
 186   0.0000       0.816562        22.2198 
 187   0.0000       0.820385        22.3238 
 188   0.0000       0.828297        22.5391 
 189   0.0000       0.832824        22.6623 
 190   0.0000       0.839066        22.8322 
 191   0.0000       0.847101        23.0508 
 192   0.0000       0.861318        23.4377 
 193   0.0000       0.867167        23.5968 
 194   0.0000       0.870626        23.6909 
 195   0.0000       0.878218        23.8975 
 196   0.0000       0.882758        24.0211 
 197   0.0000       0.894525        24.3413 
 198   0.0000       0.897511        24.4225 
 199   0.0000       0.908703        24.7271 
 200   0.0000       0.916304        24.9339 
 201   0.0000       0.922784        25.1102 
 202   0.0000       0.926445        25.2098 
 203   0.0000       0.929047        25.2806 
 204   0.0000       0.945984        25.7415 
 205   0.0000       0.954450        25.9719 
 206   0.0000       0.958565        26.0839 
 207   0.0000       0.965649        26.2766 
 208   0.0000       0.970370        26.4051 
 209   0.0000       0.980195        26.6725 
 210   0.0000       0.986613        26.8471 
 211   0.0000       0.987372        26.8678 
 212   0.0000       0.994010        27.0484 
 213   0.0000       1.004774        27.3413 
 214   0.0000       1.010427        27.4951 
 215   0.0000       1.023208        27.8429 
 216   0.0000       1.029930        28.0258 
 217   0.0000       1.035937        28.1893 
 218   0.0000       1.039012        28.2730 
 219   0.0000       1.043248        28.3882 
 220   0.0000       1.052718        28.6459 
 221   0.0000       1.057249        28.7692 
 222   0.0000       1.067116        29.0377 
 223   0.0000       1.072638        29.1880 
 224   0.0000       1.087191        29.5840 
 225   0.0000       1.091149        29.6917 
 226   0.0000       1.096490        29.8370 
 227   0.0000       1.103285        30.0219 
 228   0.0000       1.110955        30.2306 
 229   0.0000       1.121468        30.5167 
 230   0.0000       1.129304        30.7299 
 231   0.0000       1.135070        30.8868 
 232   0.0000       1.146711        31.2036 
 233   0.0000       1.155593        31.4453 
 234   0.0000       1.162155        31.6239 
 235   0.0000       1.167664        31.7737 
 236   0.0000       1.170318        31.8460 
 237   0.0000       1.179069        32.0841 
 238   0.0000       1.184301        32.2265 
 239   0.0000       1.190010        32.3818 
 240   0.0000       1.192854        32.4592 
 241   0.0000       1.203770        32.7563 
 242   0.0000       1.209941        32.9242 
 243   0.0000       1.210523        32.9400 
 244   0.0000       1.224590        33.3228 
 245   0.0000       1.231464        33.5098 
 246   0.0000       1.236057        33.6348 
 247   0.0000       1.240512        33.7561 
 248   0.0000       1.253096        34.0985 
 249   0.0000       1.258141        34.2358 
 250   0.0000       1.267824        34.4993 
 251   0.0000       1.275918        34.7195 
 252   0.0000       1.280459        34.8431 
 253   0.0000       1.286821        35.0162 
 254   0.0000       1.299325        35.3564 
 255   0.0000       1.309541        35.6344 
 256   0.0000       1.315283        35.7907 
 257   0.0000       1.322531        35.9879 
 258   0.0000       1.329244        36.1706 
 259   0.0000       1.335800        36.3490 
 260   0.0000       1.346696        36.6455 
 261   0.0000       1.351120        36.7658 
 262   0.0000       1.358052        36.9545 
 263   0.0000       1.363671        37.1074 
 264   0.0000       1.372634        37.3513 
 265   0.0000       1.385400        37.6986 
 266   0.0000       1.391382        37.8614 
 267   0.0000       1.401898        38.1476 
 268   0.0000       1.408934        38.3391 
 269   0.0000       1.415846        38.5271 
 270   0.0000       1.422875        38.7184 
 271   0.0000       1.433141        38.9977 
 272   0.0000       1.437670        39.1210 
 273   0.0000       1.448331        39.4111 
 274   0.0000       1.450970        39.4829 
 275   0.0000       1.461594        39.7720 
 276   0.0000       1.469344        39.9829 
 277   0.0000       1.473610        40.0990 
 278   0.0000       1.482996        40.3544 
 279   0.0000       1.491366        40.5821 
 280   0.0000       1.500240        40.8236 
 281   0.0000       1.502821        40.8939 
 282   0.0000       1.506848        41.0034 
 283   0.0000       1.511180        41.1213 
 284   0.0000       1.522439        41.4277 
 285   0.0000       1.528184        41.5840 
 286   0.0000       1.532196        41.6932 
 287   0.0000       1.539745        41.8986 
 288   0.0000       1.543573        42.0027 
 289   0.0000       1.552907        42.2568 
 290   0.0000       1.558955        42.4213 
 291   0.0000       1.563662        42.5494 
 292   0.0000       1.572831        42.7989 
 293   0.0000       1.577637        42.9297 
 294   0.0000       1.590867        43.2897 
 295   0.0000       1.600725        43.5579 
 296   0.0000       1.605028        43.6750 
 297   0.0000       1.610555        43.8254 
 298   0.0000       1.618262        44.0352 
 299   0.0000       1.629065        44.3291 
 300   0.0000       1.634294        44.4714 
 301   0.0000       1.641753        44.6744 
 302   0.0000       1.649222        44.8776 
 303   0.0000       1.664762        45.3005 
 304   0.0000       1.668660        45.4065 
 305   0.0000       1.674594        45.5680 
 306   0.0000       1.684243        45.8306 
 307   0.0000       1.690348        45.9967 
 308   0.0000       1.698198        46.2103 
 309   0.0000       1.709737        46.5243 
 310   0.0000       1.722154        46.8622 
 311   0.0000       1.732680        47.1486 
 312   0.0000       1.737474        47.2791 
 313   0.0000       1.748984        47.5923 
 314   0.0000       1.752350        47.6839 
 315   0.0000       1.761942        47.9449 
 316   0.0000       1.769754        48.1575 
 317   0.0000       1.779527        48.4234 
 318   0.0000       1.786694        48.6184 
 319   0.0000       1.804388        49.0999 
 320   0.0000       1.814616        49.3782 
 321   0.0000       1.821998        49.5791 
 322   0.0000       1.841003        50.0963 
 323   0.0000       1.847498        50.2730 
 324   0.0000       1.850785        50.3624 
 325   0.0000       1.871581        50.9283 
 326   0.0000       1.890488        51.4428 
 327   0.0000       1.902236        51.7625 
 328   0.0000       1.910752        51.9942 
 329   0.0000       1.917640        52.1816 
 330   0.0000       1.928590        52.4796 
 331   0.0000       1.939049        52.7642 
 332   0.0000       1.947042        52.9817 
 333   0.0000       1.965641        53.4878 
 334   0.0000       1.982480        53.9460 
 335   0.0000       1.989500        54.1371 
 336   0.0000       1.996212        54.3197 
 337   0.0000       2.010088        54.6973 
 338   0.0000       2.018155        54.9168 
 339   0.0000       2.022884        55.0455 
 340   0.0000       2.033501        55.3344 
 341   0.0000       2.041246        55.5451 
 342   0.0000       2.059399        56.0391 
 343   0.0000       2.068763        56.2939 
 344   0.0000       2.081136        56.6306 
 345   0.0000       2.097986        57.0891 
 346   0.0000       2.123861        57.7932 
 347   0.0000       2.134197        58.0745 
 348   0.0000       2.155241        58.6471 
 349   0.0000       2.158324        58.7310 
 350   0.0000       2.168904        59.0189 
 351   0.0000       2.195149        59.7330 
 352   0.0000       2.213082        60.2210 
 353   0.0000       2.231361        60.7184 
 354   0.0000       2.250630        61.2427 
 355   0.0000       2.262516        61.5662 
 356   0.0000       2.278208        61.9932 
 357   0.0000       2.287881        62.2564 
 358   0.0000       2.293496        62.4092 
 359   0.0000       2.307925        62.8018 
 360   0.0000       2.313504        62.9536 
 361   0.0000       2.338929        63.6455 
 362   0.0000       2.358118        64.1677 
 363   0.0000       2.363221        64.3065 
 364   0.0000       2.368094        64.4391 
 365   0.0000       2.370326        64.4998 
 366   0.0000       2.385585        64.9151 
 367   0.0000       2.398273        65.2603 
 368   0.0000       2.422336        65.9151 
 369   0.0000       2.432176        66.1829 
 370   0.0000       2.440887        66.4199 
 371   0.0000       2.454837        66.7995 
 372   0.0000       2.471590        67.2554 
 373   0.0000       2.476479        67.3884 
 374   0.0000       2.492500        67.8244 
 375   0.0000       2.513498        68.3958 
 376   0.0000       2.525351        68.7183 
 377   0.0000       2.528277        68.7979 
 378   0.0000       2.542987        69.1982 
 379   0.0000       2.567134        69.8553 
 380   0.0000       2.574043        70.0433 
 381   0.0000       2.582597        70.2760 
 382   0.0000       2.604851        70.8816 
 383   0.0000       2.607751        70.9605 
 384   0.0000       2.610905        71.0463 
 385   0.0000       2.623411        71.3866 
 386   0.0000       2.628923        71.5366 
 387   0.0000       2.645358        71.9838 
 388   0.0000       2.653467        72.2045 
 389   0.0000       2.665197        72.5237 
 390   0.0000       2.683056        73.0097 
 391   0.0000       2.690160        73.2030 
 392   0.0000       2.697166        73.3936 
 393   0.0000       2.716845        73.9291 
 394   0.0000       2.725458        74.1635 
 395   0.0000       2.739873        74.5557 
 396   0.0000       2.753472        74.9258 
 397   0.0000       2.758742        75.0692 
 398   0.0000       2.768290        75.3290 
 399   0.0000       2.776063        75.5405 
 400   0.0000       2.783059        75.7309 
 401   0.0000       2.789651        75.9103 
 402   0.0000       2.807272        76.3898 
 403   0.0000       2.815525        76.6143 
 404   0.0000       2.817050        76.6558 
 405   0.0000       2.832457        77.0751 
 406   0.0000       2.844960        77.4153 
 407   0.0000       2.851352        77.5892 
 408   0.0000       2.854538        77.6759 
 409   0.0000       2.866467        78.0005 
 410   0.0000       2.871784        78.1452 
 411   0.0000       2.883630        78.4676 
 412   0.0000       2.891513        78.6821 
 413   0.0000       2.896848        78.8272 
 414   0.0000       2.903321        79.0034 
 415   0.0000       2.922203        79.5172 
 416   0.0000       2.933219        79.8169 
 417   0.0000       2.937982        79.9465 
 418   0.0000       2.958696        80.5102 
 419   0.0000       2.960967        80.5720 
 420   0.0000       2.969511        80.8045 
 421   0.0000       2.973491        80.9128 
 422   0.0000       2.988020        81.3082 
 423   0.0000       2.994361        81.4807 
 424   0.0000       2.997276        81.5600 
 425   0.0000       3.010105        81.9091 
 426   0.0000       3.013418        81.9993 
 427   0.0000       3.025986        82.3413 
 428   0.0000       3.032441        82.5169 
 429   0.0000       3.041904        82.7744 
 430   0.0000       3.047807        82.9351 
 431   0.0000       3.048427        82.9519 
 432   0.0000       3.059681        83.2581 
 433   0.0000       3.073902        83.6451 
 434   0.0000       3.082433        83.8773 
 435   0.0000       3.084621        83.9368 
 436   0.0000       3.089040        84.0571 
 437   0.0000       3.097001        84.2737 
 438   0.0000       3.103081        84.4391 
 439   0.0000       3.107267        84.5530 
 440   0.0000       3.120664        84.9176 
 441   0.0000       3.125185        85.0406 
 442   0.0000       3.127903        85.1146 
 443   0.0000       3.136311        85.3434 
 444   0.0000       3.150105        85.7187 
 445   0.0000       3.154330        85.8337 
 446   0.0000       3.164402        86.1078 
 447   0.0000       3.165578        86.1398 
 448   0.0000       3.182922        86.6117 
 449   0.0000       3.190078        86.8064 
 450   0.0000       3.196865        86.9911 
 451   0.0000       3.209792        87.3429 
 452   0.0000       3.210633        87.3658 
 453   0.0000       3.218664        87.5843 
 454   0.0000       3.225188        87.7618 
 455   0.0000       3.231190        87.9251 
 456   0.0000       3.238651        88.1282 
 457   0.0000       3.241488        88.2054 
 458   0.0000       3.255883        88.5971 
 459   0.0000       3.263273        88.7982 
 460   0.0000       3.266168        88.8769 
 461   0.0000       3.272353        89.0452 
 462   0.0000       3.277007        89.1719 
 463   0.0000       3.287168        89.4484 
 464   0.0000       3.291350        89.5622 
 465   0.0000       3.305106        89.9365 
 466   0.0000       3.313021        90.1519 
 467   0.0000       3.319111        90.3176 
 468   0.0000       3.319671        90.3328 
 469   0.0000       3.327526        90.5466 
 470   0.0000       3.334247        90.7295 
 471   0.0000       3.346058        91.0509 
 472   0.0000       3.351420        91.1968 
 473   0.0000       3.355672        91.3125 
 474   0.0000       3.357751        91.3690 
 475   0.0000       3.364290        91.5470 
 476   0.0000       3.373749        91.8044 
 477   0.0000       3.381094        92.0042 
 478   0.0000       3.384995        92.1104 
 479   0.0000       3.390080        92.2488 
 480   0.0000       3.395647        92.4003 
 481   0.0000       3.400074        92.5207 
 482   0.0000       3.409581        92.7794 
 483   0.0000       3.413536        92.8870 
 484   0.0000       3.418042        93.0096 
 485   0.0000       3.421022        93.0907 
 486   0.0000       3.422421        93.1288 
 487   0.0000       3.435518        93.4852 
 488   0.0000       3.442646        93.6792 
 489   0.0000       3.445772        93.7642 
 490   0.0000       3.451360        93.9163 
 491   0.0000       3.454859        94.0115 
 492   0.0000       3.458144        94.1009 
 493   0.0000       3.470842        94.4464 
 494   0.0000       3.474660        94.5503 
 495   0.0000       3.482324        94.7589 
 496   0.0000       3.483394        94.7880 
 497   0.0000       3.491050        94.9963 
 498   0.0000       3.496944        95.1567 
 499   0.0000       3.500020        95.2404 
 500   0.0000       3.516473        95.6881 
 501   0.0000       3.528959        96.0278 
 502   0.0000       3.534247        96.1717 
 503   0.0000       3.538593        96.2900 
 504   0.0000       3.546156        96.4958 
 505   0.0000       3.550437        96.6123 
 506   0.0000       3.562836        96.9497 
 507   0.0000       3.571247        97.1786 
 508   0.0000       3.580157        97.4210 
 509   0.0000       3.588109        97.6374 
 510   0.0000       3.594574        97.8133 
 511   0.0000       3.597002        97.8794 
 512   0.0000       3.609187        98.2110 
 513   0.0000       3.620005        98.5053 
 514   0.0000       3.623650        98.6045 
 515   0.0000       3.630641        98.7948 
 516   0.0000       3.634303        98.8944 
 517   0.0000       3.639644        99.0398 
 518   0.0000       3.644794        99.1799 
 519   0.0000       3.647120        99.2432 
 520   0.0000       3.655358        99.4674 
 521   0.0000       3.660161        99.5980 
 522   0.0000       3.666801        99.7787 
 523   0.0000       3.670584        99.8817 
 524   0.0000       3.678523       100.0977 
 525   0.0000       3.684658       100.2647 
 526   0.0000       3.689536       100.3974 
 527   0.0000       3.696584       100.5892 
 528   0.0000       3.701300       100.7175 
 529   0.0000       3.705788       100.8396 
 530   0.0000       3.714227       101.0693 
 531   0.0000       3.727599       101.4331 
 532   0.0000       3.739667       101.7615 
 533   0.0000       3.742331       101.8340 
 534   0.0000       3.748397       101.9991 
 535   0.0000       3.750964       102.0689 
 536   0.0000       3.758639       102.2778 
 537   0.0000       3.766924       102.5032 
 538   0.0000       3.777038       102.7784 
 539   0.0000       3.779250       102.8386 
 540   0.0000       3.789331       103.1129 
 541   0.0000       3.791707       103.1776 
 542   0.0000       3.800779       103.4245 
 543   0.0000       3.808449       103.6332 
 544   0.0000       3.812841       103.7527 
 545   0.0000       3.822670       104.0201 
 546   0.0000       3.828079       104.1673 
 547   0.0000       3.835838       104.3785 
 548   0.0000       3.839923       104.4896 
 549   0.0000       3.848732       104.7293 
 550   0.0000       3.858581       104.9973 
 551   0.0000       3.869798       105.3025 
 552   0.0000       3.875571       105.4596 
 553   0.0000       3.885739       105.7363 
 554   0.0000       3.892600       105.9230 
 555   0.0000       3.899998       106.1244 
 556   0.0000       3.914548       106.5203 
 557   0.0000       3.916488       106.5731 
 558   0.0000       3.928132       106.8899 
 559   0.0000       3.935873       107.1005 
 560   0.0000       3.948935       107.4560 
 561   0.0000       3.950185       107.4900 
 562   0.0000       3.953214       107.5724 
 563   0.0000       3.970768       108.0501 
 564   0.0000       3.974420       108.1495 
 565   0.0000       3.979556       108.2892 
 566   0.0000       3.986730       108.4845 
 567   0.0000       3.995674       108.7278 
 568   0.0000       4.007114       109.0391 
 569   0.0000       4.013644       109.2168 
 570   0.0000       4.020741       109.4099 
 571   0.0000       4.035077       109.8000 
 572   0.0000       4.046170       110.1019 
 573   0.0000       4.048968       110.1780 
 574   0.0000       4.057413       110.4078 
 575   0.0000       4.073364       110.8419 
 576   0.0000       4.083923       111.1292 
 577   0.0000       4.092653       111.3668 
 578   0.0000       4.097506       111.4988 
 579   0.0000       4.109799       111.8333 
 580   0.0000       4.113737       111.9405 
 581   0.0000       4.118871       112.0802 
 582   0.0000       4.128053       112.3300 
 583   0.0000       4.138444       112.6128 
 584   0.0000       4.143079       112.7389 
 585   0.0000       4.154458       113.0485 
 586   0.0000       4.160373       113.2095 
 587   0.0000       4.169211       113.4500 
 588   0.0000       4.172270       113.5332 
 589   0.0000       4.179697       113.7353 
 590   0.0000       4.183837       113.8480 
 591   0.0000       4.189124       113.9919 
 592   0.0000       4.194550       114.1395 
 593   0.0000       4.199876       114.2844 
 594   0.0000       4.207094       114.4808 
 595   0.0000       4.219291       114.8128 
 596   0.0000       4.225670       114.9863 
 597   0.0000       4.227659       115.0405 
 598   0.0000       4.238876       115.3457 
 599   0.0000       4.248816       115.6162 
 600   0.0000       4.261030       115.9485 
 601   0.0000       4.263335       116.0112 
 602   0.0000       4.271717       116.2393 
 603   0.0000       4.278801       116.4321 
 604   0.0000       4.279582       116.4533 
 605   0.0000       4.290857       116.7602 
 606   0.0000       4.300662       117.0270 
 607   0.0000       4.306513       117.1862 
 608   0.0000       4.314271       117.3973 
 609   0.0000       4.325447       117.7014 
 610   0.0000       4.333966       117.9332 
 611   0.0000       4.344610       118.2228 
 612   0.0000       4.351831       118.4193 
 613   0.0000       4.357450       118.5723 
 614   0.0000       4.366699       118.8239 
 615   0.0000       4.369507       118.9003 
 616   0.0000       4.382026       119.2410 
 617   0.0000       4.387163       119.3808 
 618   0.0000       4.392532       119.5269 
 619   0.0000       4.404402       119.8499 
 620   0.0000       4.405796       119.8878 
 621   0.0000       4.412287       120.0644 
 622   0.0000       4.432292       120.6088 
 623   0.0000       4.440821       120.8409 
 624   0.0000       4.442722       120.8926 
 625   0.0000       4.452861       121.1685 
 626   0.0000       4.459327       121.3445 
 627   0.0000       4.463961       121.4705 
 628   0.0000       4.484851       122.0390 
 629   0.0000       4.495723       122.3348 
 630   0.0000       4.501449       122.4907 
 631   0.0000       4.511906       122.7752 
 632   0.0000       4.522075       123.0519 
 633   0.0000       4.525228       123.1377 
 634   0.0000       4.539934       123.5379 
 635   0.0000       4.545690       123.6945 
 636   0.0000       4.552696       123.8851 
 637   0.0000       4.559243       124.0633 
 638   0.0000       4.568916       124.3265 
 639   0.0000       4.577261       124.5536 
 640   0.0000       4.579250       124.6077 
 641   0.0000       4.592421       124.9661 
 642   0.0000       4.604932       125.3066 
 643   0.0000       4.606700       125.3547 
 644   0.0000       4.613572       125.5417 
 645   0.0000       4.626437       125.8918 
 646   0.0000       4.632663       126.0612 
 647   0.0000       4.635996       126.1519 
 648   0.0000       4.643745       126.3627 
 649   0.0000       4.650513       126.5469 
 650   0.0000       4.660752       126.8255 
 651   0.0000       4.666270       126.9757 
 652   0.0000       4.681205       127.3821 
 653   0.0000       4.686429       127.5242 
 654   0.0000       4.697225       127.8180 
 655   0.0000       4.701594       127.9369 
 656   0.0000       4.715235       128.3081 
 657   0.0000       4.724858       128.5699 
 658   0.0000       4.728445       128.6675 
 659   0.0000       4.739480       128.9678 
 660   0.0000       4.766578       129.7052 
 661   0.0000       4.771945       129.8512 
 662   0.0000       4.777637       130.0061 
 663   0.0000       4.789674       130.3337 
 664   0.0000       4.804441       130.7355 
 665   0.0000       4.835168       131.5716 
 666   0.0000       4.842570       131.7730 
 667   0.0000       4.854942       132.1097 
 668   0.0000       4.882007       132.8462 
 669   0.0000       4.901631       133.3802 
 670   0.0000       4.905449       133.4840 
 671   0.0000       4.920360       133.8898 
 672   0.0000       4.923385       133.9721 
 673   0.0000       4.937506       134.3564 
 674   0.0000       4.953408       134.7891 
 675   0.0000       4.971062       135.2695 
 676   0.0000       5.009325       136.3107 
 677   0.0000       5.015208       136.4707 
 678   0.0000       5.019912       136.5988 
 679   0.0000       5.037629       137.0809 
 680   0.0000       5.049659       137.4082 
 681   0.0000       5.067934       137.9055 
 682   0.0000       5.088854       138.4748 
 683   0.0000       5.094412       138.6260 
 684   0.0000       5.109794       139.0446 
 685   0.0000       5.116243       139.2201 
 686   0.0000       5.136350       139.7672 
 687   0.0000       5.136694       139.7765 
 688   0.0000       5.153937       140.2458 
 689   0.0000       5.166918       140.5990 
 690   0.0000       5.171054       140.7115 
 691   0.0000       5.188976       141.1992 
 692   0.0000       5.193978       141.3353 
 693   0.0000       5.208407       141.7280 
 694   0.0000       5.209086       141.7464 
 695   0.0000       5.224558       142.1674 
 696   0.0000       5.226748       142.2270 
 697   0.0000       5.228280       142.2687 
 698   0.0000       5.237592       142.5221 
 699   0.0000       5.248379       142.8156 
 700   0.0000       5.260855       143.1551 
 701   0.0000       5.273621       143.5025 
 702   0.0000       5.294916       144.0820 
 703   0.0000       5.321859       144.8151 
 704   0.0000       5.327321       144.9638 
 705   0.0000       5.335545       145.1876 
 706   0.0000       5.353129       145.6661 
 707   0.0000       5.365408       146.0002 
 708   0.0000       5.371963       146.1785 
 709   0.0000       5.374339       146.2432 
 710   0.0000       5.384190       146.5113 
 711   0.0000       5.406304       147.1130 
 712   0.0000       5.429828       147.7531 
 713   0.0000       5.456437       148.4772 
 714   0.0000       5.468943       148.8175 
 715   0.0000       5.484260       149.2343 
 716   0.0000       5.499705       149.6546 
 717   0.0000       5.509308       149.9159 
 718   0.0000       5.513244       150.0230 
 719   0.0000       5.524924       150.3408 
 720   0.0000       5.529063       150.4534 
 721   0.0000       5.534941       150.6134 
 722   0.0000       5.552246       151.0843 
 723   0.0000       5.564250       151.4109 
 724   0.0000       5.580940       151.8651 
 725   0.0000       5.601943       152.4366 
 726   0.0000       5.626193       153.0965 
 727   0.0000       5.632744       153.2748 
 728   0.0000       5.635132       153.3397 
 729   0.0000       5.648574       153.7055 
 730   0.0000       5.654712       153.8725 
 731   0.0000       5.663902       154.1226 
 732   0.0000       5.675954       154.4506 
 733   0.0000       5.684589       154.6855 
 734   0.0000       5.699453       155.0900 
 735   0.0000       5.706089       155.2706 
 736   0.0000       5.720190       155.6543 
 737   0.0000       5.730625       155.9382 
 738   0.0000       5.734123       156.0334 
 739   0.0000       5.750985       156.4923 
 740   0.0000       5.754220       156.5803 
 741   0.0000       5.764185       156.8515 
 742   0.0000       5.790666       157.5720 
 743   0.0000       5.814625       158.2240 
 744   0.0000       5.818594       158.3320 
 745   0.0000       5.844777       159.0445 
 746   0.0000       5.876012       159.8944 
 747   0.0000       5.884436       160.1236 
 748   0.0000       5.918164       161.0414 
 749   0.0000       5.938217       161.5871 
 750   0.0000       5.954567       162.0320 
 751   0.0000       5.963136       162.2652 
 752   0.0000       5.976330       162.6242 
 753   0.0000       5.997353       163.1963 
 754   0.0000       6.011992       163.5946 
 755   0.0000       6.025053       163.9500 
 756   0.0000       6.052481       164.6964 
 757   0.0000       6.054899       164.7622 
 758   0.0000       6.082546       165.5145 
 759   0.0000       6.088456       165.6753 
 760   0.0000       6.095542       165.8681 
 761   0.0000       6.174756       168.0237 
 762   0.0000       6.219964       169.2538 
 763   0.0000       6.230960       169.5530 
 764   0.0000       6.239432       169.7836 
 765   0.0000       6.290417       171.1709 
 766   0.0000       6.306076       171.5971 
 767   0.0000       6.327889       172.1906 
 768   0.0000       6.336558       172.4265 
 769   0.0000       6.350191       172.7975 
 770   0.0000       6.377029       173.5278 
 771   0.0000       6.384175       173.7222 
 772   0.0000       6.392609       173.9517 
 773   0.0000       6.408521       174.3847 
 774   0.0000       6.452125       175.5713 
 775   0.0000       6.460571       175.8011 
 776   0.0000       6.501654       176.9190 
 777   0.0000       6.555880       178.3946 
 778   0.0000       6.597163       179.5179 
 779   0.0000       6.657623       181.1631 
 780   0.0000       6.677936       181.7159 
 781   0.0000       6.703841       182.4208 
 782   0.0000       6.727708       183.0702 
 783   0.0000       6.772789       184.2970 
 784   0.0000       6.850941       186.4236 
 785   0.0000       6.877263       187.1398 
 786   0.0000       6.909105       188.0063 
 787   0.0000       6.923551       188.3994 
 788   0.0000       6.971653       189.7083 
 789   0.0000       6.989564       190.1957 
 790   0.0000       7.054050       191.9505 
 791   0.0000       7.061231       192.1459 
 792   0.0000       7.082864       192.7345 
 793   0.0000       7.134892       194.1503 
 794   0.0000       7.248102       197.2309 
 795   0.0000       7.259842       197.5503 
 796   0.0000       7.280214       198.1047 
 797   0.0000       7.284128       198.2112 
 798   0.0000       7.341267       199.7660 
 799   0.0000       7.343380       199.8235 
 800   0.0000       7.406558       201.5427 
 801   0.0000       7.579796       206.2567 
 802   0.0000       7.585012       206.3987 
 803   0.0000       7.602215       206.8668 
 804   0.0000       7.679849       208.9793 
 805   0.0000       7.817985       212.7382 
 806   0.0000       7.823532       212.8891 
 807   0.0000       7.853464       213.7036 
 808   0.0000       7.933649       215.8856 
 809   0.0000       9.393203       255.6020 
 810   0.0000       9.632969       262.1264 
 811   0.0000      10.844465       295.0929 
 812   0.0000      11.311767       307.8088 
 813   0.0000      11.882674       323.3440 
 814   0.0000      12.590547       342.6062 
 815   0.0000      12.935151       351.9834 
 816   0.0000      13.085924       356.0861 
 817   0.0000      13.190292       358.9261 
 818   0.0000      13.293771       361.7419 
 819   0.0000      13.423597       365.2746 
 820   0.0000      13.481736       366.8567 
 821   0.0000      13.764896       374.5619 
 822   0.0000      13.957914       379.8141 
 823   0.0000      13.975338       380.2883 
 824   0.0000      14.045812       382.2060 
 825   0.0000      14.555480       396.0748 
 826   0.0000      14.659763       398.9124 
 827   0.0000      15.998984       435.3545 

                    ********************************
                    * MULLIKEN POPULATION ANALYSIS *
                    ********************************

-----------------------
MULLIKEN ATOMIC CHARGES
-----------------------
   0 C :   -0.264856
   1 C :    0.020957
   2 O :   -0.377817
   3 C :    0.472363
   4 O :   -0.393197
   5 C :   -0.224985
   6 C :    0.148500
   7 C :   -0.283378
   8 N :   -0.123951
   9 C :    0.200342
  10 S :   -0.437448
  11 N :   -0.202773
  12 C :    0.059552
  13 C :    0.051490
  14 C :   -0.173689
  15 C :   -0.132858
  16 C :   -0.278161
  17 C :    0.324080
  18 O :   -0.360078
  19 C :   -0.306170
  20 H :    0.112863
  21 H :    0.099302
  22 H :    0.087939
  23 H :    0.108208
  24 H :    0.096835
  25 H :    0.128818
  26 H :    0.107207
  27 H :    0.122498
  28 H :    0.197342
  29 H :    0.194666
  30 H :    0.156465
  31 H :    0.161109
  32 H :    0.162964
  33 H :    0.131612
  34 H :    0.241229
  35 H :    0.173022
Sum of atomic charges:    0.0000000

--------------------------------
MULLIKEN REDUCED ORBITAL CHARGES
--------------------------------
  0 C s       :     3.252141  s :     3.252141
      pz      :     1.025571  p :     2.935958
      px      :     1.008765
      py      :     0.901622
      dz2     :     0.015683  d :     0.072287
      dxz     :     0.011427
      dyz     :     0.014965
      dx2y2   :     0.018886
      dxy     :     0.011325
      f0      :     0.001023  f :     0.004471
      f+1     :     0.000055
      f-1     :     0.000809
      f+2     :     0.000688
      f-2     :     0.000094
      f+3     :     0.000431
      f-3     :     0.001370
  1 C s       :     3.170142  s :     3.170142
      pz      :     0.902176  p :     2.639188
      px      :     0.802056
      py      :     0.934955
      dz2     :     0.029851  d :     0.157925
      dxz     :     0.028534
      dyz     :     0.026322
      dx2y2   :     0.034449
      dxy     :     0.038769
      f0      :     0.001412  f :     0.011788
      f+1     :     0.001774
      f-1     :     0.000955
      f+2     :     0.002114
      f-2     :     0.001504
      f+3     :     0.001930
      f-3     :     0.002101
  2 O s       :     3.719519  s :     3.719519
      pz      :     1.612623  p :     4.623525
      px      :     1.189595
      py      :     1.821308
      dz2     :     0.004273  d :     0.032479
      dxz     :     0.013365
      dyz     :     0.003461
      dx2y2   :     0.006195
      dxy     :     0.005184
      f0      :     0.000193  f :     0.002295
      f+1     :     0.000224
      f-1     :     0.000048
      f+2     :     0.000551
      f-2     :     0.000294
[...]
 15 C s       :     2.705761  s :     2.705761
      pz      :     0.889871  p :     2.794628
      px      :     0.938643
      py      :     0.966114
      dz2     :     0.085825  d :     0.415710
      dxz     :     0.071652
      dyz     :     0.054796
      dx2y2   :     0.117932
      dxy     :     0.085505
      f0      :     0.003079  f :     0.041020
      f+1     :     0.005046
      f-1     :     0.005679
      f+2     :     0.007135
      f-2     :     0.006106
      f+3     :     0.007539
      f-3     :     0.006435
 16 C s       :     2.701850  s :     2.701850
      pz      :     0.933092  p :     2.868240
      px      :     0.960897
      py      :     0.974251
      dz2     :     0.039994  d :     0.391037
      dxz     :     0.058002
      dyz     :     0.084094
      dx2y2   :     0.098399
      dxy     :     0.110548
      f0      :     0.003927  f :     0.040346
      f+1     :     0.004205
      f-1     :     0.004206
      f+2     :     0.006362
      f-2     :     0.004762
      f+3     :     0.009693
      f-3     :     0.007191
 17 C s       :     2.701497  s :     2.701497
      pz      :     0.851255  p :     2.684876
      px      :     0.825420
      py      :     1.008200
      dz2     :     0.119069  d :     0.709200
      dxz     :     0.106571
      dyz     :     0.135863
      dx2y2   :     0.170098
      dxy     :     0.177598
      f0      :     0.008362  f :     0.099342
      f+1     :     0.015119
      f-1     :     0.009444
      f+2     :     0.016215
      f-2     :     0.013460
      f+3     :     0.019971
      f-3     :     0.016771
 18 O s       :     3.177263  s :     3.177263
      pz      :     1.447526  p :     4.348334
      px      :     1.391112
      py      :     1.509695
      dz2     :     0.007590  d :     0.075587
      dxz     :     0.016960
      dyz     :     0.017171
      dx2y2   :     0.015036
      dxy     :     0.018829
      f0      :     0.000566  f :     0.005074
      f+1     :     0.000710
      f-1     :     0.000404
      f+2     :     0.000599
      f-2     :     0.000999
      f+3     :     0.000843
      f-3     :     0.000954
 19 C s       :     2.695552  s :     2.695552
      pz      :     0.928528  p :     2.847298
      px      :     0.954548
      py      :     0.964222
      dz2     :     0.070433  d :     0.388997
      dxz     :     0.069593
      dyz     :     0.055818
      dx2y2   :     0.103732
      dxy     :     0.089422
      f0      :     0.003186  f :     0.040815
      f+1     :     0.005126
      f-1     :     0.005198
      f+2     :     0.007179
      f-2     :     0.006583
      f+3     :     0.007473
      f-3     :     0.006070
 20 H s       :     0.845025  s :     0.845025
      pz      :     0.047453  p :     0.153755
      px      :     0.061641
      py      :     0.044660
      dz2     :     0.005774  d :     0.027593
      dxz     :     0.006058
      dyz     :     0.003112
      dx2y2   :     0.006772
      dxy     :     0.005877
 21 H s       :     0.847627  s :     0.847627
      pz      :     0.069935  p :     0.149843
      px      :     0.039270
      py      :     0.040637
      dz2     :     0.008681  d :     0.027567
      dxz     :     0.008746
      dyz     :     0.008266
      dx2y2   :     0.001288
      dxy     :     0.000587
 22 H s       :     0.850020  s :     0.850020
      pz      :     0.045803  p :     0.152027
      px      :     0.063395
      py      :     0.042829
      dz2     :     0.004894  d :     0.027495
      dxz     :     0.006884
      dyz     :     0.002007
      dx2y2   :     0.007018
      dxy     :     0.006692
 23 H s       :     0.854816  s :     0.854816
      pz      :     0.039825  p :     0.143958
      px      :     0.059359
      py      :     0.044774
      dz2     :     0.004433  d :     0.026854
      dxz     :     0.006813
      dyz     :     0.001648
      dx2y2   :     0.006803
      dxy     :     0.007157
 24 H s       :     0.856772  s :     0.856772
      pz      :     0.078517  p :     0.149603
      px      :     0.028394
      py      :     0.042693
      dz2     :     0.009715  d :     0.026933
      dxz     :     0.007064
      dyz     :     0.008392
      dx2y2   :     0.001361
      dxy     :     0.000402
 25 H s       :     0.829101  s :     0.829101
      pz      :     0.061740  p :     0.149733
      px      :     0.042045
      py      :     0.045947
      dz2     :     0.008663  d :     0.027667
      dxz     :     0.006744
      dyz     :     0.006647
      dx2y2   :     0.003579
      dxy     :     0.002033
 26 H s       :     0.841292  s :     0.841292
      pz      :     0.037505  p :     0.149948
      px      :     0.039866
      py      :     0.072577
      dz2     :     0.002413  d :     0.027677
      dxz     :     0.000259
      dyz     :     0.009185
      dx2y2   :     0.007016
      dxy     :     0.008803
 27 H s       :     0.831357  s :     0.831357
      pz      :     0.038182  p :     0.151537
      px      :     0.072388
      py      :     0.040966
      dz2     :     0.002427  d :     0.027705
      dxz     :     0.008722
      dyz     :     0.000258
      dx2y2   :     0.007840
      dxy     :     0.008457
 28 H s       :     0.742848  s :     0.742848
      pz      :     0.059084  p :     0.253769
      px      :     0.081512
      py      :     0.113173
      dz2     :     0.006304  d :     0.061779
      dxz     :     0.002321
      dyz     :     0.016986
      dx2y2   :     0.016658
      dxy     :     0.019510
 29 H s       :     0.748520  s :     0.748520
      pz      :     0.113357  p :     0.254116
      px      :     0.098367
      py      :     0.042392
      dz2     :     0.021503  d :     0.061316
      dxz     :     0.015949
      dyz     :     0.010266
      dx2y2   :     0.008088
      dxy     :     0.005509
 30 H s       :     0.827766  s :     0.827766
      pz      :     0.039794  p :     0.148295
      px      :     0.063920
      py      :     0.044581
      dz2     :     0.003008  d :     0.028287
      dxz     :     0.007061
      dyz     :     0.003223
      dx2y2   :     0.007343
      dxy     :     0.007651
 31 H s       :     0.840567  s :     0.840567
      pz      :     0.051906  p :     0.155987
      px      :     0.065064
      py      :     0.039017
      dz2     :     0.004833  d :     0.027456
      dxz     :     0.006563
      dyz     :     0.003415
      dx2y2   :     0.006264
      dxy     :     0.006382
 32 H s       :     0.842251  s :     0.842251
      pz      :     0.037537  p :     0.151143
      px      :     0.037629
      py      :     0.075977
      dz2     :     0.002683  d :     0.026453
      dxz     :     0.000570
      dyz     :     0.007417
      dx2y2   :     0.007763
      dxy     :     0.008020
 33 H s       :     0.848492  s :     0.848492
      pz      :     0.058067  p :     0.158980
      px      :     0.051542
      py      :     0.049372
      dz2     :     0.005973  d :     0.027749
      dxz     :     0.005182
      dyz     :     0.005522
      dx2y2   :     0.005792
      dxy     :     0.005279
 34 H s       :     0.706349  s :     0.706349
      pz      :     0.117842  p :     0.347656
      px      :     0.087743
      py      :     0.142071
      dz2     :     0.024363  d :     0.099509
      dxz     :     0.012862
      dyz     :     0.023393
      dx2y2   :     0.019857
      dxy     :     0.019034
 35 H s       :     0.839091  s :     0.839091
      pz      :     0.041399  p :     0.157611
      px      :     0.039237
      py      :     0.076976
      dz2     :     0.002709  d :     0.028068
      dxz     :     0.000707
      dyz     :     0.008217
      dx2y2   :     0.007948
      dxy     :     0.008488


                      *****************************
                      * MAYER POPULATION ANALYSIS *
                      *****************************

  NA   - Mulliken gross atomic population
  ZA   - Total nuclear charge
  QA   - Mulliken gross atomic charge
  VA   - Mayer's total valence
  BVA  - Mayer's bonded valence
  FA   - Mayer's free valence

  ATOM       NA         ZA         QA         VA         BVA        FA
  0 C      6.2649     6.0000    -0.2649     3.8841     3.8841    -0.0000
  1 C      5.9790     6.0000     0.0210     3.8800     3.8800     0.0000
  2 O      8.3778     8.0000    -0.3778     1.9683     1.9683    -0.0000
  3 C      5.5276     6.0000     0.4724     4.1863     4.1863    -0.0000
  4 O      8.3932     8.0000    -0.3932     2.1070     2.1070     0.0000
  5 C      6.2250     6.0000    -0.2250     3.6098     3.6098    -0.0000
  6 C      5.8515     6.0000     0.1485     3.8316     3.8316    -0.0000
  7 C      6.2834     6.0000    -0.2834     3.8987     3.8987     0.0000
  8 N      7.1240     7.0000    -0.1240     3.2864     3.2864    -0.0000
  9 C      5.7997     6.0000     0.2003     4.1550     4.1550     0.0000
 10 S     16.4374    16.0000    -0.4374     1.7578     1.7578    -0.0000
 11 N      7.2028     7.0000    -0.2028     3.2596     3.2596     0.0000
 12 C      5.9404     6.0000     0.0596     3.9550     3.9550     0.0000
 13 C      5.9485     6.0000     0.0515     3.7244     3.7244     0.0000
 14 C      6.1737     6.0000    -0.1737     3.8643     3.8643     0.0000
 15 C      6.1329     6.0000    -0.1329     3.8082     3.8082    -0.0000
 16 C      6.2782     6.0000    -0.2782     3.7932     3.7932    -0.0000
 17 C      5.6759     6.0000     0.3241     3.8625     3.8625     0.0000
 18 O      8.3601     8.0000    -0.3601     2.1144     2.1144    -0.0000
 19 C      6.3062     6.0000    -0.3062     3.8255     3.8255     0.0000
 20 H      0.8871     1.0000     0.1129     0.9892     0.9892     0.0000
 21 H      0.9007     1.0000     0.0993     0.9869     0.9869     0.0000
 22 H      0.9121     1.0000     0.0879     0.9820     0.9820    -0.0000
 23 H      0.8918     1.0000     0.1082     0.9735     0.9735     0.0000
 24 H      0.9032     1.0000     0.0968     0.9719     0.9719    -0.0000
 25 H      0.8712     1.0000     0.1288     0.9810     0.9810     0.0000
 26 H      0.8928     1.0000     0.1072     0.9859     0.9859    -0.0000
 27 H      0.8775     1.0000     0.1225     0.9741     0.9741    -0.0000
 28 H      0.8027     1.0000     0.1973     1.0223     1.0223     0.0000
 29 H      0.8053     1.0000     0.1947     1.0178     1.0178     0.0000
 30 H      0.8435     1.0000     0.1565     0.9955     0.9955    -0.0000
 31 H      0.8389     1.0000     0.1611     0.9871     0.9871     0.0000
 32 H      0.8370     1.0000     0.1630     0.9765     0.9765    -0.0000
 33 H      0.8684     1.0000     0.1316     0.9910     0.9910    -0.0000
 34 H      0.7588     1.0000     0.2412     1.0104     1.0104    -0.0000
 35 H      0.8270     1.0000     0.1730     0.9850     0.9850     0.0000

  Mayer bond orders larger than 0.100000
B(  0-C ,  1-C ) :   0.9869 B(  0-C , 20-H ) :   0.9702 B(  0-C , 21-H ) :   0.9765 
B(  0-C , 22-H ) :   0.9752 B(  1-C ,  2-O ) :   0.8927 B(  1-C , 23-H ) :   0.9807 
B(  1-C , 24-H ) :   0.9648 B(  2-O ,  3-C ) :   1.0890 B(  3-C ,  4-O ) :   2.0410 
B(  3-C ,  5-C ) :   1.0063 B(  5-C ,  6-C ) :   1.6658 B(  5-C , 12-C ) :   0.9602 
B(  6-C ,  7-C ) :   0.9529 B(  6-C ,  8-N ) :   1.1414 B(  7-C , 25-H ) :   0.9690 
B(  7-C , 26-H ) :   0.9873 B(  7-C , 27-H ) :   0.9646 B(  8-N ,  9-C ) :   1.1829 
B(  8-N , 28-H ) :   0.9494 B(  9-C , 10-S ) :   1.6136 B(  9-C , 11-N ) :   1.2989 
B( 11-N , 12-C ) :   0.9941 B( 11-N , 29-H ) :   0.9516 B( 12-C , 13-C ) :   0.9435 
B( 12-C , 30-H ) :   0.9989 B( 13-C , 14-C ) :   1.3793 B( 13-C , 19-C ) :   1.3526 
B( 14-C , 15-C ) :   1.3940 B( 14-C , 31-H ) :   0.9619 B( 15-C , 16-C ) :   1.3640 
B( 15-C , 32-H ) :   0.9700 B( 16-C , 17-C ) :   1.3314 B( 16-C , 33-H ) :   0.9844 
B( 17-C , 18-O ) :   1.1096 B( 17-C , 19-C ) :   1.3647 B( 18-O , 34-H ) :   0.9796 
B( 19-C , 35-H ) :   0.9591 

-------
TIMINGS
-------

Total SCF time: 0 days 1 hours 34 min 13 sec 

Total time                  ....    5653.960 sec
Sum of individual times     ....    5647.637 sec  ( 99.9%)

Fock matrix formation       ....    5630.841 sec  ( 99.6%)
Diagonalization             ....       1.383 sec  (  0.0%)
Density matrix formation    ....       0.206 sec  (  0.0%)
Population analysis         ....       0.270 sec  (  0.0%)
Initial guess               ....       5.732 sec  (  0.1%)
Orbital Transformation      ....       0.000 sec  (  0.0%)
Orbital Orthonormalization  ....       0.000 sec  (  0.0%)
DIIS solution               ....       3.537 sec  (  0.1%)
SOSCF solution              ....       4.142 sec  (  0.1%)

Maximum memory used throughout the entire SCF-calculation: 752.7 MB

------------------------------------------------------------------------------
                                ORCA  MP2 
------------------------------------------------------------------------------

Freezing NCore=48 chemical core electrons

-------------
RI-MP2 ENERGY
-------------
Dimension of the basis                    ...  828
Memory devoted to MP2                     ...  256 MB   
Data format for buffers                   ... DOUBLE
Compression type for matrix containers    ... UNCOMPRESSED
Overall scaling of the MP2 energy         ...   1.000e+00
Calculating two index integrals           ... done (    0.039 sec)
Cholesky decomposition of V**-1           ... done (    0.479 sec)

-----------------
RI-TRANSFORMATION (AUX index driven)
-----------------

Dimension of the orbital-basis         ... 828
Dimension of the aux-basis             ... 2141
Transformation of internal/external MOs...   24-  76 to   77- 827
Number Format for Storage              ... Double (8 Byte)
Integral mode                          ... Direct

First Phase: integral generation and transformation of MO indices
  Aux angular momentum 0               ... done (    3.838 sec)
  Aux angular momentum 1               ... done (    7.517 sec)
  Aux angular momentum 2               ... done (    8.844 sec)
  Aux angular momentum 3               ... done (    6.678 sec)
  Aux angular momentum 4               ... done (    2.260 sec)
Closing buffer VIA ( 0.63 GB; CompressionRatio= 1.00)
  Phase 1 completed in    29.491 sec
Second Phase: sorting and transformation of aux index

IA-Transformation
Memory available                       ... 156 MB 
Max. # MO pairs treated in a batch     ... 11    
# of internal orbitals                 ... 53
# batches for internal orbitals        ... 5
Closing buffer IAV ( 0.63 GB; CompressionRatio= 1.00)
(ia|v) transformation done in    30.156 sec

  Phase 2 completed in    30.171 sec
RI-Integral transformation completed in    60.041 sec
Opening buffers                              ... done

Starting loop over batches of integrals:

Operator 0  - window                       ... ( 24- 76)x( 77-827)
Operator 0  - Memory available             ...   256 MB
Operator 0  - Memory needed per MO         ...  12.3 MB
Operator 0  - Number of orbitals per batch ... 13
Operator 0  - Number of batches            ... 5

OPERATOR  0   PASS   0:  MOs    24 ...   36
  Reading integrals       ... ok
  Internal MO  26
  Internal MO  29
  Internal MO  32
  Internal MO  35
OPERATOR  0   PASS   1:  MOs    37 ...   49
  Reading integrals       ... ok
  Internal MO  38
  Internal MO  41
  Internal MO  44
  Internal MO  47
OPERATOR  0   PASS   2:  MOs    50 ...   62
  Reading integrals       ... ok
  Internal MO  50
  Internal MO  53
  Internal MO  56
  Internal MO  59
  Internal MO  62
OPERATOR  0   PASS   3:  MOs    63 ...   75
  Reading integrals       ... ok
  Internal MO  65
  Internal MO  68
  Internal MO  71
  Internal MO  74
OPERATOR  0   PASS   4:  MOs    76 ...   76
  Reading integrals       ... ok
Time spent in pair loops =   141.131 sec
Deleting buffer (Ka|jb)[aa] ...done

-----------------------------------------------
 RI-MP2 CORRELATION ENERGY:     -3.534604222 Eh
-----------------------------------------------


-------
TIMINGS
-------

Total time                :  201.858 sec
Integral trafo            :   60.071 sec ( 29.8%)
I/O of integrals          :    3.305 sec (  1.6%)
K(i,j) Operators          :   83.725 sec ( 41.5%)
T(i,j) pair energies      :    3.538 sec (  1.8%)
V-calculation             :    0.039 sec (  0.0%)
V**(-1/2)                 :    0.479 sec (  0.2%)
Gamma(ia|P)               :    0.000 sec (  0.0%)
Gamma-Trafo               :    0.000 sec (  0.0%)
D(virtual)                :    0.000 sec (  0.0%)
D(internal)               :    0.000 sec (  0.0%)
W(virtual)                :    0.000 sec (  0.0%)
W(internal)               :    0.000 sec (  0.0%)
L(virtual)                :    0.000 sec (  0.0%)
L(internal)               :    0.000 sec (  0.0%)
G(D)                      :    0.000 sec (  0.0%)
G(Z)                      :    0.000 sec (  0.0%)
Z-Vector Solution         :    0.000 sec (  0.0%)
3-Index Derivative        :    0.000 sec (  0.0%)
2-Index Derivative        :    0.000 sec (  0.0%)
Separable Gradient        :    0.000 sec (  0.0%)


---------------------------------------
MP2 TOTAL ENERGY:    -1274.326983251 Eh
---------------------------------------

Maximum memory used throughout the entire MP2-calculation: 305.6 MB

-------------------------   --------------------
FINAL SINGLE POINT ENERGY     -1274.326983251315
-------------------------   --------------------


                            ***************************************
                            *     ORCA property calculations      *
                            ***************************************


  WARNING: The energy has been calculated at the MP2 level but the densities
           used in the property calculations are still SCF densities
           MP2 response densities have not been calculated 
           use %mp2 Density relaxed end
           or  %mp2 Density unrelaxed end

                                    ---------------------
                                    Active property flags
                                    ---------------------
   (+) Dipole Moment


------------------------------------------------------------------------------
                       ORCA ELECTRIC PROPERTIES CALCULATION
------------------------------------------------------------------------------

Dipole Moment Calculation                       ... on
Quadrupole Moment Calculation                   ... off
Polarizability Calculation                      ... off
GBWName                                         ... CONFS/Conf257.orca.gbw
Electron density file                           ... CONFS/Conf257.orca.scfp
The origin for moment calculation is the CENTER OF MASS  = (32.863933, 31.502981 35.238996)

-------------
DIPOLE MOMENT
-------------
                                X             Y             Z
Electronic contribution:     10.39833       9.97619       6.58814
Nuclear contribution   :    -11.84655     -10.99910      -7.01865
                        -----------------------------------------
Total Dipole Moment    :     -1.44822      -1.02291      -0.43051
                        -----------------------------------------
Magnitude (a.u.)       :      1.82456
Magnitude (Debye)      :      4.63767



--------------------
Rotational spectrum 
--------------------
 
Rotational constants in cm-1:     0.012273     0.009157     0.006595 
Rotational constants in MHz :   367.944988   274.507103   197.699752 

 Dipole components along the rotational axes: 
x,y,z [a.u.] :    -1.548707     0.426041     0.865463 
x,y,z [Debye]:    -3.936500     1.082911     2.199832 

 

Timings for individual modules:

Sum of individual times         ...     5860.566 sec (=  97.676 min)
GTO integral calculation        ...        4.018 sec (=   0.067 min)   0.1 %
SCF iterations                  ...     5654.047 sec (=  94.234 min)  96.5 %
MP2 module                      ...      202.502 sec (=   3.375 min)   3.5 %
                             ****ORCA TERMINATED NORMALLY****
TOTAL RUN TIME: 0 days 1 hours 37 minutes 42 seconds 519 msec
