
                                 *****************
                                 * O   R   C   A *
                                 *****************

           --- An Ab Initio, DFT and Semiempirical electronic structure package ---

                  #######################################################
                  #                        -***-                        #
                  #          Department of theory and spectroscopy      #
                  #               Directorship: Frank Neese             #
                  #        Max Planck Institute fuer Kohlenforschung    #
                  #                Kaiser Wilhelm Platz 1               #
                  #                 D-45470 Muelheim/Ruhr               #
                  #                      Germany                        #
                  #                                                     #
                  #                  All rights reserved                #
                  #                        -***-                        #
                  #######################################################


                         Program Version 4.2.0 -  RELEASE  -


 With contributions from (in alphabetic order):
   Daniel Aravena         : Magnetic Suceptibility
   Michael Atanasov       : Ab Initio Ligand Field Theory (pilot matlab implementation)
   Alexander A. Auer      : GIAO ZORA, VPT2
   Ute Becker             : Parallelization
   Giovanni Bistoni       : ED, misc. LED, open-shell LED, HFLED
   Martin Brehm           : Molecular dynamics
   Dmytro Bykov           : SCF Hessian
   Vijay G. Chilkuri      : MRCI spin determinant printing, contributions to CSF-ICE
   Dipayan Datta          : RHF DLPNO-CCSD density
   Achintya Kumar Dutta   : EOM-CC, STEOM-CC
   Dmitry Ganyushin       : Spin-Orbit,Spin-Spin,Magnetic field MRCI
   Miquel Garcia          : C-PCM Hessian, Gaussian charge scheme
   Yang Guo               : DLPNO-NEVPT2, CIM, IAO-localization
   Andreas Hansen         : Spin unrestricted coupled pair/coupled cluster methods
   Benjamin Helmich-Paris : CASSCF linear response (MC-RPA)
   Lee Huntington         : MR-EOM, pCC
   Robert Izsak           : Overlap fitted RIJCOSX, COSX-SCS-MP3, EOM
   Christian Kollmar      : KDIIS, OOCD, Brueckner-CCSD(T), CCSD density
   Simone Kossmann        : Meta GGA functionals, TD-DFT gradient, OOMP2, MP2 Hessian
   Martin Krupicka        : AUTO-CI
   Lucas Lang             : DCDCAS
   Dagmar Lenk            : GEPOL surface, SMD
   Dimitrios Liakos       : Extrapolation schemes; Compound Job, initial MDCI parallelization
   Dimitrios Manganas     : Further ROCIS development; embedding schemes
   Dimitrios Pantazis     : SARC Basis sets
   Taras Petrenko         : DFT Hessian,TD-DFT gradient, ASA, ECA, R-Raman, ABS, FL, XAS/XES, NRVS
   Peter Pinski           : DLPNO-MP2, DLPNO-MP2 Gradient
   Christoph Reimann      : Effective Core Potentials
   Marius Retegan         : Local ZFS, SOC
   Christoph Riplinger    : Optimizer, TS searches, QM/MM, DLPNO-CCSD(T), (RO)-DLPNO pert. Triples
   Tobias Risthaus        : Range-separated hybrids, TD-DFT gradient, RPA, STAB
   Michael Roemelt        : Original ROCIS implementation
   Masaaki Saitow         : Open-shell DLPNO-CCSD energy and density
   Barbara Sandhoefer     : DKH picture change effects
   Avijit Sen             : IP-ROCIS
   Kantharuban Sivalingam : CASSCF convergence, NEVPT2, FIC-MRCI
   Bernardo de Souza      : ESD, SOC TD-DFT
   Georgi Stoychev        : AutoAux, RI-MP2 NMR
   Willem Van den Heuvel  : Paramagnetic NMR
   Boris Wezisla          : Elementary symmetry handling
   Frank Wennmohs         : Technical directorship


 We gratefully acknowledge several colleagues who have allowed us to
 interface, adapt or use parts of their codes:
   Stefan Grimme, W. Hujo, H. Kruse,             : VdW corrections, initial TS optimization,
                  C. Bannwarth                     DFT functionals, gCP, sTDA/sTD-DF
   Ed Valeev, F. Pavosevic, A. Kumar             : LibInt (2-el integral package), F12 methods
   Garnet Chan, S. Sharma, J. Yang, R. Olivares  : DMRG
   Ulf Ekstrom                                   : XCFun DFT Library
   Mihaly Kallay                                 : mrcc  (arbitrary order and MRCC methods)
   Andreas Klamt, Michael Diedenhofen            : otool_cosmo (COSMO solvation model)
   Jiri Pittner, Ondrej Demel                    : Mk-CCSD
   Frank Weinhold                                : gennbo (NPA and NBO analysis)
   Christopher J. Cramer and Donald G. Truhlar   : smd solvation model
   Lars Goerigk                                  : TD-DFT with DH, B97 family of functionals
   V. Asgeirsson, H. Jonsson                     : NEB implementation
   FAccTs GmbH                                   : IRC, NEB, NEB-TS, Multilevel, MM, QM/MM, CI optimization
   S Lehtola, MJT Oliveira, MAL Marques          : LibXC Library


 Your calculation uses the libint2 library for the computation of 2-el integrals
 For citations please refer to: http://libint.valeyev.net

 Your ORCA version has been built with support for libXC version: 4.2.3
 For citations please refer to: https://tddft.org/programs/libxc/

 This ORCA versions uses:
   CBLAS   interface :  Fast vector & matrix operations
   LAPACKE interface :  Fast linear algebra routines
   SCALAPACK package :  Parallel linear algebra routines


----- Orbital basis set information -----
Your calculation utilizes the basis: cc-pVTZ 
       H, B-Ne : Obtained from the ccRepo (grant-hill.group.shef.ac.uk/ccrepo) Feb. 2017
                 T. H. Dunning, Jr., J. Chem. Phys. 90, 1007 (1989)
            He : Obtained from the ccRepo (grant-hill.group.shef.ac.uk/ccrepo) Feb. 2017
                 D. E. Woon, T. H. Dunning, Jr., J. Chem. Phys. 100, 2975 (1994)
  Li-Be, Na-Mg : Obtained from the ccRepo (grant-hill.group.shef.ac.uk/ccrepo) Feb. 2017
                 B. P. Prascher, D. E. Woon, K. A. Peterson, T. H. Dunning, Jr., A. K. Wilson, Theor. Chem. Acc. 128, 69 (2011)
         Al-Ar : Obtained from the ccRepo (grant-hill.group.shef.ac.uk/ccrepo) Feb. 2017
                 D. E. Woon, T. H. Dunning, Jr., J. Chem. Phys. 98, 1358 (1993)
            Ca : Obtained from the Peterson Research Group Website (tyr0.chem.wsu.edu/~kipeters) Feb. 2017
                 J. Koput, K. A. Peterson, J. Phys. Chem. 106, 9595 (2002)
         Sc-Zn : Obtained from the ccRepo (grant-hill.group.shef.ac.uk/ccrepo) Feb. 2017
                 N. B. Balabanov, K. A. Peterson, J. Chem. Phys. 123, 064107 (2005)
                 N. B. Balabanov, K. A. Peterson, J. Chem. Phys. 125, 074110 (2006)
         Ga-Kr : Obtained from the ccRepo (grant-hill.group.shef.ac.uk/ccrepo) Feb. 2017
                 A. K. Wilson, D. E. Woon, K. A. Peterson, T. H. Dunning, Jr., J. Chem. Phys. 110, 7667 (1999)
             Y : Obtained from the ccRepo (grant-hill.group.shef.ac.uk/ccrepo) Feb. 2017
                 K. A. Peterson, D. Figgen, M. Dolg, H. Stoll, J. Chem. Phys. 126, 124101 (2007)
        Ag, Au : Obtained from the Peterson Research Group Website (tyr0.chem.wsu.edu/~kipeters) Feb. 2017
                 K. A. Peterson, C. Puzzarini, Theor. Chem. Acc. 114, 283 (2005)

----- AuxC basis set information -----
Your calculation utilizes the auxiliary basis: cc-pVTZ/C 
  Obtained from the EMSL Basis Set Exchange (bse.pnl.gov) Feb. 2017
  H-He, B-F, Al-Ar, Ga-Kr : F. Weigend, A. Kohn, C. Hattig, J. Chem. Phys. 116, 3175 (2002)
             Li-Be, Na-Mg : C. Haettig, Phys. Chem. Chem. Phys. 7, 59 (2005)
                       Ne : C. Haettig, Phys. Chem. Chem. Phys. 7, 59 (2005)
                            F. Weigend, A. Kohn, C. Hattig, J. Chem. Phys. 116, 3175 (2002)
                    Sc-Zn : J. G. Hill, J. A. Platts, J. Chem. Phys. 128, 044104 (2008)

================================================================================
                                        WARNINGS
                       Please study these warnings very carefully!
================================================================================


WARNING: No MP2 level density has been requested!
         To caclulate MP2 level properties use
         %mp2 Density relaxed end
         or
         %mp2 Density unrelaxed end

WARNING: Post HF methods need fully converged wavefunctions
  ===> : Setting SCFConvForced true
         You can overwrite this default with %scf ConvForced false 


INFO   : the flag for use of LIBINT has been found!

================================================================================
                                       INPUT FILE
================================================================================
NAME = CONFS/Conf272.orca
|  1> ! ri-mp2 cc-pvtz cc-pvtz/c TightSCF  NoKeepInts
|  2> 
|  3> %scf
|  4>   MaxCore 4096
|  5> end
|  6> *xyz  0  1
|  7>     C       15.3603753   14.5135859   17.3151298
|  8>     C       16.3836179   14.1870500   16.2124948
|  9>     O       17.6242561   14.8986189   16.4177241
| 10>     C       17.6720983   16.2204347   16.0769312
| 11>     O       17.2300321   16.5842836   15.0009898
| 12>     C       17.7599029   17.1271885   17.2743209
| 13>     C       17.3187366   18.4116509   17.2568187
| 14>     C       16.5547636   19.1101414   16.1523814
| 15>     N       17.6176475   19.2651169   18.3239327
| 16>     C       18.5435156   18.9908411   19.2962863
| 17>     S       19.0098777   20.1230411   20.4080368
| 18>     N       19.0728633   17.7245853   19.2911167
| 19>     C       18.5414454   16.6044905   18.4920701
| 20>     C       17.7332923   15.6866790   19.4036455
| 21>     C       18.1595463   14.3651545   19.6367099
| 22>     C       17.4486592   13.5277237   20.5131699
| 23>     C       16.3038778   14.0159839   21.1660984
| 24>     C       15.8792747   15.3327215   20.9411685
| 25>     O       14.7736954   15.8067558   21.5684309
| 26>     C       16.5887446   16.1638883   20.0686787
| 27>     H       15.6795464   14.0947191   18.2742246
| 28>     H       14.3872282   14.0716560   17.0699403
| 29>     H       15.2204980   15.5955836   17.4260170
| 30>     H       16.5816684   13.1077076   16.2286545
| 31>     H       15.9619059   14.4283477   15.2270235
| 32>     H       15.6813752   18.5177268   15.8517466
| 33>     H       17.1882869   19.2326021   15.2644939
| 34>     H       16.1923593   20.1026804   16.4443984
| 35>     H       17.2497583   20.2031039   18.3289081
| 36>     H       19.7334224   17.5405368   20.0352609
| 37>     H       19.4004092   16.0341167   18.1114606
| 38>     H       19.0454963   13.9846815   19.1352232
| 39>     H       17.7865038   12.5071946   20.6853198
| 40>     H       15.7520674   13.3732916   21.8442271
| 41>     H       14.4598797   15.1147210   22.1697874
| 42>     H       16.2503717   17.1833954   19.9211790
| 43> *
| 44> 
| 45>                          ****END OF INPUT****
================================================================================

                       ****************************
                       * Single Point Calculation *
                       ****************************

---------------------------------
CARTESIAN COORDINATES (ANGSTROEM)
---------------------------------
  C     15.360375   14.513586   17.315130
  C     16.383618   14.187050   16.212495
  O     17.624256   14.898619   16.417724
  C     17.672098   16.220435   16.076931
  O     17.230032   16.584284   15.000990
  C     17.759903   17.127188   17.274321
  C     17.318737   18.411651   17.256819
  C     16.554764   19.110141   16.152381
  N     17.617647   19.265117   18.323933
  C     18.543516   18.990841   19.296286
  S     19.009878   20.123041   20.408037
  N     19.072863   17.724585   19.291117
  C     18.541445   16.604491   18.492070
  C     17.733292   15.686679   19.403645
  C     18.159546   14.365154   19.636710
  C     17.448659   13.527724   20.513170
  C     16.303878   14.015984   21.166098
  C     15.879275   15.332721   20.941168
  O     14.773695   15.806756   21.568431
  C     16.588745   16.163888   20.068679
  H     15.679546   14.094719   18.274225
  H     14.387228   14.071656   17.069940
  H     15.220498   15.595584   17.426017
  H     16.581668   13.107708   16.228655
  H     15.961906   14.428348   15.227023
  H     15.681375   18.517727   15.851747
  H     17.188287   19.232602   15.264494
  H     16.192359   20.102680   16.444398
  H     17.249758   20.203104   18.328908
  H     19.733422   17.540537   20.035261
  H     19.400409   16.034117   18.111461
  H     19.045496   13.984682   19.135223
  H     17.786504   12.507195   20.685320
  H     15.752067   13.373292   21.844227
  H     14.459880   15.114721   22.169787
  H     16.250372   17.183395   19.921179

----------------------------
CARTESIAN COORDINATES (A.U.)
----------------------------
  NO LB      ZA    FRAG     MASS         X           Y           Z
   0 C     6.0000    0    12.011   29.026903   27.426703   32.720853
   1 C     6.0000    0    12.011   30.960551   26.809639   30.637175
   2 O     8.0000    0    15.999   33.305017   28.154309   31.025002
   3 C     6.0000    0    12.011   33.395426   30.652179   30.380997
   4 O     8.0000    0    15.999   32.560042   31.339754   28.347762
   5 C     6.0000    0    12.011   33.561353   32.365696   32.643736
   6 C     6.0000    0    12.011   32.727669   34.792978   32.610661
   7 C     6.0000    0    12.011   31.283969   36.112934   30.523577
   8 N     7.0000    0    14.007   33.292529   36.405795   34.627214
   9 C     6.0000    0    12.011   35.042166   35.887489   36.464697
  10 S    16.0000    0    32.060   35.923463   38.027037   38.565600
  11 N     7.0000    0    14.007   36.042488   33.494612   36.454927
  12 C     6.0000    0    12.011   35.038254   31.377940   34.944948
  13 C     6.0000    0    12.011   33.511066   29.643527   36.667576
  14 C     6.0000    0    12.011   34.316569   27.146208   37.108004
  15 C     6.0000    0    12.011   32.973187   25.563693   38.764273
  16 C     6.0000    0    12.011   30.809864   26.486371   39.998129
  17 C     6.0000    0    12.011   30.007480   28.974645   39.573073
  18 O     8.0000    0    15.999   27.918238   29.870440   40.758428
  19 C     6.0000    0    12.011   31.348184   30.545322   37.924307
  20 H     1.0000    0     1.008   29.630049   26.635159   34.533280
  21 H     1.0000    0     1.008   27.187921   26.591576   32.257512
  22 H     1.0000    0     1.008   28.762573   29.471382   32.930400
  23 H     1.0000    0     1.008   31.334812   24.769978   30.667713
  24 H     1.0000    0     1.008   30.163631   27.265626   28.774904
  25 H     1.0000    0     1.008   29.633505   34.993432   29.955460
  26 H     1.0000    0     1.008   32.481155   36.344351   28.845713
  27 H     1.0000    0     1.008   30.599125   37.988561   31.075409
  28 H     1.0000    0     1.008   32.597319   38.178333   34.636617
  29 H     1.0000    0     1.008   37.290764   33.146811   37.861156
  30 H     1.0000    0     1.008   36.661460   30.300089   34.225700
  31 H     1.0000    0     1.008   35.990772   26.427218   36.160331
  32 H     1.0000    0     1.008   33.611621   23.635172   39.089589
  33 H     1.0000    0     1.008   29.767093   25.271859   41.279607
  34 H     1.0000    0     1.008   27.325213   28.562683   41.894827
  35 H     1.0000    0     1.008   30.708752   32.471911   37.645573

--------------------------------
INTERNAL COORDINATES (ANGSTROEM)
--------------------------------
 C      0   0   0     0.000000000000     0.00000000     0.00000000
 C      1   0   0     1.539303431968     0.00000000     0.00000000
 O      2   1   0     1.444864183349   111.38094535     0.00000000
 C      3   2   1     1.365879089056   118.11417396   282.30795110
 O      4   3   2     1.218793847805   119.76589635   313.16317128
 C      4   3   2     1.504544514217   112.74997939   109.96513185
 C      6   4   3     1.358225934178   122.73367592   205.88609942
 C      7   6   4     1.513712480278   127.56897559     7.04193093
 N      7   6   4     1.398743803665   119.85362561   190.12985276
 C      9   7   6     1.370376034706   124.30396567    12.87962199
 S     10   9   7     1.653892264498   122.03671852   171.10076279
 N     10   9   7     1.372457454092   116.26813384   351.61101241
 C     12  10   9     1.474955190641   124.31367852   348.31396200
 C     13  12  10     1.525273448421   108.91053757   257.74432295
 C     14  13  12     1.407990941435   120.21903310   244.57943120
 C     15  14  13     1.405287495616   120.62465636   177.66322459
 C     16  15  14     1.405431642878   119.65470492   359.80032449
 C     17  16  15     1.401670132270   119.90430980   359.93398791
 O     18  17  16     1.356640049762   120.06056371   179.91525415
 C     18  17  16     1.398364844929   120.31818388     0.05461264
 H      1   2   3     1.094158316975   110.65745458   291.19813966
 H      1   2   3     1.096556065900   110.13725974   172.48603362
 H      1   2   3     1.096622383952   111.50149066    52.75295329
 H      2   1   3     1.097481276784   108.54430839   120.13726976
 H      2   1   3     1.098735306656   109.92268450   237.29368425
 H      8   7   6     1.097334788713   110.63888628    51.33647691
 H      8   7   6     1.097584897556   110.51158609   292.59130218
 H      8   7   6     1.096241064487   112.97205385   171.75337275
 H      9   7   6     1.007564802011   119.58871389   183.05180653
 H     12  10   9     1.011910453221   114.63351508   181.68987329
 H     13  12  10     1.099094478617   107.46479777   141.00403991
 H     15  14  13     1.086810018589   119.93327122   357.58939633
 H     16  15  14     1.088693807168   120.01607653   179.93587176
 H     17  16  15     1.085083703587   119.92043632   180.03842010
 H     19  18  17     0.969031525839   107.53620928     3.97164358
 H     20  18  17     1.084272616967   119.04038312   180.89520975

---------------------------
INTERNAL COORDINATES (A.U.)
---------------------------
 C      0   0   0     0.000000000000     0.00000000     0.00000000
 C      1   0   0     2.908861923425     0.00000000     0.00000000
 O      2   1   0     2.730397607242   111.38094535     0.00000000
 C      3   2   1     2.581137410366   118.11417396   282.30795110
 O      4   3   2     2.303186586060   119.76589635   313.16317128
 C      4   3   2     2.843177088164   112.74997939   109.96513185
 C      6   4   3     2.566675043586   122.73367592   205.88609942
 C      7   6   4     2.860502033225   127.56897559     7.04193093
 N      7   6   4     2.643242720446   119.85362561   190.12985276
 C      9   7   6     2.589635406083   124.30396567    12.87962199
 S     10   9   7     3.125403434912   122.03671852   171.10076279
 N     10   9   7     2.593568718693   116.26813384   351.61101241
 C     12  10   9     2.787261370117   124.31367852   348.31396200
 C     13  12  10     2.882349096857   108.91053757   257.74432295
 C     14  13  12     2.660717278355   120.21903310   244.57943120
 C     15  14  13     2.655608506139   120.62465636   177.66322459
 C     16  15  14     2.655880904986   119.65470492   359.80032449
 C     17  16  15     2.648772680087   119.90430980   359.93398791
 O     18  17  16     2.563678156360   120.06056371   179.91525415
 C     18  17  16     2.642526592218   120.31818388     0.05461264
 H      1   2   3     2.067659566234   110.65745458   291.19813966
 H      1   2   3     2.072190655042   110.13725974   172.48603362
 H      1   2   3     2.072315977997   111.50149066    52.75295329
 H      2   1   3     2.073939050229   108.54430839   120.13726976
 H      2   1   3     2.076308823250   109.92268450   237.29368425
 H      8   7   6     2.073662227891   110.63888628    51.33647691
 H      8   7   6     2.074134865109   110.51158609   292.59130218
 H      8   7   6     2.071595388640   112.97205385   171.75337275
 H      9   7   6     1.904021537979   119.58871389   183.05180653
 H     12  10   9     1.912233628641   114.63351508   181.68987329
 H     13  12  10     2.076987559892   107.46479777   141.00403991
 H     15  14  13     2.053773294735   119.93327122   357.58939633
 H     16  15  14     2.057333139244   120.01607653   179.93587176
 H     17  16  15     2.050511032161   119.92043632   180.03842010
 H     19  18  17     1.831204198971   107.53620928     3.97164358
 H     20  18  17     2.048978300578   119.04038312   180.89520975

---------------------
BASIS SET INFORMATION
---------------------
There are 5 groups of distinct atoms

 Group   1 Type C   : 18s5p2d1f contracted to 4s3p2d1f pattern {8811/311/11/1}
 Group   2 Type O   : 18s5p2d1f contracted to 4s3p2d1f pattern {8811/311/11/1}
 Group   3 Type N   : 18s5p2d1f contracted to 4s3p2d1f pattern {8811/311/11/1}
 Group   4 Type S   : 41s16p2d1f contracted to 5s4p2d1f pattern {13131311/7711/11/1}
 Group   5 Type H   : 5s2p1d contracted to 3s2p1d pattern {311/11/1}

Atom   0C    basis set group =>   1
Atom   1C    basis set group =>   1
Atom   2O    basis set group =>   2
Atom   3C    basis set group =>   1
Atom   4O    basis set group =>   2
Atom   5C    basis set group =>   1
Atom   6C    basis set group =>   1
Atom   7C    basis set group =>   1
Atom   8N    basis set group =>   3
Atom   9C    basis set group =>   1
Atom  10S    basis set group =>   4
Atom  11N    basis set group =>   3
Atom  12C    basis set group =>   1
Atom  13C    basis set group =>   1
Atom  14C    basis set group =>   1
Atom  15C    basis set group =>   1
Atom  16C    basis set group =>   1
Atom  17C    basis set group =>   1
Atom  18O    basis set group =>   2
Atom  19C    basis set group =>   1
Atom  20H    basis set group =>   5
Atom  21H    basis set group =>   5
Atom  22H    basis set group =>   5
Atom  23H    basis set group =>   5
Atom  24H    basis set group =>   5
Atom  25H    basis set group =>   5
Atom  26H    basis set group =>   5
Atom  27H    basis set group =>   5
Atom  28H    basis set group =>   5
Atom  29H    basis set group =>   5
Atom  30H    basis set group =>   5
Atom  31H    basis set group =>   5
Atom  32H    basis set group =>   5
Atom  33H    basis set group =>   5
Atom  34H    basis set group =>   5
Atom  35H    basis set group =>   5
---------------------------------
AUXILIARY/C BASIS SET INFORMATION
---------------------------------
There are 5 groups of distinct atoms

 Group   1 Type C   : 8s6p5d3f1g contracted to 8s6p5d3f1g pattern {11111111/111111/11111/111/1}
 Group   2 Type O   : 8s6p5d3f1g contracted to 8s6p5d3f1g pattern {11111111/111111/11111/111/1}
 Group   3 Type N   : 8s6p5d3f1g contracted to 8s6p5d3f1g pattern {11111111/111111/11111/111/1}
 Group   4 Type S   : 10s8p7d5f2g contracted to 10s8p7d5f2g pattern {1111111111/11111111/1111111/11111/11}
 Group   5 Type H   : 4s3p2d1f contracted to 4s3p2d1f pattern {1111/111/11/1}

Atom   0C    basis set group =>   1
Atom   1C    basis set group =>   1
Atom   2O    basis set group =>   2
Atom   3C    basis set group =>   1
Atom   4O    basis set group =>   2
Atom   5C    basis set group =>   1
Atom   6C    basis set group =>   1
Atom   7C    basis set group =>   1
Atom   8N    basis set group =>   3
Atom   9C    basis set group =>   1
Atom  10S    basis set group =>   4
Atom  11N    basis set group =>   3
Atom  12C    basis set group =>   1
Atom  13C    basis set group =>   1
Atom  14C    basis set group =>   1
Atom  15C    basis set group =>   1
Atom  16C    basis set group =>   1
Atom  17C    basis set group =>   1
Atom  18O    basis set group =>   2
Atom  19C    basis set group =>   1
Atom  20H    basis set group =>   5
Atom  21H    basis set group =>   5
Atom  22H    basis set group =>   5
Atom  23H    basis set group =>   5
Atom  24H    basis set group =>   5
Atom  25H    basis set group =>   5
Atom  26H    basis set group =>   5
Atom  27H    basis set group =>   5
Atom  28H    basis set group =>   5
Atom  29H    basis set group =>   5
Atom  30H    basis set group =>   5
Atom  31H    basis set group =>   5
Atom  32H    basis set group =>   5
Atom  33H    basis set group =>   5
Atom  34H    basis set group =>   5
Atom  35H    basis set group =>   5
------------------------------------------------------------------------------
                           ORCA GTO INTEGRAL CALCULATION
------------------------------------------------------------------------------

                         BASIS SET STATISTICS AND STARTUP INFO

 # of primitive gaussian shells          ...  682
 # of primitive gaussian functions       ... 1312
 # of contracted shells                  ...  298
 # of contracted basis functions         ...  828
 Highest angular momentum                ...    3
 Maximum contraction depth               ...   13
 Integral package used                   ... LIBINT
 Integral threshhold            Thresh   ...  2.500e-11
 Primitive cut-off              TCut     ...  2.500e-12


------------------------------ INTEGRAL EVALUATION ----------------------------


 * One electron integrals 
 Pre-screening matrix                    ... done
 Shell pair data                         ... done (   0.015 sec)

-------------------------------------------------------------------------------
                                 ORCA SCF
-------------------------------------------------------------------------------

------------
SCF SETTINGS
------------
Hamiltonian:
 Ab initio Hamiltonian  Method          .... Hartree-Fock(GTOs)


General Settings:
 Integral files         IntName         .... CONFS/Conf272.orca
 Hartree-Fock type      HFTyp           .... RHF
 Total Charge           Charge          ....    0
 Multiplicity           Mult            ....    1
 Number of Electrons    NEL             ....  154
 Basis Dimension        Dim             ....  828
 Nuclear Repulsion      ENuc            ....   1734.6486250401 Eh

Convergence Acceleration:
 DIIS                   CNVDIIS         .... on
   Start iteration      DIISMaxIt       ....    12
   Startup error        DIISStart       ....  0.200000
   # of expansion vecs  DIISMaxEq       ....     5
   Bias factor          DIISBfac        ....   1.050
   Max. coefficient     DIISMaxC        ....  10.000
 Newton-Raphson         CNVNR           .... off
 SOSCF                  CNVSOSCF        .... on
   Start iteration      SOSCFMaxIt      ....   150
   Startup grad/error   SOSCFStart      ....  0.003300
 Level Shifting         CNVShift        .... on
   Level shift para.    LevelShift      ....    0.2500
   Turn off err/grad.   ShiftErr        ....    0.0010
 Zerner damping         CNVZerner       .... off
 Static damping         CNVDamp         .... on
   Fraction old density DampFac         ....    0.7000
   Max. Damping (<1)    DampMax         ....    0.9800
   Min. Damping (>=0)   DampMin         ....    0.0000
   Turn off err/grad.   DampErr         ....    0.1000
 Fernandez-Rico         CNVRico         .... off

SCF Procedure:
 Maximum # iterations   MaxIter         ....   125
 SCF integral mode      SCFMode         .... Direct
   Integral package                     .... LIBINT
 Reset frequency        DirectResetFreq ....    20
 Integral Threshold     Thresh          ....  2.500e-11 Eh
 Primitive CutOff       TCut            ....  2.500e-12 Eh

Convergence Tolerance:
 Convergence Check Mode ConvCheckMode   .... Total+1el-Energy
 Convergence forced     ConvForced      .... 1
 Energy Change          TolE            ....  1.000e-08 Eh
 1-El. energy change                    ....  1.000e-05 Eh
 Orbital Gradient       TolG            ....  1.000e-05
 Orbital Rotation angle TolX            ....  1.000e-05
 DIIS Error             TolErr          ....  5.000e-07


Diagonalization of the overlap matrix:
Smallest eigenvalue                        ... 3.242e-05
Time for diagonalization                   ...    0.120 sec
Threshold for overlap eigenvalues          ... 1.000e-08
Number of eigenvalues below threshold      ... 0
Time for construction of square roots      ...    0.104 sec
Total time needed                          ...    0.227 sec

-------------------
DFT GRID GENERATION
-------------------

General Integration Accuracy     IntAcc      ...  4.340
Radial Grid Type                 RadialGrid  ... Gauss-Chebyshev
Angular Grid (max. acc.)         AngularGrid ... Lebedev-110
Angular grid pruning method      GridPruning ... 3 (G Style)
Weight generation scheme         WeightScheme... Becke
Basis function cutoff            BFCut       ...    1.0000e-11
Integration weight cutoff        WCut        ...    1.0000e-14
Grids for H and He will be reduced by one unit

# of grid points (after initial pruning)     ...  46246 (   0.0 sec)
# of grid points (after weights+screening)   ...  41150 (   0.3 sec)
nearest neighbour list constructed           ...    0.0 sec
Grid point re-assignment to atoms done       ...    0.0 sec
Grid point division into batches done        ...    0.0 sec
Reduced shell lists constructed in    1.0 sec

Total number of grid points                  ...    41150
Total number of batches                      ...      659
Average number of points per batch           ...       62
Average number of grid points per atom       ...     1143
Average number of shells per batch           ...   155.15 (52.06%)
Average number of basis functions per batch  ...   395.13 (47.72%)
Average number of large shells per batch     ...    99.86 (64.37%)
Average number of large basis fcns per batch ...   255.44 (64.65%)
Maximum spatial batch extension              ...  23.63, 18.45, 22.38 au
Average spatial batch extension              ...   3.61,  3.35,  3.48 au

Time for grid setup =    1.362 sec

------------------------------
INITIAL GUESS: MODEL POTENTIAL
------------------------------
Loading Hartree-Fock densities                     ... done
Calculating cut-offs                               ... done
Setting up the integral package                    ... done
Initializing the effective Hamiltonian             ... done
Starting the Coulomb interaction                   ... done (   3.3 sec)
Reading the grid                                   ... done
Mapping shells                                     ... done
Starting the XC term evaluation                    ... done (   1.7 sec)
Transforming the Hamiltonian                       ... done (   0.1 sec)
Diagonalizing the Hamiltonian                      ... done (   0.1 sec)
Back transforming the eigenvectors                 ... done (   0.0 sec)
Now organizing SCF variables                       ... done
                      ------------------
                      INITIAL GUESS DONE (   7.1 sec)
                      ------------------
--------------
SCF ITERATIONS
--------------
ITER       Energy         Delta-E        Max-DP      RMS-DP      [F,P]     Damp
               ***  Starting incremental Fock matrix formation  ***
  0  -1269.9915368046   0.000000000000 0.04934016  0.00043736  0.3254086 0.7000
  1  -1270.2601593915  -0.268622586947 0.03608791  0.00035202  0.1954814 0.7000
                               ***Turning on DIIS***
  2  -1270.4271814626  -0.167022071109 0.02583580  0.00023618  0.1097681 0.7000
  3  -1272.5733009403  -2.146119477650 0.06309984  0.00051152  0.0828593 0.0000
  4  -1270.7370367157   1.836264224576 0.00726273  0.00009682  0.0069644 0.0000
  5  -1270.7954192265  -0.058382510847 0.00354776  0.00005146  0.0053460 0.0000
  6  -1270.7752774356   0.020141790947 0.00185987  0.00002698  0.0036114 0.0000
                      *** Initiating the SOSCF procedure ***
                           *** Shutting down DIIS ***
                      *** Re-Reading the Fockian *** 
                      *** Removing any level shift *** 
ITER      Energy       Delta-E        Grad      Rot      Max-DP    RMS-DP
  7  -1270.78995342  -0.0146759847  0.001264  0.001264  0.001079  0.000015
               *** Restarting incremental Fock matrix formation ***
  8  -1270.79000994  -0.0000565241  0.000684  0.001779  0.000773  0.000009
  9  -1270.79002666  -0.0000167116  0.000321  0.002122  0.000995  0.000011
 10  -1270.79003365  -0.0000069989  0.000090  0.000138  0.000208  0.000002
 11  -1270.79003439  -0.0000007302  0.000039  0.000079  0.000069  0.000001
 12  -1270.79003452  -0.0000001365  0.000012  0.000054  0.000028  0.000000
 13  -1270.79003454  -0.0000000173  0.000009  0.000041  0.000020  0.000000
                  ***Gradient check signals convergence***
              ***Rediagonalizing the Fockian in SOSCF/NRSCF***

               *****************************************************
               *                     SUCCESS                       *
               *           SCF CONVERGED AFTER  14 CYCLES          *
               *****************************************************


----------------
TOTAL SCF ENERGY
----------------

Total Energy       :        -1270.79003455 Eh          -34579.95485 eV

Components:
Nuclear Repulsion  :         1734.64862504 Eh           47202.18880 eV
Electronic Energy  :        -3005.43865959 Eh          -81782.14365 eV
One Electron Energy:        -5190.42460757 Eh         -141238.63401 eV
Two Electron Energy:         2184.98594798 Eh           59456.49035 eV

Virial components:
Potential Energy   :        -2539.78731025 Eh          -69111.12625 eV
Kinetic Energy     :         1268.99727570 Eh           34531.17140 eV
Virial Ratio       :            2.00141274


---------------
SCF CONVERGENCE
---------------

  Last Energy change         ...   -9.4205e-09  Tolerance :   1.0000e-08
  Last MAX-Density change    ...    3.2124e-06  Tolerance :   1.0000e-07
  Last RMS-Density change    ...    4.8676e-08  Tolerance :   5.0000e-09
  Last Orbital Gradient      ...    1.7580e-06  Tolerance :   1.0000e-05
  Last Orbital Rotation      ...    6.5054e-06  Tolerance :   1.0000e-05

             **** THE GBW FILE WAS UPDATED (CONFS/Conf272.orca.gbw) ****
             **** DENSITY FILE WAS UPDATED (CONFS/Conf272.orca.scfp) ****
             **** ENERGY FILE WAS UPDATED (CONFS/Conf272.orca.en.tmp) ****
             **** THE GBW FILE WAS UPDATED (CONFS/Conf272.orca.gbw) ****
             **** DENSITY FILE WAS UPDATED (CONFS/Conf272.orca.scfp) ****
----------------
ORBITAL ENERGIES
----------------

  NO   OCC          E(Eh)            E(eV) 
   0   2.0000     -91.890543     -2500.4688 
   1   2.0000     -20.598420      -560.5115 
   2   2.0000     -20.585612      -560.1630 
   3   2.0000     -20.549871      -559.1904 
   4   2.0000     -15.630671      -425.3322 
   5   2.0000     -15.608957      -424.7413 
   6   2.0000     -11.394613      -310.0632 
   7   2.0000     -11.384957      -309.8004 
   8   2.0000     -11.336679      -308.4867 
   9   2.0000     -11.315600      -307.9131 
  10   2.0000     -11.311642      -307.8054 
  11   2.0000     -11.296106      -307.3827 
  12   2.0000     -11.261007      -306.4276 
  13   2.0000     -11.260675      -306.4185 
  14   2.0000     -11.257201      -306.3240 
  15   2.0000     -11.253750      -306.2301 
  16   2.0000     -11.245344      -306.0014 
  17   2.0000     -11.239713      -305.8482 
  18   2.0000     -11.239542      -305.8435 
  19   2.0000     -11.221220      -305.3449 
  20   2.0000      -8.895554      -242.0603 
  21   2.0000      -6.577118      -178.9725 
  22   2.0000      -6.575127      -178.9183 
  23   2.0000      -6.574529      -178.9020 
  24   2.0000      -1.449563       -39.4446 
  25   2.0000      -1.418137       -38.5895 
  26   2.0000      -1.352157       -36.7941 
  27   2.0000      -1.341778       -36.5116 
  28   2.0000      -1.239870       -33.7386 
  29   2.0000      -1.158796       -31.5324 
  30   2.0000      -1.120842       -30.4997 
  31   2.0000      -1.043862       -28.4049 
  32   2.0000      -1.032093       -28.0847 
  33   2.0000      -1.016923       -27.6719 
  34   2.0000      -0.998522       -27.1712 
  35   2.0000      -0.985797       -26.8249 
  36   2.0000      -0.924308       -25.1517 
  37   2.0000      -0.891764       -24.2661 
  38   2.0000      -0.847817       -23.0703 
  39   2.0000      -0.841014       -22.8852 
  40   2.0000      -0.835704       -22.7407 
  41   2.0000      -0.816069       -22.2064 
  42   2.0000      -0.754311       -20.5258 
  43   2.0000      -0.733702       -19.9650 
  44   2.0000      -0.722982       -19.6734 
  45   2.0000      -0.697998       -18.9935 
  46   2.0000      -0.690520       -18.7900 
  47   2.0000      -0.678308       -18.4577 
  48   2.0000      -0.668377       -18.1875 
  49   2.0000      -0.667386       -18.1605 
  50   2.0000      -0.649390       -17.6708 
  51   2.0000      -0.645686       -17.5700 
  52   2.0000      -0.637342       -17.3429 
  53   2.0000      -0.608924       -16.5697 
  54   2.0000      -0.605399       -16.4737 
  55   2.0000      -0.600172       -16.3315 
  56   2.0000      -0.597888       -16.2694 
  57   2.0000      -0.579287       -15.7632 
  58   2.0000      -0.572283       -15.5726 
  59   2.0000      -0.564834       -15.3699 
  60   2.0000      -0.558896       -15.2083 
  61   2.0000      -0.547816       -14.9068 
  62   2.0000      -0.539776       -14.6881 
  63   2.0000      -0.526658       -14.3311 
  64   2.0000      -0.522549       -14.2193 
  65   2.0000      -0.514967       -14.0130 
  66   2.0000      -0.503540       -13.7020 
  67   2.0000      -0.502019       -13.6606 
  68   2.0000      -0.475134       -12.9291 
  69   2.0000      -0.464235       -12.6325 
  70   2.0000      -0.452244       -12.3062 
  71   2.0000      -0.445284       -12.1168 
  72   2.0000      -0.357552        -9.7295 
  73   2.0000      -0.350299        -9.5321 
  74   2.0000      -0.329691        -8.9713 
  75   2.0000      -0.324209        -8.8222 
  76   2.0000      -0.317220        -8.6320 
  77   0.0000       0.067939         1.8487 
  78   0.0000       0.105353         2.8668 
  79   0.0000       0.120049         3.2667 
  80   0.0000       0.130383         3.5479 
  81   0.0000       0.133835         3.6418 
  82   0.0000       0.141534         3.8513 
  83   0.0000       0.147249         4.0068 
  84   0.0000       0.149719         4.0741 
  85   0.0000       0.161044         4.3822 
  86   0.0000       0.171940         4.6787 
  87   0.0000       0.179616         4.8876 
  88   0.0000       0.186597         5.0776 
  89   0.0000       0.193945         5.2775 
  90   0.0000       0.203312         5.5324 
  91   0.0000       0.206593         5.6217 
  92   0.0000       0.214556         5.8384 
  93   0.0000       0.222935         6.0664 
  94   0.0000       0.231147         6.2898 
  95   0.0000       0.236039         6.4229 
  96   0.0000       0.244859         6.6629 
  97   0.0000       0.255599         6.9552 
  98   0.0000       0.272261         7.4086 
  99   0.0000       0.292359         7.9555 
 100   0.0000       0.302282         8.2255 
 101   0.0000       0.307173         8.3586 
 102   0.0000       0.313683         8.5357 
 103   0.0000       0.316758         8.6194 
 104   0.0000       0.319585         8.6963 
 105   0.0000       0.331519         9.0211 
 106   0.0000       0.341290         9.2870 
 107   0.0000       0.345655         9.4058 
 108   0.0000       0.368975        10.0403 
 109   0.0000       0.372312        10.1311 
 110   0.0000       0.373942        10.1755 
 111   0.0000       0.377575        10.2743 
 112   0.0000       0.383364        10.4319 
 113   0.0000       0.387967        10.5571 
 114   0.0000       0.391395        10.6504 
 115   0.0000       0.409505        11.1432 
 116   0.0000       0.419183        11.4066 
 117   0.0000       0.419889        11.4258 
 118   0.0000       0.431413        11.7393 
 119   0.0000       0.432134        11.7590 
 120   0.0000       0.443942        12.0803 
 121   0.0000       0.447009        12.1637 
 122   0.0000       0.450536        12.2597 
 123   0.0000       0.460889        12.5414 
 124   0.0000       0.464760        12.6468 
 125   0.0000       0.467219        12.7137 
 126   0.0000       0.477969        13.0062 
 127   0.0000       0.484454        13.1827 
 128   0.0000       0.493554        13.4303 
 129   0.0000       0.501699        13.6519 
 130   0.0000       0.509810        13.8726 
 131   0.0000       0.514143        13.9905 
 132   0.0000       0.515670        14.0321 
 133   0.0000       0.521667        14.1953 
 134   0.0000       0.527767        14.3613 
 135   0.0000       0.538443        14.6518 
 136   0.0000       0.540123        14.6975 
 137   0.0000       0.542939        14.7741 
 138   0.0000       0.543689        14.7945 
 139   0.0000       0.551486        15.0067 
 140   0.0000       0.555396        15.1131 
 141   0.0000       0.561734        15.2856 
 142   0.0000       0.565761        15.3951 
 143   0.0000       0.568697        15.4750 
 144   0.0000       0.577502        15.7146 
 145   0.0000       0.579553        15.7705 
 146   0.0000       0.591934        16.1073 
 147   0.0000       0.598514        16.2864 
 148   0.0000       0.599473        16.3125 
 149   0.0000       0.603642        16.4259 
 150   0.0000       0.604674        16.4540 
 151   0.0000       0.609550        16.5867 
 152   0.0000       0.610461        16.6115 
 153   0.0000       0.620197        16.8764 
 154   0.0000       0.621410        16.9094 
 155   0.0000       0.623194        16.9580 
 156   0.0000       0.632565        17.2130 
 157   0.0000       0.636293        17.3144 
 158   0.0000       0.638640        17.3783 
 159   0.0000       0.645504        17.5651 
 160   0.0000       0.647176        17.6105 
 161   0.0000       0.659309        17.9407 
 162   0.0000       0.665752        18.1160 
 163   0.0000       0.668712        18.1966 
 164   0.0000       0.670547        18.2465 
 165   0.0000       0.673266        18.3205 
 166   0.0000       0.687882        18.7182 
 167   0.0000       0.690415        18.7872 
 168   0.0000       0.694356        18.8944 
 169   0.0000       0.697618        18.9831 
 170   0.0000       0.706588        19.2272 
 171   0.0000       0.714144        19.4328 
 172   0.0000       0.714806        19.4509 
 173   0.0000       0.729047        19.8384 
 174   0.0000       0.734646        19.9907 
 175   0.0000       0.743922        20.2431 
 176   0.0000       0.745509        20.2863 
 177   0.0000       0.751873        20.4595 
 178   0.0000       0.759258        20.6605 
 179   0.0000       0.771136        20.9837 
 180   0.0000       0.776270        21.1234 
 181   0.0000       0.778224        21.1765 
 182   0.0000       0.793226        21.5848 
 183   0.0000       0.803128        21.8542 
 184   0.0000       0.804308        21.8863 
 185   0.0000       0.810474        22.0541 
 186   0.0000       0.821941        22.3662 
 187   0.0000       0.831315        22.6212 
 188   0.0000       0.834629        22.7114 
 189   0.0000       0.838372        22.8133 
 190   0.0000       0.851384        23.1673 
 191   0.0000       0.856744        23.3132 
 192   0.0000       0.866105        23.5679 
 193   0.0000       0.868891        23.6437 
 194   0.0000       0.879488        23.9321 
 195   0.0000       0.884785        24.0762 
 196   0.0000       0.888961        24.1899 
 197   0.0000       0.894983        24.3537 
 198   0.0000       0.898121        24.4391 
 199   0.0000       0.901121        24.5208 
 200   0.0000       0.920109        25.0374 
 201   0.0000       0.926279        25.2053 
 202   0.0000       0.932945        25.3867 
 203   0.0000       0.939829        25.5740 
 204   0.0000       0.943646        25.6779 
 205   0.0000       0.947129        25.7727 
 206   0.0000       0.959745        26.1160 
 207   0.0000       0.969584        26.3837 
 208   0.0000       0.978489        26.6260 
 209   0.0000       0.990464        26.9519 
 210   0.0000       0.992833        27.0163 
 211   0.0000       1.001688        27.2573 
 212   0.0000       1.006266        27.3819 
 213   0.0000       1.014821        27.6147 
 214   0.0000       1.017570        27.6895 
 215   0.0000       1.025911        27.9165 
 216   0.0000       1.029675        28.0189 
 217   0.0000       1.033530        28.1238 
 218   0.0000       1.037957        28.2442 
 219   0.0000       1.053729        28.6734 
 220   0.0000       1.057069        28.7643 
 221   0.0000       1.064225        28.9590 
 222   0.0000       1.075546        29.2671 
 223   0.0000       1.077189        29.3118 
 224   0.0000       1.091427        29.6992 
 225   0.0000       1.094339        29.7785 
 226   0.0000       1.116238        30.3744 
 227   0.0000       1.120574        30.4924 
 228   0.0000       1.133455        30.8429 
 229   0.0000       1.137130        30.9429 
 230   0.0000       1.143717        31.1221 
 231   0.0000       1.145386        31.1675 
 232   0.0000       1.154163        31.4064 
 233   0.0000       1.155847        31.4522 
 234   0.0000       1.161727        31.6122 
 235   0.0000       1.166993        31.7555 
 236   0.0000       1.176687        32.0193 
 237   0.0000       1.181950        32.1625 
 238   0.0000       1.183722        32.2107 
 239   0.0000       1.190158        32.3858 
 240   0.0000       1.192234        32.4423 
 241   0.0000       1.202973        32.7346 
 242   0.0000       1.212486        32.9934 
 243   0.0000       1.217045        33.1175 
 244   0.0000       1.220025        33.1986 
 245   0.0000       1.227745        33.4086 
 246   0.0000       1.231426        33.5088 
 247   0.0000       1.244434        33.8628 
 248   0.0000       1.252203        34.0742 
 249   0.0000       1.259776        34.2803 
 250   0.0000       1.270681        34.5770 
 251   0.0000       1.275759        34.7152 
 252   0.0000       1.282621        34.9019 
 253   0.0000       1.293630        35.2015 
 254   0.0000       1.306561        35.5533 
 255   0.0000       1.316442        35.8222 
 256   0.0000       1.325947        36.0808 
 257   0.0000       1.334934        36.3254 
 258   0.0000       1.340762        36.4840 
 259   0.0000       1.348293        36.6889 
 260   0.0000       1.352851        36.8130 
 261   0.0000       1.355843        36.8944 
 262   0.0000       1.367798        37.2197 
 263   0.0000       1.374388        37.3990 
 264   0.0000       1.383078        37.6355 
 265   0.0000       1.385211        37.6935 
 266   0.0000       1.406280        38.2668 
 267   0.0000       1.407135        38.2901 
 268   0.0000       1.415611        38.5207 
 269   0.0000       1.421912        38.6922 
 270   0.0000       1.434836        39.0439 
 271   0.0000       1.440725        39.2041 
 272   0.0000       1.450144        39.4604 
 273   0.0000       1.454558        39.5805 
 274   0.0000       1.462345        39.7924 
 275   0.0000       1.472065        40.0569 
 276   0.0000       1.473853        40.1056 
 277   0.0000       1.478325        40.2273 
 278   0.0000       1.482666        40.3454 
 279   0.0000       1.496654        40.7260 
 280   0.0000       1.500012        40.8174 
 281   0.0000       1.505166        40.9576 
 282   0.0000       1.514108        41.2010 
 283   0.0000       1.517032        41.2805 
 284   0.0000       1.521947        41.4143 
 285   0.0000       1.528519        41.5931 
 286   0.0000       1.536270        41.8040 
 287   0.0000       1.539472        41.8912 
 288   0.0000       1.542392        41.9706 
 289   0.0000       1.549817        42.1727 
 290   0.0000       1.568447        42.6796 
 291   0.0000       1.574809        42.8527 
 292   0.0000       1.583490        43.0890 
 293   0.0000       1.590888        43.2903 
 294   0.0000       1.594176        43.3797 
 295   0.0000       1.607159        43.7330 
 296   0.0000       1.610999        43.8375 
 297   0.0000       1.613231        43.8982 
 298   0.0000       1.631258        44.3888 
 299   0.0000       1.635447        44.5028 
 300   0.0000       1.639482        44.6126 
 301   0.0000       1.652381        44.9636 
 302   0.0000       1.663872        45.2763 
 303   0.0000       1.677413        45.6447 
 304   0.0000       1.680465        45.7278 
 305   0.0000       1.692115        46.0448 
 306   0.0000       1.700329        46.2683 
 307   0.0000       1.711276        46.5662 
 308   0.0000       1.717815        46.7441 
 309   0.0000       1.719792        46.7979 
 310   0.0000       1.729058        47.0501 
 311   0.0000       1.735857        47.2351 
 312   0.0000       1.750706        47.6391 
 313   0.0000       1.757855        47.8337 
 314   0.0000       1.779809        48.4311 
 315   0.0000       1.782262        48.4978 
 316   0.0000       1.786481        48.6126 
 317   0.0000       1.796566        48.8871 
 318   0.0000       1.808618        49.2150 
 319   0.0000       1.814318        49.3701 
 320   0.0000       1.824871        49.6573 
 321   0.0000       1.837482        50.0004 
 322   0.0000       1.845778        50.2262 
 323   0.0000       1.851886        50.3924 
 324   0.0000       1.868946        50.8566 
 325   0.0000       1.883084        51.2413 
 326   0.0000       1.886052        51.3221 
 327   0.0000       1.897495        51.6335 
 328   0.0000       1.911804        52.0228 
 329   0.0000       1.918386        52.2019 
 330   0.0000       1.928807        52.4855 
 331   0.0000       1.942063        52.8462 
 332   0.0000       1.945547        52.9410 
 333   0.0000       1.953602        53.1602 
 334   0.0000       1.958017        53.2804 
 335   0.0000       1.970228        53.6126 
 336   0.0000       1.989391        54.1341 
 337   0.0000       2.005928        54.5841 
 338   0.0000       2.017194        54.8906 
 339   0.0000       2.026492        55.1437 
 340   0.0000       2.032617        55.3103 
 341   0.0000       2.046174        55.6792 
 342   0.0000       2.048375        55.7391 
 343   0.0000       2.068329        56.2821 
 344   0.0000       2.101503        57.1848 
 345   0.0000       2.117698        57.6255 
 346   0.0000       2.126112        57.8545 
 347   0.0000       2.130216        57.9661 
 348   0.0000       2.148155        58.4543 
 349   0.0000       2.160609        58.7931 
 350   0.0000       2.182239        59.3817 
 351   0.0000       2.196892        59.7805 
 352   0.0000       2.219044        60.3833 
 353   0.0000       2.222506        60.4775 
 354   0.0000       2.236070        60.8465 
 355   0.0000       2.255719        61.3812 
 356   0.0000       2.266633        61.6782 
 357   0.0000       2.289152        62.2910 
 358   0.0000       2.290604        62.3305 
 359   0.0000       2.311530        62.8999 
 360   0.0000       2.315149        62.9984 
 361   0.0000       2.321289        63.1655 
 362   0.0000       2.337572        63.6086 
 363   0.0000       2.349626        63.9366 
 364   0.0000       2.371544        64.5330 
 365   0.0000       2.382776        64.8386 
 366   0.0000       2.387084        64.9559 
 367   0.0000       2.413703        65.6802 
 368   0.0000       2.419648        65.8420 
 369   0.0000       2.424720        65.9800 
 370   0.0000       2.451974        66.7216 
 371   0.0000       2.462507        67.0082 
 372   0.0000       2.471523        67.2536 
 373   0.0000       2.485919        67.6453 
 374   0.0000       2.501440        68.0676 
 375   0.0000       2.504428        68.1489 
 376   0.0000       2.515443        68.4487 
 377   0.0000       2.529475        68.8305 
 378   0.0000       2.546913        69.3050 
 379   0.0000       2.560320        69.6699 
 380   0.0000       2.575002        70.0694 
 381   0.0000       2.586311        70.3771 
 382   0.0000       2.598085        70.6975 
 383   0.0000       2.614951        71.1564 
 384   0.0000       2.617965        71.2385 
 385   0.0000       2.633413        71.6588 
 386   0.0000       2.639561        71.8261 
 387   0.0000       2.657989        72.3275 
 388   0.0000       2.666008        72.5458 
 389   0.0000       2.678246        72.8788 
 390   0.0000       2.693153        73.2844 
 391   0.0000       2.710219        73.7488 
 392   0.0000       2.718573        73.9761 
 393   0.0000       2.721845        74.0652 
 394   0.0000       2.732177        74.3463 
 395   0.0000       2.743016        74.6413 
 396   0.0000       2.754989        74.9671 
 397   0.0000       2.769372        75.3584 
 398   0.0000       2.776201        75.5443 
 399   0.0000       2.782314        75.7106 
 400   0.0000       2.788585        75.8813 
 401   0.0000       2.798900        76.1619 
 402   0.0000       2.821267        76.7706 
 403   0.0000       2.822913        76.8154 
 404   0.0000       2.831928        77.0607 
 405   0.0000       2.844875        77.4130 
 406   0.0000       2.849483        77.5384 
 407   0.0000       2.856108        77.7186 
 408   0.0000       2.865079        77.9628 
 409   0.0000       2.870846        78.1197 
 410   0.0000       2.890311        78.6494 
 411   0.0000       2.898154        78.8628 
 412   0.0000       2.901086        78.9426 
 413   0.0000       2.911503        79.2260 
 414   0.0000       2.919212        79.4358 
 415   0.0000       2.929668        79.7203 
 416   0.0000       2.935087        79.8678 
 417   0.0000       2.946772        80.1857 
 418   0.0000       2.951225        80.3069 
 419   0.0000       2.964527        80.6689 
 420   0.0000       2.968536        80.7780 
 421   0.0000       2.979604        81.0792 
 422   0.0000       2.984889        81.2230 
 423   0.0000       3.000677        81.6526 
 424   0.0000       3.007430        81.8363 
 425   0.0000       3.016803        82.0914 
 426   0.0000       3.027597        82.3851 
 427   0.0000       3.029970        82.4497 
 428   0.0000       3.032249        82.5117 
 429   0.0000       3.049431        82.9792 
 430   0.0000       3.054147        83.1076 
 431   0.0000       3.057874        83.2090 
 432   0.0000       3.067014        83.4577 
 433   0.0000       3.072906        83.6180 
 434   0.0000       3.078896        83.7810 
 435   0.0000       3.092213        84.1434 
 436   0.0000       3.096727        84.2662 
 437   0.0000       3.100756        84.3759 
 438   0.0000       3.107810        84.5678 
 439   0.0000       3.111218        84.6605 
 440   0.0000       3.120405        84.9105 
 441   0.0000       3.126800        85.0846 
 442   0.0000       3.133360        85.2631 
 443   0.0000       3.139454        85.4289 
 444   0.0000       3.155881        85.8759 
 445   0.0000       3.159312        85.9692 
 446   0.0000       3.164910        86.1216 
 447   0.0000       3.170119        86.2633 
 448   0.0000       3.179518        86.5191 
 449   0.0000       3.188526        86.7642 
 450   0.0000       3.200326        87.0853 
 451   0.0000       3.204024        87.1859 
 452   0.0000       3.210773        87.3696 
 453   0.0000       3.220593        87.6368 
 454   0.0000       3.232280        87.9548 
 455   0.0000       3.236872        88.0798 
 456   0.0000       3.238076        88.1125 
 457   0.0000       3.254022        88.5464 
 458   0.0000       3.259998        88.7091 
 459   0.0000       3.265814        88.8673 
 460   0.0000       3.268136        88.9305 
 461   0.0000       3.286595        89.4328 
 462   0.0000       3.292202        89.5854 
 463   0.0000       3.293413        89.6183 
 464   0.0000       3.304896        89.9308 
 465   0.0000       3.316692        90.2518 
 466   0.0000       3.321850        90.3921 
 467   0.0000       3.329137        90.5904 
 468   0.0000       3.336525        90.7915 
 469   0.0000       3.339461        90.8714 
 470   0.0000       3.344180        90.9998 
 471   0.0000       3.352525        91.2268 
 472   0.0000       3.356668        91.3396 
 473   0.0000       3.359944        91.4287 
 474   0.0000       3.365886        91.5904 
 475   0.0000       3.375005        91.8385 
 476   0.0000       3.380985        92.0013 
 477   0.0000       3.384399        92.0942 
 478   0.0000       3.390358        92.2563 
 479   0.0000       3.397191        92.4423 
 480   0.0000       3.411418        92.8294 
 481   0.0000       3.415860        92.9503 
 482   0.0000       3.419696        93.0547 
 483   0.0000       3.422440        93.1293 
 484   0.0000       3.428254        93.2875 
 485   0.0000       3.430789        93.3565 
 486   0.0000       3.435857        93.4944 
 487   0.0000       3.438847        93.5758 
 488   0.0000       3.443549        93.7037 
 489   0.0000       3.448621        93.8417 
 490   0.0000       3.453510        93.9748 
 491   0.0000       3.455677        94.0338 
 492   0.0000       3.466408        94.3257 
 493   0.0000       3.475354        94.5692 
 494   0.0000       3.484775        94.8256 
 495   0.0000       3.485609        94.8482 
 496   0.0000       3.496360        95.1408 
 497   0.0000       3.505818        95.3982 
 498   0.0000       3.515766        95.6689 
 499   0.0000       3.524160        95.8973 
 500   0.0000       3.530896        96.0806 
 501   0.0000       3.536968        96.2458 
 502   0.0000       3.541156        96.3597 
 503   0.0000       3.551504        96.6413 
 504   0.0000       3.560715        96.8920 
 505   0.0000       3.563114        96.9573 
 506   0.0000       3.567786        97.0844 
 507   0.0000       3.578242        97.3689 
 508   0.0000       3.578984        97.3891 
 509   0.0000       3.594960        97.8238 
 510   0.0000       3.604409        98.0809 
 511   0.0000       3.608161        98.1830 
 512   0.0000       3.616505        98.4101 
 513   0.0000       3.620829        98.5278 
 514   0.0000       3.621681        98.5510 
 515   0.0000       3.626960        98.6946 
 516   0.0000       3.634181        98.8911 
 517   0.0000       3.638551        99.0100 
 518   0.0000       3.645818        99.2078 
 519   0.0000       3.648016        99.2676 
 520   0.0000       3.654043        99.4316 
 521   0.0000       3.661653        99.6387 
 522   0.0000       3.663903        99.6999 
 523   0.0000       3.673029        99.9482 
 524   0.0000       3.684090       100.2492 
 525   0.0000       3.691236       100.4436 
 526   0.0000       3.694806       100.5408 
 527   0.0000       3.703613       100.7804 
 528   0.0000       3.707925       100.8978 
 529   0.0000       3.712847       101.0317 
 530   0.0000       3.719592       101.2152 
 531   0.0000       3.733760       101.6008 
 532   0.0000       3.739540       101.7581 
 533   0.0000       3.746568       101.9493 
 534   0.0000       3.751150       102.0740 
 535   0.0000       3.759180       102.2925 
 536   0.0000       3.762620       102.3861 
 537   0.0000       3.768098       102.5351 
 538   0.0000       3.776760       102.7709 
 539   0.0000       3.781427       102.8978 
 540   0.0000       3.788495       103.0902 
 541   0.0000       3.798820       103.3711 
 542   0.0000       3.808071       103.6229 
 543   0.0000       3.815886       103.8355 
 544   0.0000       3.825378       104.0938 
 545   0.0000       3.831417       104.2581 
 546   0.0000       3.834205       104.3340 
 547   0.0000       3.843463       104.5859 
 548   0.0000       3.846709       104.6743 
 549   0.0000       3.852544       104.8331 
 550   0.0000       3.858672       104.9998 
 551   0.0000       3.868192       105.2588 
 552   0.0000       3.872817       105.3847 
 553   0.0000       3.877479       105.5116 
 554   0.0000       3.897660       106.0607 
 555   0.0000       3.905292       106.2684 
 556   0.0000       3.913497       106.4917 
 557   0.0000       3.924248       106.7842 
 558   0.0000       3.934285       107.0573 
 559   0.0000       3.939204       107.1912 
 560   0.0000       3.949158       107.4621 
 561   0.0000       3.952038       107.5404 
 562   0.0000       3.961013       107.7846 
 563   0.0000       3.976587       108.2084 
 564   0.0000       3.988867       108.5426 
 565   0.0000       3.997145       108.7679 
 566   0.0000       4.002989       108.9269 
 567   0.0000       4.010960       109.1438 
 568   0.0000       4.016358       109.2907 
 569   0.0000       4.027152       109.5844 
 570   0.0000       4.032733       109.7363 
 571   0.0000       4.034652       109.7885 
 572   0.0000       4.049769       110.1998 
 573   0.0000       4.058084       110.4261 
 574   0.0000       4.067287       110.6765 
 575   0.0000       4.073304       110.8403 
 576   0.0000       4.081847       111.0727 
 577   0.0000       4.091899       111.3462 
 578   0.0000       4.099854       111.5627 
 579   0.0000       4.103761       111.6690 
 580   0.0000       4.109162       111.8160 
 581   0.0000       4.126714       112.2936 
 582   0.0000       4.135536       112.5337 
 583   0.0000       4.138325       112.6095 
 584   0.0000       4.156272       113.0979 
 585   0.0000       4.164169       113.3128 
 586   0.0000       4.164529       113.3226 
 587   0.0000       4.167741       113.4100 
 588   0.0000       4.179701       113.7354 
 589   0.0000       4.183698       113.8442 
 590   0.0000       4.188527       113.9756 
 591   0.0000       4.195366       114.1617 
 592   0.0000       4.205121       114.4272 
 593   0.0000       4.209102       114.5355 
 594   0.0000       4.217934       114.7758 
 595   0.0000       4.220989       114.8590 
 596   0.0000       4.226934       115.0207 
 597   0.0000       4.239282       115.3567 
 598   0.0000       4.241032       115.4044 
 599   0.0000       4.246099       115.5422 
 600   0.0000       4.250513       115.6623 
 601   0.0000       4.259820       115.9156 
 602   0.0000       4.274221       116.3075 
 603   0.0000       4.279300       116.4457 
 604   0.0000       4.295269       116.8802 
 605   0.0000       4.299536       116.9963 
 606   0.0000       4.304001       117.1178 
 607   0.0000       4.318799       117.5205 
 608   0.0000       4.329303       117.8063 
 609   0.0000       4.331286       117.8603 
 610   0.0000       4.337685       118.0344 
 611   0.0000       4.349918       118.3673 
 612   0.0000       4.355618       118.5224 
 613   0.0000       4.361368       118.6789 
 614   0.0000       4.368223       118.8654 
 615   0.0000       4.375016       119.0503 
 616   0.0000       4.382220       119.2463 
 617   0.0000       4.395975       119.6206 
 618   0.0000       4.401631       119.7745 
 619   0.0000       4.407770       119.9415 
 620   0.0000       4.417809       120.2147 
 621   0.0000       4.428389       120.5026 
 622   0.0000       4.437443       120.7490 
 623   0.0000       4.442147       120.8770 
 624   0.0000       4.455094       121.2293 
 625   0.0000       4.468361       121.5903 
 626   0.0000       4.474947       121.7695 
 627   0.0000       4.478278       121.8601 
 628   0.0000       4.489945       122.1776 
 629   0.0000       4.501834       122.5011 
 630   0.0000       4.509901       122.7206 
 631   0.0000       4.524217       123.1102 
 632   0.0000       4.532917       123.3469 
 633   0.0000       4.534344       123.3858 
 634   0.0000       4.542466       123.6068 
 635   0.0000       4.550766       123.8326 
 636   0.0000       4.560873       124.1077 
 637   0.0000       4.568879       124.3255 
 638   0.0000       4.575583       124.5079 
 639   0.0000       4.582439       124.6945 
 640   0.0000       4.597840       125.1136 
 641   0.0000       4.600528       125.1867 
 642   0.0000       4.607502       125.3765 
 643   0.0000       4.613301       125.5343 
 644   0.0000       4.620623       125.7335 
 645   0.0000       4.632518       126.0572 
 646   0.0000       4.636368       126.1620 
 647   0.0000       4.643906       126.3671 
 648   0.0000       4.647970       126.4777 
 649   0.0000       4.656485       126.7094 
 650   0.0000       4.660849       126.8282 
 651   0.0000       4.667151       126.9996 
 652   0.0000       4.676302       127.2486 
 653   0.0000       4.684696       127.4771 
 654   0.0000       4.690873       127.6451 
 655   0.0000       4.700563       127.9088 
 656   0.0000       4.701593       127.9368 
 657   0.0000       4.715337       128.3108 
 658   0.0000       4.731807       128.7590 
 659   0.0000       4.744218       129.0967 
 660   0.0000       4.749847       129.2499 
 661   0.0000       4.770309       129.8067 
 662   0.0000       4.784587       130.1952 
 663   0.0000       4.792739       130.4171 
 664   0.0000       4.811459       130.9265 
 665   0.0000       4.828391       131.3872 
 666   0.0000       4.845434       131.8510 
 667   0.0000       4.856373       132.1486 
 668   0.0000       4.866316       132.4192 
 669   0.0000       4.878997       132.7643 
 670   0.0000       4.917248       133.8051 
 671   0.0000       4.932497       134.2201 
 672   0.0000       4.945301       134.5685 
 673   0.0000       4.957767       134.9077 
 674   0.0000       4.984206       135.6271 
 675   0.0000       4.990000       135.7848 
 676   0.0000       5.018600       136.5630 
 677   0.0000       5.024294       136.7180 
 678   0.0000       5.035775       137.0304 
 679   0.0000       5.053263       137.5063 
 680   0.0000       5.061088       137.7192 
 681   0.0000       5.079888       138.2308 
 682   0.0000       5.090252       138.5128 
 683   0.0000       5.098124       138.7270 
 684   0.0000       5.113564       139.1471 
 685   0.0000       5.120729       139.3421 
 686   0.0000       5.125185       139.4634 
 687   0.0000       5.144988       140.0022 
 688   0.0000       5.149709       140.1307 
 689   0.0000       5.153599       140.2366 
 690   0.0000       5.169865       140.6792 
 691   0.0000       5.186773       141.1393 
 692   0.0000       5.192448       141.2937 
 693   0.0000       5.207184       141.6947 
 694   0.0000       5.210717       141.7908 
 695   0.0000       5.220571       142.0590 
 696   0.0000       5.224151       142.1564 
 697   0.0000       5.229985       142.3151 
 698   0.0000       5.246133       142.7545 
 699   0.0000       5.260023       143.1325 
 700   0.0000       5.274105       143.5157 
 701   0.0000       5.285965       143.8384 
 702   0.0000       5.297320       144.1474 
 703   0.0000       5.307237       144.4173 
 704   0.0000       5.328198       144.9876 
 705   0.0000       5.331194       145.0692 
 706   0.0000       5.347736       145.5193 
 707   0.0000       5.362182       145.9124 
 708   0.0000       5.373949       146.2326 
 709   0.0000       5.382486       146.4649 
 710   0.0000       5.389079       146.6443 
 711   0.0000       5.398706       146.9062 
 712   0.0000       5.429064       147.7323 
 713   0.0000       5.452323       148.3652 
 714   0.0000       5.466218       148.7434 
 715   0.0000       5.483871       149.2237 
 716   0.0000       5.501129       149.6933 
 717   0.0000       5.515730       150.0906 
 718   0.0000       5.520733       150.2268 
 719   0.0000       5.533326       150.5694 
 720   0.0000       5.547713       150.9609 
 721   0.0000       5.557181       151.2186 
 722   0.0000       5.566339       151.4678 
 723   0.0000       5.578461       151.7977 
 724   0.0000       5.584565       151.9638 
 725   0.0000       5.602037       152.4392 
 726   0.0000       5.616927       152.8444 
 727   0.0000       5.621825       152.9776 
 728   0.0000       5.622788       153.0039 
 729   0.0000       5.637634       153.4078 
 730   0.0000       5.656885       153.9317 
 731   0.0000       5.669334       154.2704 
 732   0.0000       5.681975       154.6144 
 733   0.0000       5.707008       155.2956 
 734   0.0000       5.711700       155.4233 
 735   0.0000       5.723921       155.7558 
 736   0.0000       5.732804       155.9975 
 737   0.0000       5.742047       156.2490 
 738   0.0000       5.750455       156.4778 
 739   0.0000       5.756077       156.6308 
 740   0.0000       5.762338       156.8012 
 741   0.0000       5.772161       157.0685 
 742   0.0000       5.789419       157.5381 
 743   0.0000       5.825886       158.5304 
 744   0.0000       5.834826       158.7737 
 745   0.0000       5.850074       159.1886 
 746   0.0000       5.871240       159.7646 
 747   0.0000       5.884073       160.1138 
 748   0.0000       5.893480       160.3697 
 749   0.0000       5.938780       161.6024 
 750   0.0000       5.955458       162.0563 
 751   0.0000       5.974485       162.5740 
 752   0.0000       5.987973       162.9410 
 753   0.0000       6.009809       163.5352 
 754   0.0000       6.021795       163.8614 
 755   0.0000       6.035574       164.2363 
 756   0.0000       6.045748       164.5132 
 757   0.0000       6.059775       164.8949 
 758   0.0000       6.064957       165.0359 
 759   0.0000       6.103130       166.0746 
 760   0.0000       6.127198       166.7295 
 761   0.0000       6.171364       167.9314 
 762   0.0000       6.224251       169.3705 
 763   0.0000       6.230485       169.5401 
 764   0.0000       6.290442       171.1716 
 765   0.0000       6.296102       171.3256 
 766   0.0000       6.323250       172.0644 
 767   0.0000       6.336020       172.4119 
 768   0.0000       6.350451       172.8045 
 769   0.0000       6.359364       173.0471 
 770   0.0000       6.374854       173.4686 
 771   0.0000       6.383109       173.6932 
 772   0.0000       6.402401       174.2182 
 773   0.0000       6.451108       175.5436 
 774   0.0000       6.458134       175.7348 
 775   0.0000       6.478659       176.2933 
 776   0.0000       6.495733       176.7579 
 777   0.0000       6.552767       178.3099 
 778   0.0000       6.565343       178.6521 
 779   0.0000       6.599313       179.5764 
 780   0.0000       6.662416       181.2935 
 781   0.0000       6.700178       182.3211 
 782   0.0000       6.713472       182.6829 
 783   0.0000       6.783546       184.5897 
 784   0.0000       6.787596       184.6999 
 785   0.0000       6.867019       186.8611 
 786   0.0000       6.908315       187.9848 
 787   0.0000       6.922679       188.3757 
 788   0.0000       6.959502       189.3777 
 789   0.0000       7.014268       190.8679 
 790   0.0000       7.052496       191.9082 
 791   0.0000       7.061886       192.1637 
 792   0.0000       7.082151       192.7151 
 793   0.0000       7.131935       194.0698 
 794   0.0000       7.248756       197.2487 
 795   0.0000       7.259596       197.5436 
 796   0.0000       7.276552       198.0051 
 797   0.0000       7.284318       198.2164 
 798   0.0000       7.348932       199.9746 
 799   0.0000       7.358113       200.2244 
 800   0.0000       7.392636       201.1638 
 801   0.0000       7.566790       205.9028 
 802   0.0000       7.589266       206.5144 
 803   0.0000       7.596067       206.6995 
 804   0.0000       7.630639       207.6402 
 805   0.0000       7.818392       212.7493 
 806   0.0000       7.825063       212.9308 
 807   0.0000       7.886532       214.6034 
 808   0.0000       7.935993       215.9493 
 809   0.0000       9.410391       256.0698 
 810   0.0000       9.644780       262.4478 
 811   0.0000      10.742346       292.3141 
 812   0.0000      11.296770       307.4007 
 813   0.0000      11.801940       321.1471 
 814   0.0000      12.680262       345.0475 
 815   0.0000      12.914231       351.4141 
 816   0.0000      12.963303       352.7494 
 817   0.0000      13.120413       357.0246 
 818   0.0000      13.195427       359.0658 
 819   0.0000      13.398235       364.5845 
 820   0.0000      13.476927       366.7258 
 821   0.0000      13.741775       373.9327 
 822   0.0000      13.967530       380.0758 
 823   0.0000      13.994854       380.8193 
 824   0.0000      14.186624       386.0377 
 825   0.0000      14.510188       394.8423 
 826   0.0000      14.712247       400.3406 
 827   0.0000      16.004869       435.5146 

                    ********************************
                    * MULLIKEN POPULATION ANALYSIS *
                    ********************************

-----------------------
MULLIKEN ATOMIC CHARGES
-----------------------
   0 C :   -0.320244
   1 C :    0.039505
   2 O :   -0.382726
   3 C :    0.476305
   4 O :   -0.409893
   5 C :   -0.233682
   6 C :    0.157501
   7 C :   -0.272175
   8 N :   -0.124532
   9 C :    0.202084
  10 S :   -0.434045
  11 N :   -0.191722
  12 C :    0.026646
  13 C :    0.074922
  14 C :   -0.185566
  15 C :   -0.130062
  16 C :   -0.280135
  17 C :    0.309454
  18 O :   -0.358668
  19 C :   -0.262881
  20 H :    0.110447
  21 H :    0.117150
  22 H :    0.100006
  23 H :    0.108532
  24 H :    0.116148
  25 H :    0.125668
  26 H :    0.137064
  27 H :    0.094277
  28 H :    0.198350
  29 H :    0.190838
  30 H :    0.148710
  31 H :    0.150803
  32 H :    0.161499
  33 H :    0.131717
  34 H :    0.241146
  35 H :    0.167558
Sum of atomic charges:    0.0000000

--------------------------------
MULLIKEN REDUCED ORBITAL CHARGES
--------------------------------
  0 C s       :     3.262112  s :     3.262112
      pz      :     0.971256  p :     2.978164
      px      :     0.992178
      py      :     1.014729
      dz2     :     0.020635  d :     0.075445
      dxz     :     0.016615
      dyz     :     0.010332
      dx2y2   :     0.015868
      dxy     :     0.011995
      f0      :     0.000478  f :     0.004523
      f+1     :     0.001158
      f-1     :     0.000534
      f+2     :     0.000708
      f-2     :     0.000538
      f+3     :     0.000177
      f-3     :     0.000929
  1 C s       :     3.161374  s :     3.161374
      pz      :     0.990191  p :     2.633568
      px      :     0.701430
      py      :     0.941946
      dz2     :     0.032578  d :     0.153998
      dxz     :     0.035140
      dyz     :     0.014341
      dx2y2   :     0.040173
      dxy     :     0.031766
      f0      :     0.001412  f :     0.011554
      f+1     :     0.002088
      f-1     :     0.000978
      f+2     :     0.000934
      f-2     :     0.001823
      f+3     :     0.002185
      f-3     :     0.002134
  2 O s       :     3.719865  s :     3.719865
      pz      :     1.818772  p :     4.628227
      px      :     1.511871
      py      :     1.297584
      dz2     :     0.004049  d :     0.032348
      dxz     :     0.003568
      dyz     :     0.005858
      dx2y2   :     0.013462
      dxy     :     0.005410
      f0      :     0.000299  f :     0.002287
      f+1     :     0.000225
      f-1     :     0.000406
      f+2     :     0.000336
      f-2     :     0.000149
      f+3     :     0.000290
      f-3     :     0.000580
  3 C s       :     3.006910  s :     3.006910
      pz      :     0.824093  p :     2.206970
      px      :     0.648316
      py      :     0.734561
      dz2     :     0.074333  d :     0.283539
      dxz     :     0.046662
      dyz     :     0.085471
      dx2y2   :     0.034725
      dxy     :     0.042348
      f0      :     0.005372  f :     0.026276
      f+1     :     0.002518
      f-1     :     0.005922
      f+2     :     0.004857
      f-2     :     0.002622
      f+3     :     0.002931
      f-3     :     0.002055
  4 O s       :     3.780110  s :     3.780110
      pz      :     1.414889  p :     4.592161
      px      :     1.389006
      py      :     1.788266
      dz2     :     0.012221  d :     0.035198
      dxz     :     0.010931
      dyz     :     0.007753
      dx2y2   :     0.002126
      dxy     :     0.002167
      f0      :     0.000621  f :     0.002424
      f+1     :     0.000541
      f-1     :     0.000573
      f+2     :     0.000275
      f-2     :     0.000322
      f+3     :     0.000039
      f-3     :     0.000053
  5 C s       :     3.178554  s :     3.178554
      pz      :     0.899082  p :     2.962414
      px      :     1.153050
      py      :     0.910281
      dz2     :     0.011564  d :     0.082113
      dxz     :     0.011885
      dyz     :     0.032011
      dx2y2   :     0.011736
      dxy     :     0.014916
      f0      :     0.001094  f :     0.010601
      f+1     :     0.001164
      f-1     :     0.002167
      f+2     :     0.001736
      f-2     :     0.001318
      f+3     :     0.001359
      f-3     :     0.001763
  6 C s       :     3.190509  s :     3.190509
      pz      :     0.833172  p :     2.461570
      px      :     0.830952
      py      :     0.797447
      dz2     :     0.036972  d :     0.176070
      dxz     :     0.022889
      dyz     :     0.044255
      dx2y2   :     0.027473
      dxy     :     0.044481
      f0      :     0.002221  f :     0.014349
      f+1     :     0.001269
      f-1     :     0.002673
      f+2     :     0.002105
      f-2     :     0.002412
      f+3     :     0.001730
      f-3     :     0.001939
  7 C s       :     3.273520  s :     3.273520
      pz      :     0.946308  p :     2.924361
      px      :     0.998720
      py      :     0.979333
      dz2     :     0.012837  d :     0.069637
      dxz     :     0.017420
      dyz     :     0.012736
      dx2y2   :     0.012399
      dxy     :     0.014244
      f0      :     0.000281  f :     0.004656
      f+1     :     0.001174
      f-1     :     0.000480
      f+2     :     0.000661
      f-2     :     0.001120
      f+3     :     0.000415
      f-3     :     0.000524
  8 N s       :     3.342295  s :     3.342295
      pz      :     1.207720  p :     3.718051
      px      :     1.369274
      py      :     1.141057
      dz2     :     0.014719  d :     0.059270
      dxz     :     0.011645
      dyz     :     0.012501
      dx2y2   :     0.010309
      dxy     :     0.010096
      f0      :     0.000630  f :     0.004917
      f+1     :     0.001001
      f-1     :     0.000692
      f+2     :     0.000947
      f-2     :     0.000895
      f+3     :     0.000413
      f-3     :     0.000339
  9 C s       :     3.162147  s :     3.162147
      pz      :     0.787685  p :     2.356970
      px      :     0.722601
      py      :     0.846684
      dz2     :     0.059268  d :     0.261203
      dxz     :     0.038608
      dyz     :     0.049683
      dx2y2   :     0.060853
      dxy     :     0.052791
      f0      :     0.002535  f :     0.017596
      f+1     :     0.002426
      f-1     :     0.002194
      f+2     :     0.002892
      f-2     :     0.002414
      f+3     :     0.002334
      f-3     :     0.002801
 10 S s       :     5.855692  s :     5.855692
      pz      :     3.366727  p :    10.483500
      px      :     3.670434
      py      :     3.446339
      dz2     :     0.014477  d :     0.084725
      dxz     :     0.008852
      dyz     :     0.037652
      dx2y2   :     0.008491
      dxy     :     0.015253
      f0      :     0.001055  f :     0.010128
      f+1     :     0.000415
      f-1     :     0.002899
      f+2     :     0.002070
      f-2     :     0.002209
      f+3     :     0.001019
      f-3     :     0.000461
 11 N s       :     3.367051  s :     3.367051
      pz      :     1.345596  p :     3.762489
      px      :     1.366988
      py      :     1.049904
      dz2     :     0.007868  d :     0.057737
      dxz     :     0.008808
      dyz     :     0.013984
      dx2y2   :     0.012154
      dxy     :     0.014923
      f0      :     0.000422  f :     0.004444
      f+1     :     0.000560
      f-1     :     0.000573
      f+2     :     0.000629
      f-2     :     0.000734
      f+3     :     0.000824
      f-3     :     0.000702
 12 C s       :     3.140636  s :     3.140636
      pz      :     0.836541  p :     2.638270
      px      :     0.955700
      py      :     0.846028
      dz2     :     0.034613  d :     0.183114
      dxz     :     0.031338
      dyz     :     0.042244
      dx2y2   :     0.027228
      dxy     :     0.047691
      f0      :     0.001239  f :     0.011335
      f+1     :     0.001227
      f-1     :     0.002046
      f+2     :     0.002062
      f-2     :     0.002410
      f+3     :     0.001179
      f-3     :     0.001172
 13 C s       :     3.097033  s :     3.097033
      pz      :     0.888214  p :     2.708925
      px      :     0.902897
      py      :     0.917813
      dz2     :     0.017618  d :     0.107765
      dxz     :     0.013679
      dyz     :     0.027767
      dx2y2   :     0.021408
      dxy     :     0.027293
      f0      :     0.001021  f :     0.011355
      f+1     :     0.001534
      f-1     :     0.001244
[...]
      f-1     :     0.004792
      f+2     :     0.007674
      f-2     :     0.005006
      f+3     :     0.006811
      f-3     :     0.008465
 15 C s       :     2.705375  s :     2.705375
      pz      :     0.895265  p :     2.796960
      px      :     0.941513
      py      :     0.960182
      dz2     :     0.088207  d :     0.417499
      dxz     :     0.074005
      dyz     :     0.056164
      dx2y2   :     0.108849
      dxy     :     0.090274
      f0      :     0.003387  f :     0.041103
      f+1     :     0.005299
      f-1     :     0.005502
      f+2     :     0.007420
      f-2     :     0.005864
      f+3     :     0.007479
      f-3     :     0.006153
 16 C s       :     2.701381  s :     2.701381
      pz      :     0.934796  p :     2.870131
      px      :     0.964498
      py      :     0.970837
      dz2     :     0.040959  d :     0.390824
      dxz     :     0.061696
      dyz     :     0.082117
      dx2y2   :     0.097022
      dxy     :     0.109029
      f0      :     0.003753  f :     0.040342
      f+1     :     0.004726
      f-1     :     0.004162
      f+2     :     0.006092
      f-2     :     0.004911
      f+3     :     0.009019
      f-3     :     0.007680
 17 C s       :     2.700947  s :     2.700947
      pz      :     0.855953  p :     2.681264
      px      :     0.821045
      py      :     1.004266
      dz2     :     0.121532  d :     0.709400
      dxz     :     0.112486
      dyz     :     0.131421
      dx2y2   :     0.170695
      dxy     :     0.173266
      f0      :     0.008475  f :     0.099357
      f+1     :     0.015952
      f-1     :     0.009067
      f+2     :     0.016129
      f-2     :     0.013517
      f+3     :     0.018389
      f-3     :     0.017828
 18 O s       :     3.176984  s :     3.176984
      pz      :     1.437799  p :     4.346034
      px      :     1.396923
      py      :     1.511312
      dz2     :     0.007755  d :     0.075509
      dxz     :     0.017118
      dyz     :     0.017368
      dx2y2   :     0.015997
      dxy     :     0.017272
      f0      :     0.000565  f :     0.005063
      f+1     :     0.000720
      f-1     :     0.000422
      f+2     :     0.000629
      f-2     :     0.000966
      f+3     :     0.000791
      f-3     :     0.000970
 19 C s       :     2.694318  s :     2.694318
      pz      :     0.928004  p :     2.842675
      px      :     0.953861
      py      :     0.960809
      dz2     :     0.071189  d :     0.387412
      dxz     :     0.071586
      dyz     :     0.057313
      dx2y2   :     0.095778
      dxy     :     0.091546
      f0      :     0.003367  f :     0.040835
      f+1     :     0.005436
      f-1     :     0.005123
      f+2     :     0.007390
      f-2     :     0.006449
      f+3     :     0.007229
      f-3     :     0.005841
 20 H s       :     0.840803  s :     0.840803
      pz      :     0.069374  p :     0.157231
      px      :     0.043361
      py      :     0.044495
      dz2     :     0.009161  d :     0.028166
      dxz     :     0.007440
      dyz     :     0.007305
      dx2y2   :     0.002581
      dxy     :     0.001679
 21 H s       :     0.846131  s :     0.846131
      pz      :     0.041223  p :     0.151916
      px      :     0.065486
      py      :     0.045206
      dz2     :     0.003099  d :     0.027524
      dxz     :     0.007603
      dyz     :     0.001447
      dx2y2   :     0.008263
      dxy     :     0.007111
 22 H s       :     0.849561  s :     0.849561
      pz      :     0.040323  p :     0.153469
      px      :     0.039670
      py      :     0.073476
      dz2     :     0.002375  d :     0.027733
      dxz     :     0.000499
      dyz     :     0.009025
      dx2y2   :     0.006699
      dxy     :     0.009135
 23 H s       :     0.852894  s :     0.852894
      pz      :     0.040928  p :     0.143706
      px      :     0.026950
      py      :     0.075828
      dz2     :     0.002674  d :     0.026909
      dxz     :     0.000673
      dyz     :     0.009295
      dx2y2   :     0.007592
      dxy     :     0.006675
 24 H s       :     0.853535  s :     0.853535
      pz      :     0.075125  p :     0.148335
      px      :     0.035507
      py      :     0.037703
      dz2     :     0.009905  d :     0.027189
      dxz     :     0.007662
      dyz     :     0.006243
      dx2y2   :     0.001537
      dxy     :     0.001842
 25 H s       :     0.829129  s :     0.829129
      pz      :     0.041774  p :     0.150243
      px      :     0.059806
      py      :     0.048663
      dz2     :     0.003019  d :     0.027753
      dxz     :     0.006566
      dyz     :     0.003335
      dx2y2   :     0.008218
      dxy     :     0.006614
 26 H s       :     0.823948  s :     0.823948
      pz      :     0.063249  p :     0.151650
      px      :     0.049927
      py      :     0.038474
      dz2     :     0.008425  d :     0.027735
      dxz     :     0.007106
      dyz     :     0.006146
      dx2y2   :     0.002592
      dxy     :     0.003466
 27 H s       :     0.845066  s :     0.845066
      pz      :     0.039013  p :     0.150319
      px      :     0.044068
      py      :     0.067238
      dz2     :     0.003149  d :     0.027696
      dxz     :     0.002035
      dyz     :     0.007068
      dx2y2   :     0.007214
      dxy     :     0.008230
 28 H s       :     0.742499  s :     0.742499
      pz      :     0.056518  p :     0.253579
      px      :     0.079655
      py      :     0.117406
      dz2     :     0.005617  d :     0.061794
      dxz     :     0.002786
      dyz     :     0.016079
      dx2y2   :     0.018480
      dxy     :     0.018832
 29 H s       :     0.749655  s :     0.749655
      pz      :     0.109382  p :     0.254217
      px      :     0.099061
      py      :     0.045774
      dz2     :     0.019396  d :     0.061360
      dxz     :     0.014967
      dyz     :     0.009788
      dx2y2   :     0.010103
      dxy     :     0.007106
 30 H s       :     0.831872  s :     0.831872
      pz      :     0.040285  p :     0.146180
      px      :     0.061260
      py      :     0.044635
      dz2     :     0.003413  d :     0.028411
      dxz     :     0.006833
      dyz     :     0.003824
      dx2y2   :     0.006887
      dxy     :     0.007454
 31 H s       :     0.844508  s :     0.844508
      pz      :     0.051078  p :     0.157090
      px      :     0.067439
      py      :     0.038573
      dz2     :     0.004616  d :     0.027520
      dxz     :     0.006840
      dyz     :     0.002951
      dx2y2   :     0.006490
      dxy     :     0.006623
 32 H s       :     0.842952  s :     0.842952
      pz      :     0.038138  p :     0.151289
      px      :     0.039394
      py      :     0.073757
      dz2     :     0.002787  d :     0.026445
      dxz     :     0.000979
      dyz     :     0.007139
      dx2y2   :     0.007651
      dxy     :     0.007889
 33 H s       :     0.848363  s :     0.848363
      pz      :     0.059418  p :     0.159079
      px      :     0.049046
      py      :     0.050615
      dz2     :     0.006310  d :     0.027750
      dxz     :     0.005113
      dyz     :     0.005872
      dx2y2   :     0.005455
      dxy     :     0.004999
 34 H s       :     0.706256  s :     0.706256
      pz      :     0.120137  p :     0.347660
      px      :     0.084689
      py      :     0.142835
      dz2     :     0.025353  d :     0.099532
      dxz     :     0.013110
      dyz     :     0.023827
      dx2y2   :     0.018982
      dxy     :     0.018259
 35 H s       :     0.839464  s :     0.839464
      pz      :     0.041095  p :     0.157745
      px      :     0.041123
      py      :     0.075527
      dz2     :     0.002815  d :     0.028104
      dxz     :     0.001065
      dyz     :     0.007893
      dx2y2   :     0.008038
      dxy     :     0.008293


                      *****************************
                      * MAYER POPULATION ANALYSIS *
                      *****************************

  NA   - Mulliken gross atomic population
  ZA   - Total nuclear charge
  QA   - Mulliken gross atomic charge
  VA   - Mayer's total valence
  BVA  - Mayer's bonded valence
  FA   - Mayer's free valence

  ATOM       NA         ZA         QA         VA         BVA        FA
  0 C      6.3202     6.0000    -0.3202     3.8723     3.8723     0.0000
  1 C      5.9605     6.0000     0.0395     3.8469     3.8469     0.0000
  2 O      8.3827     8.0000    -0.3827     2.0008     2.0008     0.0000
  3 C      5.5237     6.0000     0.4763     4.2235     4.2235     0.0000
  4 O      8.4099     8.0000    -0.4099     2.0947     2.0947     0.0000
  5 C      6.2337     6.0000    -0.2337     3.6632     3.6632     0.0000
  6 C      5.8425     6.0000     0.1575     3.8686     3.8686     0.0000
  7 C      6.2722     6.0000    -0.2722     3.9101     3.9101    -0.0000
  8 N      7.1245     7.0000    -0.1245     3.2904     3.2904    -0.0000
  9 C      5.7979     6.0000     0.2021     4.1539     4.1539    -0.0000
 10 S     16.4340    16.0000    -0.4340     1.7653     1.7653    -0.0000
 11 N      7.1917     7.0000    -0.1917     3.2508     3.2508    -0.0000
 12 C      5.9734     6.0000     0.0266     3.9638     3.9638     0.0000
 13 C      5.9251     6.0000     0.0749     3.7013     3.7013    -0.0000
 14 C      6.1856     6.0000    -0.1856     3.8470     3.8470     0.0000
 15 C      6.1301     6.0000    -0.1301     3.7933     3.7933     0.0000
 16 C      6.2801     6.0000    -0.2801     3.7906     3.7906     0.0000
 17 C      5.6905     6.0000     0.3095     3.8838     3.8838     0.0000
 18 O      8.3587     8.0000    -0.3587     2.1186     2.1186     0.0000
 19 C      6.2629     6.0000    -0.2629     3.8302     3.8302    -0.0000
 20 H      0.8896     1.0000     0.1104     0.9756     0.9756     0.0000
 21 H      0.8828     1.0000     0.1172     0.9830     0.9830     0.0000
 22 H      0.9000     1.0000     0.1000     0.9806     0.9806    -0.0000
 23 H      0.8915     1.0000     0.1085     0.9783     0.9783    -0.0000
 24 H      0.8839     1.0000     0.1161     0.9878     0.9878     0.0000
 25 H      0.8743     1.0000     0.1257     0.9793     0.9793    -0.0000
 26 H      0.8629     1.0000     0.1371     0.9792     0.9792    -0.0000
 27 H      0.9057     1.0000     0.0943     0.9856     0.9856    -0.0000
 28 H      0.8017     1.0000     0.1983     1.0222     1.0222     0.0000
 29 H      0.8092     1.0000     0.1908     1.0210     1.0210     0.0000
 30 H      0.8513     1.0000     0.1487     0.9926     0.9926     0.0000
 31 H      0.8492     1.0000     0.1508     0.9863     0.9863     0.0000
 32 H      0.8385     1.0000     0.1615     0.9772     0.9772     0.0000
 33 H      0.8683     1.0000     0.1317     0.9914     0.9914     0.0000
 34 H      0.7589     1.0000     0.2411     1.0106     1.0106     0.0000
 35 H      0.8324     1.0000     0.1676     0.9893     0.9893    -0.0000

  Mayer bond orders larger than 0.100000
B(  0-C ,  1-C ) :   0.9592 B(  0-C , 20-H ) :   0.9738 B(  0-C , 21-H ) :   0.9779 
B(  0-C , 22-H ) :   0.9720 B(  1-C ,  2-O ) :   0.8831 B(  1-C , 23-H ) :   0.9853 
B(  1-C , 24-H ) :   0.9810 B(  2-O ,  3-C ) :   1.1065 B(  3-C ,  4-O ) :   2.0036 
B(  3-C ,  5-C ) :   1.0580 B(  5-C ,  6-C ) :   1.6567 B(  5-C , 12-C ) :   0.9717 
B(  6-C ,  7-C ) :   0.9708 B(  6-C ,  8-N ) :   1.1434 B(  7-C , 25-H ) :   0.9657 
B(  7-C , 26-H ) :   0.9570 B(  7-C , 27-H ) :   0.9880 B(  8-N ,  9-C ) :   1.1780 
B(  8-N , 28-H ) :   0.9487 B(  9-C , 10-S ) :   1.6186 B(  9-C , 11-N ) :   1.2987 
B( 11-N , 12-C ) :   0.9858 B( 11-N , 29-H ) :   0.9543 B( 12-C , 13-C ) :   0.9410 
B( 12-C , 30-H ) :   1.0058 B( 13-C , 14-C ) :   1.3606 B( 13-C , 19-C ) :   1.3636 
B( 14-C , 15-C ) :   1.3868 B( 14-C , 31-H ) :   0.9708 B( 15-C , 16-C ) :   1.3615 
B( 15-C , 32-H ) :   0.9715 B( 16-C , 17-C ) :   1.3308 B( 16-C , 33-H ) :   0.9850 
B( 17-C , 18-O ) :   1.1131 B( 17-C , 19-C ) :   1.3756 B( 18-O , 34-H ) :   0.9795 
B( 19-C , 35-H ) :   0.9576 

-------
TIMINGS
-------

Total SCF time: 0 days 1 hours 49 min 40 sec 

Total time                  ....    6580.237 sec
Sum of individual times     ....    6571.609 sec  ( 99.9%)

Fock matrix formation       ....    6552.329 sec  ( 99.6%)
Diagonalization             ....       1.545 sec  (  0.0%)
Density matrix formation    ....       0.231 sec  (  0.0%)
Population analysis         ....       0.342 sec  (  0.0%)
Initial guess               ....       5.774 sec  (  0.1%)
Orbital Transformation      ....       0.000 sec  (  0.0%)
Orbital Orthonormalization  ....       0.000 sec  (  0.0%)
DIIS solution               ....       8.049 sec  (  0.1%)
SOSCF solution              ....       1.976 sec  (  0.0%)

------------------------------------------------------------------------------
                                ORCA  MP2 
------------------------------------------------------------------------------

Freezing NCore=48 chemical core electrons

-------------
RI-MP2 ENERGY
-------------
Dimension of the basis                    ...  828
Memory devoted to MP2                     ...  256 MB   
Data format for buffers                   ... DOUBLE
Compression type for matrix containers    ... UNCOMPRESSED
Overall scaling of the MP2 energy         ...   1.000e+00
Calculating two index integrals           ... done (    0.041 sec)
Cholesky decomposition of V**-1           ... done (    0.388 sec)

-----------------
RI-TRANSFORMATION (AUX index driven)
-----------------

Dimension of the orbital-basis         ... 828
Dimension of the aux-basis             ... 2141
Transformation of internal/external MOs...   24-  76 to   77- 827
Number Format for Storage              ... Double (8 Byte)
Integral mode                          ... Direct

First Phase: integral generation and transformation of MO indices
  Aux angular momentum 0               ... done (    6.043 sec)
  Aux angular momentum 1               ... done (   10.910 sec)
  Aux angular momentum 2               ... done (   13.494 sec)
  Aux angular momentum 3               ... done (   11.580 sec)
  Aux angular momentum 4               ... done (    4.338 sec)
Closing buffer VIA ( 0.63 GB; CompressionRatio= 1.00)
  Phase 1 completed in    46.956 sec
Second Phase: sorting and transformation of aux index

IA-Transformation
Memory available                       ... 167 MB 
Max. # MO pairs treated in a batch     ... 12    
# of internal orbitals                 ... 53
# batches for internal orbitals        ... 5
Closing buffer IAV ( 0.63 GB; CompressionRatio= 1.00)
(ia|v) transformation done in    53.460 sec

  Phase 2 completed in    53.465 sec
RI-Integral transformation completed in   100.428 sec
Opening buffers                              ... done

Starting loop over batches of integrals:

Operator 0  - window                       ... ( 24- 76)x( 77-827)
Operator 0  - Memory available             ...   256 MB
Operator 0  - Memory needed per MO         ...  12.3 MB
Operator 0  - Number of orbitals per batch ... 13
Operator 0  - Number of batches            ... 5

OPERATOR  0   PASS   0:  MOs    24 ...   36
  Reading integrals       ... ok
  Internal MO  26
  Internal MO  29
  Internal MO  32
  Internal MO  35
OPERATOR  0   PASS   1:  MOs    37 ...   49
  Reading integrals       ... ok
  Internal MO  38
  Internal MO  41
  Internal MO  44
  Internal MO  47
OPERATOR  0   PASS   2:  MOs    50 ...   62
  Reading integrals       ... ok
  Internal MO  50
  Internal MO  53
  Internal MO  56
  Internal MO  59
  Internal MO  62
OPERATOR  0   PASS   3:  MOs    63 ...   75
  Reading integrals       ... ok
  Internal MO  65
  Internal MO  68
  Internal MO  71
  Internal MO  74
OPERATOR  0   PASS   4:  MOs    76 ...   76
  Reading integrals       ... ok
Time spent in pair loops =   140.941 sec
Deleting buffer (Ka|jb)[aa] ...done

-----------------------------------------------
 RI-MP2 CORRELATION ENERGY:     -3.539060586 Eh
-----------------------------------------------


-------
TIMINGS
-------

Total time                :  242.139 sec
Integral trafo            :  100.444 sec ( 41.5%)
I/O of integrals          :    6.184 sec (  2.6%)
K(i,j) Operators          :   58.242 sec ( 24.1%)
T(i,j) pair energies      :    9.970 sec (  4.1%)
V-calculation             :    0.041 sec (  0.0%)
V**(-1/2)                 :    0.388 sec (  0.2%)
Gamma(ia|P)               :    0.000 sec (  0.0%)
Gamma-Trafo               :    0.000 sec (  0.0%)
D(virtual)                :    0.000 sec (  0.0%)
D(internal)               :    0.000 sec (  0.0%)
W(virtual)                :    0.000 sec (  0.0%)
W(internal)               :    0.000 sec (  0.0%)
L(virtual)                :    0.000 sec (  0.0%)
L(internal)               :    0.000 sec (  0.0%)
G(D)                      :    0.000 sec (  0.0%)
G(Z)                      :    0.000 sec (  0.0%)
Z-Vector Solution         :    0.000 sec (  0.0%)
3-Index Derivative        :    0.000 sec (  0.0%)
2-Index Derivative        :    0.000 sec (  0.0%)
Separable Gradient        :    0.000 sec (  0.0%)


---------------------------------------
MP2 TOTAL ENERGY:    -1274.329095134 Eh
---------------------------------------

-------------------------   --------------------
FINAL SINGLE POINT ENERGY     -1274.329095134198
-------------------------   --------------------


                            ***************************************
                            *     ORCA property calculations      *
                            ***************************************


  WARNING: The energy has been calculated at the MP2 level but the densities
           used in the property calculations are still SCF densities
           MP2 response densities have not been calculated 
           use %mp2 Density relaxed end
           or  %mp2 Density unrelaxed end

                                    ---------------------
                                    Active property flags
                                    ---------------------
   (+) Dipole Moment


------------------------------------------------------------------------------
                       ORCA ELECTRIC PROPERTIES CALCULATION
------------------------------------------------------------------------------

Dipole Moment Calculation                       ... on
Quadrupole Moment Calculation                   ... off
Polarizability Calculation                      ... off
GBWName                                         ... CONFS/Conf272.orca.gbw
Electron density file                           ... CONFS/Conf272.orca.scfp
The origin for moment calculation is the CENTER OF MASS  = (32.782705, 31.482422 35.187779)

-------------
DIPOLE MOMENT
-------------
                                X             Y             Z
Electronic contribution:      9.37547       9.20942       5.56165
Nuclear contribution   :    -10.38810     -10.87548      -5.63801
                        -----------------------------------------
Total Dipole Moment    :     -1.01263      -1.66606      -0.07636
                        -----------------------------------------
Magnitude (a.u.)       :      1.95115
Magnitude (Debye)      :      4.95944



--------------------
Rotational spectrum 
--------------------
 
Rotational constants in cm-1:     0.011785     0.009811     0.006594 
Rotational constants in MHz :   353.319109   294.129931   197.671749 

 Dipole components along the rotational axes: 
x,y,z [a.u.] :    -1.918847    -0.117542     0.333482 
x,y,z [Debye]:    -4.877323    -0.298768     0.847645 

 

Timings for individual modules:

Sum of individual times         ...     6824.719 sec (= 113.745 min)
GTO integral calculation        ...        1.653 sec (=   0.028 min)   0.0 %
SCF iterations                  ...     6580.380 sec (= 109.673 min)  96.4 %
MP2 module                      ...      242.685 sec (=   4.045 min)   3.6 %
                             ****ORCA TERMINATED NORMALLY****
TOTAL RUN TIME: 0 days 1 hours 53 minutes 45 seconds 527 msec
