
                                 *****************
                                 * O   R   C   A *
                                 *****************

           --- An Ab Initio, DFT and Semiempirical electronic structure package ---

                  #######################################################
                  #                        -***-                        #
                  #          Department of theory and spectroscopy      #
                  #               Directorship: Frank Neese             #
                  #        Max Planck Institute fuer Kohlenforschung    #
                  #                Kaiser Wilhelm Platz 1               #
                  #                 D-45470 Muelheim/Ruhr               #
                  #                      Germany                        #
                  #                                                     #
                  #                  All rights reserved                #
                  #                        -***-                        #
                  #######################################################


                         Program Version 4.2.0 -  RELEASE  -


 With contributions from (in alphabetic order):
   Daniel Aravena         : Magnetic Suceptibility
   Michael Atanasov       : Ab Initio Ligand Field Theory (pilot matlab implementation)
   Alexander A. Auer      : GIAO ZORA, VPT2
   Ute Becker             : Parallelization
   Giovanni Bistoni       : ED, misc. LED, open-shell LED, HFLED
   Martin Brehm           : Molecular dynamics
   Dmytro Bykov           : SCF Hessian
   Vijay G. Chilkuri      : MRCI spin determinant printing, contributions to CSF-ICE
   Dipayan Datta          : RHF DLPNO-CCSD density
   Achintya Kumar Dutta   : EOM-CC, STEOM-CC
   Dmitry Ganyushin       : Spin-Orbit,Spin-Spin,Magnetic field MRCI
   Miquel Garcia          : C-PCM Hessian, Gaussian charge scheme
   Yang Guo               : DLPNO-NEVPT2, CIM, IAO-localization
   Andreas Hansen         : Spin unrestricted coupled pair/coupled cluster methods
   Benjamin Helmich-Paris : CASSCF linear response (MC-RPA)
   Lee Huntington         : MR-EOM, pCC
   Robert Izsak           : Overlap fitted RIJCOSX, COSX-SCS-MP3, EOM
   Christian Kollmar      : KDIIS, OOCD, Brueckner-CCSD(T), CCSD density
   Simone Kossmann        : Meta GGA functionals, TD-DFT gradient, OOMP2, MP2 Hessian
   Martin Krupicka        : AUTO-CI
   Lucas Lang             : DCDCAS
   Dagmar Lenk            : GEPOL surface, SMD
   Dimitrios Liakos       : Extrapolation schemes; Compound Job, initial MDCI parallelization
   Dimitrios Manganas     : Further ROCIS development; embedding schemes
   Dimitrios Pantazis     : SARC Basis sets
   Taras Petrenko         : DFT Hessian,TD-DFT gradient, ASA, ECA, R-Raman, ABS, FL, XAS/XES, NRVS
   Peter Pinski           : DLPNO-MP2, DLPNO-MP2 Gradient
   Christoph Reimann      : Effective Core Potentials
   Marius Retegan         : Local ZFS, SOC
   Christoph Riplinger    : Optimizer, TS searches, QM/MM, DLPNO-CCSD(T), (RO)-DLPNO pert. Triples
   Tobias Risthaus        : Range-separated hybrids, TD-DFT gradient, RPA, STAB
   Michael Roemelt        : Original ROCIS implementation
   Masaaki Saitow         : Open-shell DLPNO-CCSD energy and density
   Barbara Sandhoefer     : DKH picture change effects
   Avijit Sen             : IP-ROCIS
   Kantharuban Sivalingam : CASSCF convergence, NEVPT2, FIC-MRCI
   Bernardo de Souza      : ESD, SOC TD-DFT
   Georgi Stoychev        : AutoAux, RI-MP2 NMR
   Willem Van den Heuvel  : Paramagnetic NMR
   Boris Wezisla          : Elementary symmetry handling
   Frank Wennmohs         : Technical directorship


 We gratefully acknowledge several colleagues who have allowed us to
 interface, adapt or use parts of their codes:
   Stefan Grimme, W. Hujo, H. Kruse,             : VdW corrections, initial TS optimization,
                  C. Bannwarth                     DFT functionals, gCP, sTDA/sTD-DF
   Ed Valeev, F. Pavosevic, A. Kumar             : LibInt (2-el integral package), F12 methods
   Garnet Chan, S. Sharma, J. Yang, R. Olivares  : DMRG
   Ulf Ekstrom                                   : XCFun DFT Library
   Mihaly Kallay                                 : mrcc  (arbitrary order and MRCC methods)
   Andreas Klamt, Michael Diedenhofen            : otool_cosmo (COSMO solvation model)
   Jiri Pittner, Ondrej Demel                    : Mk-CCSD
   Frank Weinhold                                : gennbo (NPA and NBO analysis)
   Christopher J. Cramer and Donald G. Truhlar   : smd solvation model
   Lars Goerigk                                  : TD-DFT with DH, B97 family of functionals
   V. Asgeirsson, H. Jonsson                     : NEB implementation
   FAccTs GmbH                                   : IRC, NEB, NEB-TS, Multilevel, MM, QM/MM, CI optimization
   S Lehtola, MJT Oliveira, MAL Marques          : LibXC Library


 Your calculation uses the libint2 library for the computation of 2-el integrals
 For citations please refer to: http://libint.valeyev.net

 Your ORCA version has been built with support for libXC version: 4.2.3
 For citations please refer to: https://tddft.org/programs/libxc/

 This ORCA versions uses:
   CBLAS   interface :  Fast vector & matrix operations
   LAPACKE interface :  Fast linear algebra routines
   SCALAPACK package :  Parallel linear algebra routines


----- Orbital basis set information -----
Your calculation utilizes the basis: cc-pVTZ 
       H, B-Ne : Obtained from the ccRepo (grant-hill.group.shef.ac.uk/ccrepo) Feb. 2017
                 T. H. Dunning, Jr., J. Chem. Phys. 90, 1007 (1989)
            He : Obtained from the ccRepo (grant-hill.group.shef.ac.uk/ccrepo) Feb. 2017
                 D. E. Woon, T. H. Dunning, Jr., J. Chem. Phys. 100, 2975 (1994)
  Li-Be, Na-Mg : Obtained from the ccRepo (grant-hill.group.shef.ac.uk/ccrepo) Feb. 2017
                 B. P. Prascher, D. E. Woon, K. A. Peterson, T. H. Dunning, Jr., A. K. Wilson, Theor. Chem. Acc. 128, 69 (2011)
         Al-Ar : Obtained from the ccRepo (grant-hill.group.shef.ac.uk/ccrepo) Feb. 2017
                 D. E. Woon, T. H. Dunning, Jr., J. Chem. Phys. 98, 1358 (1993)
            Ca : Obtained from the Peterson Research Group Website (tyr0.chem.wsu.edu/~kipeters) Feb. 2017
                 J. Koput, K. A. Peterson, J. Phys. Chem. 106, 9595 (2002)
         Sc-Zn : Obtained from the ccRepo (grant-hill.group.shef.ac.uk/ccrepo) Feb. 2017
                 N. B. Balabanov, K. A. Peterson, J. Chem. Phys. 123, 064107 (2005)
                 N. B. Balabanov, K. A. Peterson, J. Chem. Phys. 125, 074110 (2006)
         Ga-Kr : Obtained from the ccRepo (grant-hill.group.shef.ac.uk/ccrepo) Feb. 2017
                 A. K. Wilson, D. E. Woon, K. A. Peterson, T. H. Dunning, Jr., J. Chem. Phys. 110, 7667 (1999)
             Y : Obtained from the ccRepo (grant-hill.group.shef.ac.uk/ccrepo) Feb. 2017
                 K. A. Peterson, D. Figgen, M. Dolg, H. Stoll, J. Chem. Phys. 126, 124101 (2007)
        Ag, Au : Obtained from the Peterson Research Group Website (tyr0.chem.wsu.edu/~kipeters) Feb. 2017
                 K. A. Peterson, C. Puzzarini, Theor. Chem. Acc. 114, 283 (2005)

----- AuxC basis set information -----
Your calculation utilizes the auxiliary basis: cc-pVTZ/C 
  Obtained from the EMSL Basis Set Exchange (bse.pnl.gov) Feb. 2017
  H-He, B-F, Al-Ar, Ga-Kr : F. Weigend, A. Kohn, C. Hattig, J. Chem. Phys. 116, 3175 (2002)
             Li-Be, Na-Mg : C. Haettig, Phys. Chem. Chem. Phys. 7, 59 (2005)
                       Ne : C. Haettig, Phys. Chem. Chem. Phys. 7, 59 (2005)
                            F. Weigend, A. Kohn, C. Hattig, J. Chem. Phys. 116, 3175 (2002)
                    Sc-Zn : J. G. Hill, J. A. Platts, J. Chem. Phys. 128, 044104 (2008)

================================================================================
                                        WARNINGS
                       Please study these warnings very carefully!
================================================================================


WARNING: No MP2 level density has been requested!
         To caclulate MP2 level properties use
         %mp2 Density relaxed end
         or
         %mp2 Density unrelaxed end

WARNING: Post HF methods need fully converged wavefunctions
  ===> : Setting SCFConvForced true
         You can overwrite this default with %scf ConvForced false 


INFO   : the flag for use of LIBINT has been found!

================================================================================
                                       INPUT FILE
================================================================================
NAME = CONFS/Conf442.orca
|  1> ! ri-mp2 cc-pvtz cc-pvtz/c TightSCF  NoKeepInts
|  2> 
|  3> %scf
|  4>   MaxCore 4096
|  5> end
|  6> *xyz  0  1
|  7>     C       15.4781429   14.2034356   17.0033619
|  8>     C       15.4350885   15.2549552   15.8715579
|  9>     O       16.7033773   15.9077236   15.6146589
| 10>     C       17.7671663   15.8260353   16.4665732
| 11>     O       18.4010248   14.7932405   16.6004178
| 12>     C       17.9012889   16.9835488   17.4138031
| 13>     C       17.4040795   18.2281971   17.1925247
| 14>     C       16.6540114   18.7294852   15.9754620
| 15>     N       17.6412763   19.2456318   18.1226079
| 16>     C       18.4843413   19.1433956   19.1975994
| 17>     S       18.8084127   20.4363026   20.1765766
| 18>     N       19.0442897   17.9109795   19.4200124
| 19>     C       18.6807145   16.6773875   18.6975429
| 20>     C       17.8895202   15.7379358   19.6038430
| 21>     C       18.2819008   14.3948789   19.7525449
| 22>     C       17.5480867   13.5199898   20.5708567
| 23>     C       16.4106223   13.9909416   21.2481744
| 24>     C       16.0143998   15.3270015   21.1011140
| 25>     O       14.9106119   15.7824071   21.7454075
| 26>     C       16.7459795   16.1952443   20.2847463
| 27>     H       16.1893734   13.4007169   16.7705589
| 28>     H       14.4904467   13.7447867   17.1315737
| 29>     H       15.7596181   14.6562452   17.9611400
| 30>     H       15.0879797   14.7752627   14.9472254
| 31>     H       14.6932237   16.0173509   16.1412250
| 32>     H       15.6220445   18.3595567   15.9733601
| 33>     H       17.1380172   18.3913025   15.0504419
| 34>     H       16.6137247   19.8246457   15.9284467
| 35>     H       17.2426794   20.1591280   17.9749055
| 36>     H       19.6409676   17.8543927   20.2354281
| 37>     H       19.6149244   16.1728335   18.4106893
| 38>     H       19.1500239   14.0227347   19.2133464
| 39>     H       17.8591748   12.4816245   20.6711715
| 40>     H       15.8397915   13.3177509   21.8790762
| 41>     H       14.5795696   15.0596474   22.2996174
| 42>     H       16.4211054   17.2253038   20.1864084
| 43> *
| 44> 
| 45>                          ****END OF INPUT****
================================================================================

                       ****************************
                       * Single Point Calculation *
                       ****************************

---------------------------------
CARTESIAN COORDINATES (ANGSTROEM)
---------------------------------
  C     15.478143   14.203436   17.003362
  C     15.435089   15.254955   15.871558
  O     16.703377   15.907724   15.614659
  C     17.767166   15.826035   16.466573
  O     18.401025   14.793240   16.600418
  C     17.901289   16.983549   17.413803
  C     17.404080   18.228197   17.192525
  C     16.654011   18.729485   15.975462
  N     17.641276   19.245632   18.122608
  C     18.484341   19.143396   19.197599
  S     18.808413   20.436303   20.176577
  N     19.044290   17.910979   19.420012
  C     18.680715   16.677387   18.697543
  C     17.889520   15.737936   19.603843
  C     18.281901   14.394879   19.752545
  C     17.548087   13.519990   20.570857
  C     16.410622   13.990942   21.248174
  C     16.014400   15.327001   21.101114
  O     14.910612   15.782407   21.745407
  C     16.745980   16.195244   20.284746
  H     16.189373   13.400717   16.770559
  H     14.490447   13.744787   17.131574
  H     15.759618   14.656245   17.961140
  H     15.087980   14.775263   14.947225
  H     14.693224   16.017351   16.141225
  H     15.622044   18.359557   15.973360
  H     17.138017   18.391302   15.050442
  H     16.613725   19.824646   15.928447
  H     17.242679   20.159128   17.974905
  H     19.640968   17.854393   20.235428
  H     19.614924   16.172833   18.410689
  H     19.150024   14.022735   19.213346
  H     17.859175   12.481625   20.671171
  H     15.839792   13.317751   21.879076
  H     14.579570   15.059647   22.299617
  H     16.421105   17.225304   20.186408

----------------------------
CARTESIAN COORDINATES (A.U.)
----------------------------
  NO LB      ZA    FRAG     MASS         X           Y           Z
   0 C     6.0000    0    12.011   29.249451   26.840603   32.131697
   1 C     6.0000    0    12.011   29.168090   28.827688   29.992898
   2 O     8.0000    0    15.999   31.564809   30.061241   29.507429
   3 C     6.0000    0    12.011   33.575078   29.906873   31.117314
   4 O     8.0000    0    15.999   34.772897   27.955173   31.370243
   5 C     6.0000    0    12.011   33.828533   32.094256   32.907319
   6 C     6.0000    0    12.011   32.888944   34.446300   32.489163
   7 C     6.0000    0    12.011   31.471521   35.393598   30.189248
   8 N     7.0000    0    14.007   33.337181   36.368973   34.246766
   9 C     6.0000    0    12.011   34.930343   36.175775   36.278205
  10 S    16.0000    0    32.060   35.542749   38.619015   38.128204
  11 N     7.0000    0    14.007   35.988492   33.846846   36.698505
  12 C     6.0000    0    12.011   35.301434   31.515695   35.333235
  13 C     6.0000    0    12.011   33.806294   29.740389   37.045894
  14 C     6.0000    0    12.011   34.547786   27.202379   37.326900
  15 C     6.0000    0    12.011   33.161078   25.549078   38.873286
  16 C     6.0000    0    12.011   31.011582   26.439048   40.153230
  17 C     6.0000    0    12.011   30.262830   28.963835   39.875327
  18 O     8.0000    0    15.999   28.176973   29.824427   41.092865
  19 C     6.0000    0    12.011   31.645315   30.604576   38.332615
  20 H     1.0000    0     1.008   30.593482   25.323685   31.691763
  21 H     1.0000    0     1.008   27.382976   25.973883   32.373983
  22 H     1.0000    0     1.008   29.781362   27.696290   33.941636
  23 H     1.0000    0     1.008   28.512150   27.921200   28.246162
  24 H     1.0000    0     1.008   27.766169   30.268407   30.502495
  25 H     1.0000    0     1.008   29.521386   34.694534   30.185276
  26 H     1.0000    0     1.008   32.386159   34.754525   28.441213
  27 H     1.0000    0     1.008   31.395390   37.463151   30.100402
  28 H     1.0000    0     1.008   32.583942   38.095231   33.967649
  29 H     1.0000    0     1.008   37.116050   33.739912   38.239417
  30 H     1.0000    0     1.008   37.066835   30.562226   34.791161
  31 H     1.0000    0     1.008   36.188301   26.499128   36.307963
  32 H     1.0000    0     1.008   33.748949   23.586852   39.062853
  33 H     1.0000    0     1.008   29.932868   25.166902   41.345462
  34 H     1.0000    0     1.008   27.551394   28.458609   42.140170
  35 H     1.0000    0     1.008   31.031392   32.551107   38.146784

--------------------------------
INTERNAL COORDINATES (ANGSTROEM)
--------------------------------
 C      0   0   0     0.000000000000     0.00000000     0.00000000
 C      1   0   0     1.545486151656     0.00000000     0.00000000
 O      2   1   0     1.449365433714   114.32164354     0.00000000
 C      3   2   1     1.365312414586   122.97447437   346.56110010
 O      4   3   2     1.219162037581   121.61976917    71.10125287
 C      4   3   2     1.501689334705   114.64892114   263.48446245
 C      6   4   3     1.358429500728   124.80642242   335.61646830
 C      7   6   4     1.514969811439   127.97029908   358.61316887
 N      7   6   4     1.398746027561   119.74113156   182.78490590
 C      9   7   6     1.369969912037   124.87872673     8.14399824
 S     10   9   7     1.653791746583   121.78598019   174.65343471
 N     10   9   7     1.371808731847   116.45254164   354.57284739
 C     12  10   9     1.475092650293   124.84015009   352.23132078
 C     13  12  10     1.526413373974   110.58851447   252.05554494
 C     14  13  12     1.407080888562   120.37536993   231.75725089
 C     15  14  13     1.404830335904   120.68586639   180.85870311
 C     16  15  14     1.405126373649   119.66312385     0.00000000
 C     17  16  15     1.401311916435   119.85871167     0.14050719
 O     18  17  16     1.356781523621   120.01418595   179.48620336
 C     18  17  16     1.398395737553   120.35232912   359.92683040
 H      1   2   3     1.097453129873   111.12240013   299.89779191
 H      1   2   3     1.096513047175   110.18941421   180.70772574
 H      1   2   3     1.096176861144   111.46722897    61.34969490
 H      2   1   3     1.097715802997   109.15630265   122.25668394
 H      2   1   3     1.097420124510   108.15268799   238.64701241
 H      8   7   6     1.096269672932   110.85151568    75.59148667
 H      8   7   6     1.097402086027   110.90572519   315.58451119
 H      8   7   6     1.096909284030   112.51835799   196.12495654
 H      9   7   6     1.007556844585   119.66459502   182.31494433
 H     12  10   9     1.011992759900   114.93180857   181.74653864
 H     13  12  10     1.099821741923   107.57979890   134.05234187
 H     15  14  13     1.087595533620   119.78831111   359.59274314
 H     16  15  14     1.088596050565   119.89692051   179.57194193
 H     17  16  15     1.084928846533   119.88502690   179.84425866
 H     19  18  17     0.969081627930   107.40626045     4.08092871
 H     20  18  17     1.084544188573   119.07247998   180.04267462

---------------------------
INTERNAL COORDINATES (A.U.)
---------------------------
 C      0   0   0     0.000000000000     0.00000000     0.00000000
 C      1   0   0     2.920545570397     0.00000000     0.00000000
 O      2   1   0     2.738903737691   114.32164354     0.00000000
 C      3   2   1     2.580066550810   122.97447437   346.56110010
 O      4   3   2     2.303882363901   121.61976917    71.10125287
 C      4   3   2     2.837781580823   114.64892114   263.48446245
 C      6   4   3     2.567059728615   124.80642242   335.61646830
 C      7   6   4     2.862878044777   127.97029908   358.61316887
 N      7   6   4     2.643246923000   119.74113156   182.78490590
 C      9   7   6     2.588867945463   124.87872673     8.14399824
 S     10   9   7     3.125213483582   121.78598019   174.65343471
 N     10   9   7     2.592342811312   116.45254164   354.57284739
 C     12  10   9     2.787521131214   124.84015009   352.23132078
 C     13  12  10     2.884503243965   110.58851447   252.05554494
 C     14  13  12     2.658997527658   120.37536993   231.75725089
 C     15  14  13     2.654744599484   120.68586639   180.85870311
 C     16  15  14     2.655304029746   119.66312385     0.00000000
 C     17  16  15     2.648095750262   119.85871167     0.14050719
 O     18  17  16     2.563945503209   120.01418595   179.48620336
 C     18  17  16     2.642584970819   120.35232912   359.92683040
 H      1   2   3     2.073885860275   111.12240013   299.89779191
 H      1   2   3     2.072109361432   110.18941421   180.70772574
 H      1   2   3     2.071474061903   111.46722897    61.34969490
 H      2   1   3     2.074382240542   109.15630265   122.25668394
 H      2   1   3     2.073823489178   108.15268799   238.64701241
 H      8   7   6     2.071649450766   110.85151568    75.59148667
 H      8   7   6     2.073789401385   110.90572519   315.58451119
 H      8   7   6     2.072858140572   112.51835799   196.12495654
 H      9   7   6     1.904006500623   119.66459502   182.31494433
 H     12  10   9     1.912389165721   114.93180857   181.74653864
 H     13  12  10     2.078361888367   107.57979890   134.05234187
 H     15  14  13     2.055257703017   119.78831111   359.59274314
 H     16  15  14     2.057148406035   119.89692051   179.57194193
 H     17  16  15     2.050218394738   119.88502690   179.84425866
 H     19  18  17     1.831298878202   107.40626045     4.08092871
 H     20  18  17     2.049491496539   119.07247998   180.04267462

---------------------
BASIS SET INFORMATION
---------------------
There are 5 groups of distinct atoms

 Group   1 Type C   : 18s5p2d1f contracted to 4s3p2d1f pattern {8811/311/11/1}
 Group   2 Type O   : 18s5p2d1f contracted to 4s3p2d1f pattern {8811/311/11/1}
 Group   3 Type N   : 18s5p2d1f contracted to 4s3p2d1f pattern {8811/311/11/1}
 Group   4 Type S   : 41s16p2d1f contracted to 5s4p2d1f pattern {13131311/7711/11/1}
 Group   5 Type H   : 5s2p1d contracted to 3s2p1d pattern {311/11/1}

Atom   0C    basis set group =>   1
Atom   1C    basis set group =>   1
Atom   2O    basis set group =>   2
Atom   3C    basis set group =>   1
Atom   4O    basis set group =>   2
Atom   5C    basis set group =>   1
Atom   6C    basis set group =>   1
Atom   7C    basis set group =>   1
Atom   8N    basis set group =>   3
Atom   9C    basis set group =>   1
Atom  10S    basis set group =>   4
Atom  11N    basis set group =>   3
Atom  12C    basis set group =>   1
Atom  13C    basis set group =>   1
Atom  14C    basis set group =>   1
Atom  15C    basis set group =>   1
Atom  16C    basis set group =>   1
Atom  17C    basis set group =>   1
Atom  18O    basis set group =>   2
Atom  19C    basis set group =>   1
Atom  20H    basis set group =>   5
Atom  21H    basis set group =>   5
Atom  22H    basis set group =>   5
Atom  23H    basis set group =>   5
Atom  24H    basis set group =>   5
Atom  25H    basis set group =>   5
Atom  26H    basis set group =>   5
Atom  27H    basis set group =>   5
Atom  28H    basis set group =>   5
Atom  29H    basis set group =>   5
Atom  30H    basis set group =>   5
Atom  31H    basis set group =>   5
Atom  32H    basis set group =>   5
Atom  33H    basis set group =>   5
Atom  34H    basis set group =>   5
Atom  35H    basis set group =>   5
---------------------------------
AUXILIARY/C BASIS SET INFORMATION
---------------------------------
There are 5 groups of distinct atoms

 Group   1 Type C   : 8s6p5d3f1g contracted to 8s6p5d3f1g pattern {11111111/111111/11111/111/1}
 Group   2 Type O   : 8s6p5d3f1g contracted to 8s6p5d3f1g pattern {11111111/111111/11111/111/1}
 Group   3 Type N   : 8s6p5d3f1g contracted to 8s6p5d3f1g pattern {11111111/111111/11111/111/1}
 Group   4 Type S   : 10s8p7d5f2g contracted to 10s8p7d5f2g pattern {1111111111/11111111/1111111/11111/11}
 Group   5 Type H   : 4s3p2d1f contracted to 4s3p2d1f pattern {1111/111/11/1}

Atom   0C    basis set group =>   1
Atom   1C    basis set group =>   1
Atom   2O    basis set group =>   2
Atom   3C    basis set group =>   1
Atom   4O    basis set group =>   2
Atom   5C    basis set group =>   1
Atom   6C    basis set group =>   1
Atom   7C    basis set group =>   1
Atom   8N    basis set group =>   3
Atom   9C    basis set group =>   1
Atom  10S    basis set group =>   4
Atom  11N    basis set group =>   3
Atom  12C    basis set group =>   1
Atom  13C    basis set group =>   1
Atom  14C    basis set group =>   1
Atom  15C    basis set group =>   1
Atom  16C    basis set group =>   1
Atom  17C    basis set group =>   1
Atom  18O    basis set group =>   2
Atom  19C    basis set group =>   1
Atom  20H    basis set group =>   5
Atom  21H    basis set group =>   5
Atom  22H    basis set group =>   5
Atom  23H    basis set group =>   5
Atom  24H    basis set group =>   5
Atom  25H    basis set group =>   5
Atom  26H    basis set group =>   5
Atom  27H    basis set group =>   5
Atom  28H    basis set group =>   5
Atom  29H    basis set group =>   5
Atom  30H    basis set group =>   5
Atom  31H    basis set group =>   5
Atom  32H    basis set group =>   5
Atom  33H    basis set group =>   5
Atom  34H    basis set group =>   5
Atom  35H    basis set group =>   5
------------------------------------------------------------------------------
                           ORCA GTO INTEGRAL CALCULATION
------------------------------------------------------------------------------

                         BASIS SET STATISTICS AND STARTUP INFO

 # of primitive gaussian shells          ...  682
 # of primitive gaussian functions       ... 1312
 # of contracted shells                  ...  298
 # of contracted basis functions         ...  828
 Highest angular momentum                ...    3
 Maximum contraction depth               ...   13
 Integral package used                   ... LIBINT
 Integral threshhold            Thresh   ...  2.500e-11
 Primitive cut-off              TCut     ...  2.500e-12


------------------------------ INTEGRAL EVALUATION ----------------------------


 * One electron integrals 
 Pre-screening matrix                    ... done
 Shell pair data                         ... done (   0.012 sec)

-------------------------------------------------------------------------------
                                 ORCA SCF
-------------------------------------------------------------------------------

------------
SCF SETTINGS
------------
Hamiltonian:
 Ab initio Hamiltonian  Method          .... Hartree-Fock(GTOs)


General Settings:
 Integral files         IntName         .... CONFS/Conf442.orca
 Hartree-Fock type      HFTyp           .... RHF
 Total Charge           Charge          ....    0
 Multiplicity           Mult            ....    1
 Number of Electrons    NEL             ....  154
 Basis Dimension        Dim             ....  828
 Nuclear Repulsion      ENuc            ....   1726.6300065945 Eh

Convergence Acceleration:
 DIIS                   CNVDIIS         .... on
   Start iteration      DIISMaxIt       ....    12
   Startup error        DIISStart       ....  0.200000
   # of expansion vecs  DIISMaxEq       ....     5
   Bias factor          DIISBfac        ....   1.050
   Max. coefficient     DIISMaxC        ....  10.000
 Newton-Raphson         CNVNR           .... off
 SOSCF                  CNVSOSCF        .... on
   Start iteration      SOSCFMaxIt      ....   150
   Startup grad/error   SOSCFStart      ....  0.003300
 Level Shifting         CNVShift        .... on
   Level shift para.    LevelShift      ....    0.2500
   Turn off err/grad.   ShiftErr        ....    0.0010
 Zerner damping         CNVZerner       .... off
 Static damping         CNVDamp         .... on
   Fraction old density DampFac         ....    0.7000
   Max. Damping (<1)    DampMax         ....    0.9800
   Min. Damping (>=0)   DampMin         ....    0.0000
   Turn off err/grad.   DampErr         ....    0.1000
 Fernandez-Rico         CNVRico         .... off

SCF Procedure:
 Maximum # iterations   MaxIter         ....   125
 SCF integral mode      SCFMode         .... Direct
   Integral package                     .... LIBINT
 Reset frequency        DirectResetFreq ....    20
 Integral Threshold     Thresh          ....  2.500e-11 Eh
 Primitive CutOff       TCut            ....  2.500e-12 Eh

Convergence Tolerance:
 Convergence Check Mode ConvCheckMode   .... Total+1el-Energy
 Convergence forced     ConvForced      .... 1
 Energy Change          TolE            ....  1.000e-08 Eh
 1-El. energy change                    ....  1.000e-05 Eh
 Orbital Gradient       TolG            ....  1.000e-05
 Orbital Rotation angle TolX            ....  1.000e-05
 DIIS Error             TolErr          ....  5.000e-07


Diagonalization of the overlap matrix:
Smallest eigenvalue                        ... 3.352e-05
Time for diagonalization                   ...    0.280 sec
Threshold for overlap eigenvalues          ... 1.000e-08
Number of eigenvalues below threshold      ... 0
Time for construction of square roots      ...    0.248 sec
Total time needed                          ...    0.529 sec

-------------------
DFT GRID GENERATION
-------------------

General Integration Accuracy     IntAcc      ...  4.340
Radial Grid Type                 RadialGrid  ... Gauss-Chebyshev
Angular Grid (max. acc.)         AngularGrid ... Lebedev-110
Angular grid pruning method      GridPruning ... 3 (G Style)
Weight generation scheme         WeightScheme... Becke
Basis function cutoff            BFCut       ...    1.0000e-11
Integration weight cutoff        WCut        ...    1.0000e-14
Grids for H and He will be reduced by one unit

# of grid points (after initial pruning)     ...  46246 (   0.0 sec)
# of grid points (after weights+screening)   ...  41162 (   0.3 sec)
nearest neighbour list constructed           ...    0.0 sec
Grid point re-assignment to atoms done       ...    0.0 sec
Grid point division into batches done        ...    0.0 sec
Reduced shell lists constructed in    1.0 sec

Total number of grid points                  ...    41162
Total number of batches                      ...      663
Average number of points per batch           ...       62
Average number of grid points per atom       ...     1143
Average number of shells per batch           ...   153.61 (51.55%)
Average number of basis functions per batch  ...   391.08 (47.23%)
Average number of large shells per batch     ...    98.72 (64.27%)
Average number of large basis fcns per batch ...   252.59 (64.59%)
Maximum spatial batch extension              ...  19.57, 24.13, 21.40 au
Average spatial batch extension              ...   3.46,  3.30,  3.36 au

Time for grid setup =    1.276 sec

------------------------------
INITIAL GUESS: MODEL POTENTIAL
------------------------------
Loading Hartree-Fock densities                     ... done
Calculating cut-offs                               ... done
Setting up the integral package                    ... done
Initializing the effective Hamiltonian             ... done
Starting the Coulomb interaction                   ... done (   4.7 sec)
Reading the grid                                   ... done
Mapping shells                                     ... done
Starting the XC term evaluation                    ... done (   1.3 sec)
Transforming the Hamiltonian                       ... done (   0.2 sec)
Diagonalizing the Hamiltonian                      ... done (   0.3 sec)
Back transforming the eigenvectors                 ... done (   0.1 sec)
Now organizing SCF variables                       ... done
                      ------------------
                      INITIAL GUESS DONE (   8.2 sec)
                      ------------------
--------------
SCF ITERATIONS
--------------
ITER       Energy         Delta-E        Max-DP      RMS-DP      [F,P]     Damp
               ***  Starting incremental Fock matrix formation  ***
  0  -1270.0020967015   0.000000000000 0.04933016  0.00044563  0.3009031 0.7000
  1  -1270.2683372601  -0.266240558566 0.03608900  0.00036036  0.1745655 0.7000
                               ***Turning on DIIS***
  2  -1270.4343445885  -0.166007328370 0.02584166  0.00024073  0.1097244 0.7000
  3  -1272.5832857726  -2.148941184163 0.06313930  0.00051944  0.0828182 0.0000
  4  -1270.7403574344   1.842928338276 0.01127577  0.00010146  0.0067770 0.0000
  5  -1270.8014364357  -0.061079001328 0.00552939  0.00005511  0.0037178 0.0000
                      *** Initiating the SOSCF procedure ***
                           *** Shutting down DIIS ***
                      *** Re-Reading the Fockian *** 
                      *** Removing any level shift *** 
ITER      Energy       Delta-E        Grad      Rot      Max-DP    RMS-DP
  6  -1270.78060535   0.0208310862  0.001772  0.001772  0.002851  0.000028
               *** Restarting incremental Fock matrix formation ***
  7  -1270.79518151  -0.0145761648  0.001020  0.002636  0.001716  0.000017
  8  -1270.79523295  -0.0000514346  0.000474  0.003178  0.002016  0.000019
  9  -1270.79525304  -0.0000200872  0.000192  0.000384  0.000367  0.000005
 10  -1270.79525566  -0.0000026200  0.000057  0.000153  0.000125  0.000001
 11  -1270.79525592  -0.0000002602  0.000024  0.000144  0.000075  0.000001
 12  -1270.79525599  -0.0000000706  0.000011  0.000040  0.000028  0.000000
 13  -1270.79525599  -0.0000000059  0.000003  0.000007  0.000005  0.000000
                 **** Energy Check signals convergence ****
              ***Rediagonalizing the Fockian in SOSCF/NRSCF***

               *****************************************************
               *                     SUCCESS                       *
               *           SCF CONVERGED AFTER  14 CYCLES          *
               *****************************************************


----------------
TOTAL SCF ENERGY
----------------

Total Energy       :        -1270.79525599 Eh          -34580.09693 eV

Components:
Nuclear Repulsion  :         1726.63000659 Eh           46983.99110 eV
Electronic Energy  :        -2997.42526259 Eh          -81564.08803 eV
One Electron Energy:        -5174.44869835 Eh         -140803.90741 eV
Two Electron Energy:         2177.02343577 Eh           59239.81938 eV

Virial components:
Potential Energy   :        -2539.74957306 Eh          -69110.09937 eV
Kinetic Energy     :         1268.95431707 Eh           34530.00244 eV
Virial Ratio       :            2.00145075


---------------
SCF CONVERGENCE
---------------

  Last Energy change         ...    2.0159e-09  Tolerance :   1.0000e-08
  Last MAX-Density change    ...    1.7853e-06  Tolerance :   1.0000e-07
  Last RMS-Density change    ...    3.3009e-08  Tolerance :   5.0000e-09
  Last Orbital Gradient      ...    1.0818e-06  Tolerance :   1.0000e-05
  Last Orbital Rotation      ...    2.5270e-06  Tolerance :   1.0000e-05

             **** THE GBW FILE WAS UPDATED (CONFS/Conf442.orca.gbw) ****
             **** DENSITY FILE WAS UPDATED (CONFS/Conf442.orca.scfp) ****
             **** ENERGY FILE WAS UPDATED (CONFS/Conf442.orca.en.tmp) ****
             **** THE GBW FILE WAS UPDATED (CONFS/Conf442.orca.gbw) ****
             **** DENSITY FILE WAS UPDATED (CONFS/Conf442.orca.scfp) ****
----------------
ORBITAL ENERGIES
----------------

  NO   OCC          E(Eh)            E(eV) 
   0   2.0000     -91.889915     -2500.4517 
   1   2.0000     -20.595813      -560.4406 
   2   2.0000     -20.583976      -560.1185 
   3   2.0000     -20.551661      -559.2391 
   4   2.0000     -15.630323      -425.3227 
   5   2.0000     -15.608597      -424.7315 
   6   2.0000     -11.395615      -310.0905 
   7   2.0000     -11.384938      -309.7999 
   8   2.0000     -11.337827      -308.5180 
   9   2.0000     -11.312171      -307.8198 
  10   2.0000     -11.307652      -307.6969 
  11   2.0000     -11.307110      -307.6821 
  12   2.0000     -11.261211      -306.4331 
  13   2.0000     -11.260991      -306.4271 
  14   2.0000     -11.257502      -306.3322 
  15   2.0000     -11.252084      -306.1848 
  16   2.0000     -11.241849      -305.9063 
  17   2.0000     -11.237764      -305.7951 
  18   2.0000     -11.234241      -305.6992 
  19   2.0000     -11.225391      -305.4584 
  20   2.0000      -8.894974      -242.0445 
  21   2.0000      -6.576548      -178.9570 
  22   2.0000      -6.574542      -178.9024 
  23   2.0000      -6.573954      -178.8864 
  24   2.0000      -1.445411       -39.3316 
  25   2.0000      -1.415629       -38.5212 
  26   2.0000      -1.354838       -36.8670 
  27   2.0000      -1.341257       -36.4975 
  28   2.0000      -1.238933       -33.7131 
  29   2.0000      -1.156243       -31.4630 
  30   2.0000      -1.121236       -30.5104 
  31   2.0000      -1.044057       -28.4102 
  32   2.0000      -1.032331       -28.0912 
  33   2.0000      -1.013880       -27.5891 
  34   2.0000      -1.000640       -27.2288 
  35   2.0000      -0.985931       -26.8285 
  36   2.0000      -0.924397       -25.1541 
  37   2.0000      -0.895309       -24.3626 
  38   2.0000      -0.850632       -23.1469 
  39   2.0000      -0.839324       -22.8392 
  40   2.0000      -0.832165       -22.6444 
  41   2.0000      -0.821609       -22.3571 
  42   2.0000      -0.743632       -20.2353 
  43   2.0000      -0.728543       -19.8247 
  44   2.0000      -0.726422       -19.7669 
  45   2.0000      -0.693601       -18.8738 
  46   2.0000      -0.686323       -18.6758 
  47   2.0000      -0.677579       -18.4379 
  48   2.0000      -0.675508       -18.3815 
  49   2.0000      -0.664151       -18.0725 
  50   2.0000      -0.650052       -17.6888 
  51   2.0000      -0.647257       -17.6128 
  52   2.0000      -0.636058       -17.3080 
  53   2.0000      -0.624200       -16.9854 
  54   2.0000      -0.604519       -16.4498 
  55   2.0000      -0.603005       -16.4086 
  56   2.0000      -0.599687       -16.3183 
  57   2.0000      -0.578353       -15.7378 
  58   2.0000      -0.575219       -15.6525 
  59   2.0000      -0.565083       -15.3767 
  60   2.0000      -0.551387       -15.0040 
  61   2.0000      -0.546574       -14.8730 
  62   2.0000      -0.537495       -14.6260 
  63   2.0000      -0.528300       -14.3758 
  64   2.0000      -0.519390       -14.1333 
  65   2.0000      -0.511635       -13.9223 
  66   2.0000      -0.500109       -13.6087 
  67   2.0000      -0.494178       -13.4473 
  68   2.0000      -0.481750       -13.1091 
  69   2.0000      -0.465595       -12.6695 
  70   2.0000      -0.455875       -12.4050 
  71   2.0000      -0.449193       -12.2232 
  72   2.0000      -0.356091        -9.6897 
  73   2.0000      -0.348021        -9.4701 
  74   2.0000      -0.329094        -8.9551 
  75   2.0000      -0.319555        -8.6955 
  76   2.0000      -0.316998        -8.6260 
  77   0.0000       0.070724         1.9245 
  78   0.0000       0.106928         2.9096 
  79   0.0000       0.120308         3.2738 
  80   0.0000       0.132385         3.6024 
  81   0.0000       0.138400         3.7660 
  82   0.0000       0.143573         3.9068 
  83   0.0000       0.151614         4.1256 
  84   0.0000       0.156921         4.2700 
  85   0.0000       0.161052         4.3824 
  86   0.0000       0.168370         4.5816 
  87   0.0000       0.182338         4.9617 
  88   0.0000       0.192125         5.2280 
  89   0.0000       0.196711         5.3528 
  90   0.0000       0.199989         5.4420 
  91   0.0000       0.207184         5.6378 
  92   0.0000       0.216173         5.8824 
  93   0.0000       0.219199         5.9647 
  94   0.0000       0.226844         6.1727 
  95   0.0000       0.237274         6.4565 
  96   0.0000       0.245380         6.6771 
  97   0.0000       0.255108         6.9418 
  98   0.0000       0.268403         7.3036 
  99   0.0000       0.283871         7.7245 
 100   0.0000       0.289689         7.8828 
 101   0.0000       0.306243         8.3333 
 102   0.0000       0.312215         8.4958 
 103   0.0000       0.322611         8.7787 
 104   0.0000       0.330891         9.0040 
 105   0.0000       0.333348         9.0709 
 106   0.0000       0.339722         9.2443 
 107   0.0000       0.344832         9.3833 
 108   0.0000       0.351449         9.5634 
 109   0.0000       0.360148         9.8001 
 110   0.0000       0.370609        10.0848 
 111   0.0000       0.376086        10.2338 
 112   0.0000       0.381950        10.3934 
 113   0.0000       0.389474        10.5981 
 114   0.0000       0.392086        10.6692 
 115   0.0000       0.409933        11.1548 
 116   0.0000       0.421748        11.4764 
 117   0.0000       0.427785        11.6406 
 118   0.0000       0.433149        11.7866 
 119   0.0000       0.443249        12.0614 
 120   0.0000       0.447281        12.1711 
 121   0.0000       0.452025        12.3002 
 122   0.0000       0.453604        12.3432 
 123   0.0000       0.459878        12.5139 
 124   0.0000       0.462902        12.5962 
 125   0.0000       0.472788        12.8652 
 126   0.0000       0.485515        13.2115 
 127   0.0000       0.491418        13.3722 
 128   0.0000       0.499747        13.5988 
 129   0.0000       0.502830        13.6827 
 130   0.0000       0.507269        13.8035 
 131   0.0000       0.511014        13.9054 
 132   0.0000       0.513409        13.9706 
 133   0.0000       0.520027        14.1506 
 134   0.0000       0.524576        14.2744 
 135   0.0000       0.527423        14.3519 
 136   0.0000       0.534758        14.5515 
 137   0.0000       0.539471        14.6798 
 138   0.0000       0.549657        14.9569 
 139   0.0000       0.555678        15.1208 
 140   0.0000       0.561450        15.2778 
 141   0.0000       0.562622        15.3097 
 142   0.0000       0.566917        15.4266 
 143   0.0000       0.569036        15.4843 
 144   0.0000       0.573783        15.6134 
 145   0.0000       0.579723        15.7751 
 146   0.0000       0.585606        15.9351 
 147   0.0000       0.590664        16.0728 
 148   0.0000       0.593658        16.1543 
 149   0.0000       0.600492        16.3402 
 150   0.0000       0.606294        16.4981 
 151   0.0000       0.608071        16.5465 
 152   0.0000       0.613260        16.6876 
 153   0.0000       0.618566        16.8320 
 154   0.0000       0.624625        16.9969 
 155   0.0000       0.626330        17.0433 
 156   0.0000       0.634472        17.2649 
 157   0.0000       0.639379        17.3984 
 158   0.0000       0.643888        17.5211 
 159   0.0000       0.650600        17.7037 
 160   0.0000       0.652043        17.7430 
 161   0.0000       0.655466        17.8361 
 162   0.0000       0.658519        17.9192 
 163   0.0000       0.665711        18.1149 
 164   0.0000       0.672883        18.3101 
 165   0.0000       0.676326        18.4038 
 166   0.0000       0.680877        18.5276 
 167   0.0000       0.684458        18.6251 
 168   0.0000       0.690880        18.7998 
 169   0.0000       0.696499        18.9527 
 170   0.0000       0.703173        19.1343 
 171   0.0000       0.712726        19.3943 
 172   0.0000       0.719866        19.5886 
 173   0.0000       0.725955        19.7543 
 174   0.0000       0.727169        19.7873 
 175   0.0000       0.735112        20.0034 
 176   0.0000       0.743582        20.2339 
 177   0.0000       0.746351        20.3092 
 178   0.0000       0.751760        20.4564 
 179   0.0000       0.758413        20.6375 
 180   0.0000       0.760353        20.6902 
 181   0.0000       0.766336        20.8530 
 182   0.0000       0.781520        21.2663 
 183   0.0000       0.797635        21.7048 
 184   0.0000       0.801037        21.7973 
 185   0.0000       0.808901        22.0113 
 186   0.0000       0.815734        22.1973 
 187   0.0000       0.830067        22.5873 
 188   0.0000       0.832979        22.6665 
 189   0.0000       0.838880        22.8271 
 190   0.0000       0.843724        22.9589 
 191   0.0000       0.850351        23.1392 
 192   0.0000       0.857190        23.3253 
 193   0.0000       0.873438        23.7675 
 194   0.0000       0.878782        23.9129 
 195   0.0000       0.883169        24.0323 
 196   0.0000       0.887769        24.1574 
 197   0.0000       0.892099        24.2752 
 198   0.0000       0.898189        24.4410 
 199   0.0000       0.913627        24.8611 
 200   0.0000       0.919657        25.0251 
 201   0.0000       0.926679        25.2162 
 202   0.0000       0.932243        25.3676 
 203   0.0000       0.940641        25.5961 
 204   0.0000       0.948433        25.8082 
 205   0.0000       0.957901        26.0658 
 206   0.0000       0.971529        26.4367 
 207   0.0000       0.975807        26.5531 
 208   0.0000       0.976866        26.5819 
 209   0.0000       0.980892        26.6914 
 210   0.0000       0.984167        26.7805 
 211   0.0000       0.986635        26.8477 
 212   0.0000       1.002711        27.2851 
 213   0.0000       1.005604        27.3639 
 214   0.0000       1.011448        27.5229 
 215   0.0000       1.021898        27.8073 
 216   0.0000       1.024849        27.8876 
 217   0.0000       1.036049        28.1923 
 218   0.0000       1.042876        28.3781 
 219   0.0000       1.051502        28.6128 
 220   0.0000       1.053302        28.6618 
 221   0.0000       1.055061        28.7097 
 222   0.0000       1.074972        29.2515 
 223   0.0000       1.081751        29.4359 
 224   0.0000       1.090088        29.6628 
 225   0.0000       1.094257        29.7762 
 226   0.0000       1.106446        30.1079 
 227   0.0000       1.111768        30.2527 
 228   0.0000       1.118300        30.4305 
 229   0.0000       1.125158        30.6171 
 230   0.0000       1.130975        30.7754 
 231   0.0000       1.136134        30.9158 
 232   0.0000       1.144902        31.1544 
 233   0.0000       1.148462        31.2512 
 234   0.0000       1.164425        31.6856 
 235   0.0000       1.169664        31.8282 
 236   0.0000       1.172211        31.8975 
 237   0.0000       1.179892        32.1065 
 238   0.0000       1.186355        32.2824 
 239   0.0000       1.188802        32.3489 
 240   0.0000       1.198672        32.6175 
 241   0.0000       1.207628        32.8612 
 242   0.0000       1.212820        33.0025 
 243   0.0000       1.219212        33.1764 
 244   0.0000       1.227767        33.4092 
 245   0.0000       1.237084        33.6628 
 246   0.0000       1.239691        33.7337 
 247   0.0000       1.246992        33.9324 
 248   0.0000       1.254043        34.1242 
 249   0.0000       1.267608        34.4934 
 250   0.0000       1.272679        34.6314 
 251   0.0000       1.277321        34.7577 
 252   0.0000       1.287915        35.0459 
 253   0.0000       1.293273        35.1918 
 254   0.0000       1.297709        35.3125 
 255   0.0000       1.303965        35.4827 
 256   0.0000       1.312006        35.7015 
 257   0.0000       1.320923        35.9441 
 258   0.0000       1.331167        36.2229 
 259   0.0000       1.332718        36.2651 
 260   0.0000       1.341869        36.5141 
 261   0.0000       1.352122        36.7931 
 262   0.0000       1.356912        36.9235 
 263   0.0000       1.366169        37.1753 
 264   0.0000       1.373004        37.3613 
 265   0.0000       1.383498        37.6469 
 266   0.0000       1.397058        38.0159 
 267   0.0000       1.403794        38.1992 
 268   0.0000       1.413593        38.4658 
 269   0.0000       1.415709        38.5234 
 270   0.0000       1.426703        38.8226 
 271   0.0000       1.430709        38.9316 
 272   0.0000       1.440685        39.2030 
 273   0.0000       1.449765        39.4501 
 274   0.0000       1.452016        39.5114 
 275   0.0000       1.464193        39.8427 
 276   0.0000       1.472949        40.0810 
 277   0.0000       1.473667        40.1005 
 278   0.0000       1.482039        40.3283 
 279   0.0000       1.485685        40.4276 
 280   0.0000       1.492805        40.6213 
 281   0.0000       1.498882        40.7866 
 282   0.0000       1.507159        41.0119 
 283   0.0000       1.509307        41.0703 
 284   0.0000       1.514092        41.2005 
 285   0.0000       1.526675        41.5429 
 286   0.0000       1.536719        41.8163 
 287   0.0000       1.539509        41.8922 
 288   0.0000       1.545203        42.0471 
 289   0.0000       1.545926        42.0668 
 290   0.0000       1.551217        42.2108 
 291   0.0000       1.570374        42.7321 
 292   0.0000       1.576825        42.9076 
 293   0.0000       1.591213        43.2991 
 294   0.0000       1.596373        43.4395 
 295   0.0000       1.601576        43.5811 
 296   0.0000       1.607745        43.7490 
 297   0.0000       1.621719        44.1292 
 298   0.0000       1.625767        44.2394 
 299   0.0000       1.632140        44.4128 
 300   0.0000       1.634423        44.4749 
 301   0.0000       1.643850        44.7314 
 302   0.0000       1.648038        44.8454 
 303   0.0000       1.663977        45.2791 
 304   0.0000       1.674118        45.5551 
 305   0.0000       1.682566        45.7850 
 306   0.0000       1.689405        45.9710 
 307   0.0000       1.696927        46.1757 
 308   0.0000       1.705672        46.4137 
 309   0.0000       1.716411        46.7059 
 310   0.0000       1.720058        46.8052 
 311   0.0000       1.730354        47.0853 
 312   0.0000       1.746344        47.5204 
 313   0.0000       1.752873        47.6981 
 314   0.0000       1.758807        47.8596 
 315   0.0000       1.762900        47.9709 
 316   0.0000       1.773359        48.2555 
 317   0.0000       1.785015        48.5727 
 318   0.0000       1.790264        48.7156 
 319   0.0000       1.799676        48.9717 
 320   0.0000       1.816945        49.4416 
 321   0.0000       1.839062        50.0434 
 322   0.0000       1.845616        50.2218 
 323   0.0000       1.855334        50.4862 
 324   0.0000       1.872343        50.9490 
 325   0.0000       1.876077        51.0506 
 326   0.0000       1.892515        51.4980 
 327   0.0000       1.902814        51.7782 
 328   0.0000       1.909538        51.9612 
 329   0.0000       1.923231        52.3338 
 330   0.0000       1.937362        52.7183 
 331   0.0000       1.939984        52.7897 
 332   0.0000       1.944758        52.9196 
 333   0.0000       1.972265        53.6680 
 334   0.0000       1.980032        53.8794 
 335   0.0000       1.985555        54.0297 
 336   0.0000       1.994079        54.2616 
 337   0.0000       2.012404        54.7603 
 338   0.0000       2.023950        55.0745 
 339   0.0000       2.028021        55.1853 
 340   0.0000       2.032954        55.3195 
 341   0.0000       2.044209        55.6258 
 342   0.0000       2.055502        55.9331 
 343   0.0000       2.061079        56.0848 
 344   0.0000       2.094079        56.9828 
 345   0.0000       2.113434        57.5095 
 346   0.0000       2.127977        57.9052 
 347   0.0000       2.133293        58.0499 
 348   0.0000       2.143249        58.3208 
 349   0.0000       2.156157        58.6720 
 350   0.0000       2.176034        59.2129 
 351   0.0000       2.197158        59.7877 
 352   0.0000       2.211539        60.1790 
 353   0.0000       2.227113        60.6028 
 354   0.0000       2.246347        61.1262 
 355   0.0000       2.258729        61.4631 
 356   0.0000       2.278744        62.0078 
 357   0.0000       2.289864        62.3104 
 358   0.0000       2.295703        62.4692 
 359   0.0000       2.315442        63.0064 
 360   0.0000       2.324844        63.2622 
 361   0.0000       2.342934        63.7545 
 362   0.0000       2.353593        64.0445 
 363   0.0000       2.368361        64.4464 
 364   0.0000       2.373778        64.5938 
 365   0.0000       2.387833        64.9762 
 366   0.0000       2.398495        65.2664 
 367   0.0000       2.404617        65.4329 
 368   0.0000       2.418462        65.8097 
 369   0.0000       2.437556        66.3293 
 370   0.0000       2.443507        66.4912 
 371   0.0000       2.462050        66.9958 
 372   0.0000       2.482338        67.5478 
 373   0.0000       2.488739        67.7220 
 374   0.0000       2.498757        67.9946 
 375   0.0000       2.514227        68.4156 
 376   0.0000       2.519264        68.5527 
 377   0.0000       2.531011        68.8723 
 378   0.0000       2.546394        69.2909 
 379   0.0000       2.562682        69.7341 
 380   0.0000       2.578247        70.1577 
 381   0.0000       2.584690        70.3330 
 382   0.0000       2.589097        70.4529 
 383   0.0000       2.604588        70.8744 
 384   0.0000       2.616719        71.2045 
 385   0.0000       2.632658        71.6383 
 386   0.0000       2.638383        71.7941 
 387   0.0000       2.651748        72.1577 
 388   0.0000       2.664783        72.5124 
 389   0.0000       2.681462        72.9663 
 390   0.0000       2.687207        73.1226 
 391   0.0000       2.700250        73.4775 
 392   0.0000       2.710712        73.7622 
 393   0.0000       2.723334        74.1057 
 394   0.0000       2.739918        74.5570 
 395   0.0000       2.741221        74.5924 
 396   0.0000       2.753269        74.9203 
 397   0.0000       2.756889        75.0188 
 398   0.0000       2.767344        75.3033 
 399   0.0000       2.772104        75.4328 
 400   0.0000       2.779207        75.6261 
 401   0.0000       2.791532        75.9615 
 402   0.0000       2.806873        76.3789 
 403   0.0000       2.824725        76.8647 
 404   0.0000       2.827598        76.9429 
 405   0.0000       2.838636        77.2432 
 406   0.0000       2.842985        77.3616 
 407   0.0000       2.850276        77.5600 
 408   0.0000       2.866527        78.0022 
 409   0.0000       2.877664        78.3052 
 410   0.0000       2.880418        78.3802 
 411   0.0000       2.889764        78.6345 
 412   0.0000       2.891237        78.6746 
 413   0.0000       2.904567        79.0373 
 414   0.0000       2.911182        79.2173 
 415   0.0000       2.919681        79.4486 
 416   0.0000       2.925563        79.6086 
 417   0.0000       2.944696        80.1292 
 418   0.0000       2.947966        80.2182 
 419   0.0000       2.964245        80.6612 
 420   0.0000       2.967466        80.7489 
 421   0.0000       2.972835        80.8949 
 422   0.0000       2.976432        80.9928 
 423   0.0000       2.992452        81.4288 
 424   0.0000       3.003739        81.7359 
 425   0.0000       3.009530        81.8935 
 426   0.0000       3.016234        82.0759 
 427   0.0000       3.026900        82.3661 
 428   0.0000       3.028727        82.4158 
 429   0.0000       3.038908        82.6929 
 430   0.0000       3.045568        82.8741 
 431   0.0000       3.053790        83.0979 
 432   0.0000       3.067822        83.4797 
 433   0.0000       3.068459        83.4970 
 434   0.0000       3.074896        83.6722 
 435   0.0000       3.088118        84.0320 
 436   0.0000       3.094343        84.2014 
 437   0.0000       3.100228        84.3615 
 438   0.0000       3.103294        84.4449 
 439   0.0000       3.111019        84.6551 
 440   0.0000       3.119081        84.8745 
 441   0.0000       3.124910        85.0331 
 442   0.0000       3.136671        85.3532 
 443   0.0000       3.141034        85.4719 
 444   0.0000       3.151247        85.7498 
 445   0.0000       3.154962        85.8509 
 446   0.0000       3.164119        86.1000 
 447   0.0000       3.176127        86.4268 
 448   0.0000       3.180832        86.5549 
 449   0.0000       3.195301        86.9486 
 450   0.0000       3.198119        87.0252 
 451   0.0000       3.209400        87.3322 
 452   0.0000       3.216715        87.5313 
 453   0.0000       3.221829        87.6704 
 454   0.0000       3.228805        87.8602 
 455   0.0000       3.231112        87.9230 
 456   0.0000       3.242818        88.2416 
 457   0.0000       3.255476        88.5860 
 458   0.0000       3.257933        88.6529 
 459   0.0000       3.266777        88.8935 
 460   0.0000       3.277005        89.1718 
 461   0.0000       3.282730        89.3276 
 462   0.0000       3.285956        89.4154 
 463   0.0000       3.292199        89.5853 
 464   0.0000       3.300998        89.8247 
 465   0.0000       3.308775        90.0363 
 466   0.0000       3.318794        90.3090 
 467   0.0000       3.323335        90.4325 
 468   0.0000       3.327748        90.5526 
 469   0.0000       3.330174        90.6186 
 470   0.0000       3.340319        90.8947 
 471   0.0000       3.345992        91.0491 
 472   0.0000       3.350867        91.1817 
 473   0.0000       3.361585        91.4734 
 474   0.0000       3.366313        91.6020 
 475   0.0000       3.370971        91.7288 
 476   0.0000       3.375637        91.8558 
 477   0.0000       3.377737        91.9129 
 478   0.0000       3.391221        92.2798 
 479   0.0000       3.394828        92.3780 
 480   0.0000       3.399231        92.4978 
 481   0.0000       3.403680        92.6188 
 482   0.0000       3.407344        92.7185 
 483   0.0000       3.414450        92.9119 
 484   0.0000       3.416771        92.9751 
 485   0.0000       3.424905        93.1964 
 486   0.0000       3.427357        93.2631 
 487   0.0000       3.437477        93.5385 
 488   0.0000       3.439616        93.5967 
 489   0.0000       3.447299        93.8058 
 490   0.0000       3.450693        93.8981 
 491   0.0000       3.454832        94.0108 
 492   0.0000       3.459752        94.1446 
 493   0.0000       3.463204        94.2386 
 494   0.0000       3.469505        94.4100 
 495   0.0000       3.473008        94.5053 
 496   0.0000       3.477786        94.6354 
 497   0.0000       3.496370        95.1411 
 498   0.0000       3.498367        95.1954 
 499   0.0000       3.503211        95.3272 
 500   0.0000       3.508098        95.4602 
 501   0.0000       3.517773        95.7235 
 502   0.0000       3.523365        95.8756 
 503   0.0000       3.533984        96.1646 
 504   0.0000       3.546554        96.5066 
 505   0.0000       3.552526        96.6692 
 506   0.0000       3.562816        96.9492 
 507   0.0000       3.565124        97.0119 
 508   0.0000       3.576393        97.3186 
 509   0.0000       3.589016        97.6621 
 510   0.0000       3.594775        97.8188 
 511   0.0000       3.607509        98.1653 
 512   0.0000       3.611080        98.2625 
 513   0.0000       3.620926        98.5304 
 514   0.0000       3.625368        98.6513 
 515   0.0000       3.633184        98.8640 
 516   0.0000       3.637122        98.9711 
 517   0.0000       3.638748        99.0154 
 518   0.0000       3.646240        99.2192 
 519   0.0000       3.653729        99.4230 
 520   0.0000       3.657134        99.5157 
 521   0.0000       3.660614        99.6104 
 522   0.0000       3.667380        99.7945 
 523   0.0000       3.672553        99.9352 
 524   0.0000       3.684238       100.2532 
 525   0.0000       3.691802       100.4590 
 526   0.0000       3.697671       100.6187 
 527   0.0000       3.702036       100.7375 
 528   0.0000       3.711248       100.9882 
 529   0.0000       3.720169       101.2309 
 530   0.0000       3.724226       101.3413 
 531   0.0000       3.732225       101.5590 
 532   0.0000       3.741555       101.8129 
 533   0.0000       3.747238       101.9675 
 534   0.0000       3.751864       102.0934 
 535   0.0000       3.757245       102.2398 
 536   0.0000       3.761943       102.3677 
 537   0.0000       3.767600       102.5216 
 538   0.0000       3.772777       102.6625 
 539   0.0000       3.780723       102.8787 
 540   0.0000       3.786064       103.0240 
 541   0.0000       3.795663       103.2852 
 542   0.0000       3.801691       103.4493 
 543   0.0000       3.809215       103.6540 
 544   0.0000       3.810513       103.6893 
 545   0.0000       3.815566       103.8268 
 546   0.0000       3.825615       104.1003 
 547   0.0000       3.829739       104.2125 
 548   0.0000       3.839348       104.4740 
 549   0.0000       3.842015       104.5466 
 550   0.0000       3.849728       104.7564 
 551   0.0000       3.866520       105.2134 
 552   0.0000       3.873133       105.3933 
 553   0.0000       3.878585       105.5417 
 554   0.0000       3.895665       106.0064 
 555   0.0000       3.901693       106.1705 
 556   0.0000       3.906539       106.3023 
 557   0.0000       3.929595       106.9297 
 558   0.0000       3.933148       107.0264 
 559   0.0000       3.941797       107.2617 
 560   0.0000       3.947878       107.4272 
 561   0.0000       3.952821       107.5617 
 562   0.0000       3.959061       107.7315 
 563   0.0000       3.967069       107.9494 
 564   0.0000       3.975718       108.1848 
 565   0.0000       3.988243       108.5256 
 566   0.0000       3.993259       108.6621 
 567   0.0000       3.998073       108.7931 
 568   0.0000       4.007473       109.0489 
 569   0.0000       4.020099       109.3925 
 570   0.0000       4.024651       109.5163 
 571   0.0000       4.037664       109.8704 
 572   0.0000       4.047442       110.1365 
 573   0.0000       4.052380       110.2709 
 574   0.0000       4.058798       110.4455 
 575   0.0000       4.075689       110.9051 
 576   0.0000       4.076623       110.9305 
 577   0.0000       4.096276       111.4653 
 578   0.0000       4.105167       111.7073 
 579   0.0000       4.105788       111.7242 
 580   0.0000       4.115122       111.9782 
 581   0.0000       4.119878       112.1076 
 582   0.0000       4.132658       112.4554 
 583   0.0000       4.138012       112.6010 
 584   0.0000       4.141835       112.7050 
 585   0.0000       4.147896       112.8700 
 586   0.0000       4.157105       113.1206 
 587   0.0000       4.167891       113.4141 
 588   0.0000       4.174352       113.5899 
 589   0.0000       4.179148       113.7204 
 590   0.0000       4.183262       113.8323 
 591   0.0000       4.189401       113.9994 
 592   0.0000       4.197602       114.2226 
 593   0.0000       4.199480       114.2737 
 594   0.0000       4.204360       114.4065 
 595   0.0000       4.215598       114.7123 
 596   0.0000       4.220861       114.8555 
 597   0.0000       4.231818       115.1536 
 598   0.0000       4.236416       115.2787 
 599   0.0000       4.246280       115.5472 
 600   0.0000       4.260387       115.9310 
 601   0.0000       4.273671       116.2925 
 602   0.0000       4.275319       116.3374 
 603   0.0000       4.281130       116.4955 
 604   0.0000       4.282786       116.5405 
 605   0.0000       4.291054       116.7655 
 606   0.0000       4.299502       116.9954 
 607   0.0000       4.310510       117.2949 
 608   0.0000       4.319854       117.5492 
 609   0.0000       4.323758       117.6554 
 610   0.0000       4.332035       117.8807 
 611   0.0000       4.340323       118.1062 
 612   0.0000       4.348976       118.3417 
 613   0.0000       4.353161       118.4555 
 614   0.0000       4.367334       118.8412 
 615   0.0000       4.370911       118.9385 
 616   0.0000       4.378539       119.1461 
 617   0.0000       4.393115       119.5427 
 618   0.0000       4.403505       119.8255 
 619   0.0000       4.406157       119.8976 
 620   0.0000       4.409962       120.0012 
 621   0.0000       4.425135       120.4140 
 622   0.0000       4.432150       120.6049 
 623   0.0000       4.445629       120.9717 
 624   0.0000       4.448022       121.0368 
 625   0.0000       4.457090       121.2836 
 626   0.0000       4.464587       121.4876 
 627   0.0000       4.468887       121.6046 
 628   0.0000       4.486775       122.0913 
 629   0.0000       4.500012       122.4516 
 630   0.0000       4.505466       122.6000 
 631   0.0000       4.509598       122.7124 
 632   0.0000       4.521013       123.0230 
 633   0.0000       4.527911       123.2107 
 634   0.0000       4.534982       123.4031 
 635   0.0000       4.550619       123.8286 
 636   0.0000       4.558466       124.0422 
 637   0.0000       4.561561       124.1264 
 638   0.0000       4.568314       124.3101 
 639   0.0000       4.579762       124.6217 
 640   0.0000       4.582901       124.7071 
 641   0.0000       4.599300       125.1533 
 642   0.0000       4.606502       125.3493 
 643   0.0000       4.613268       125.5334 
 644   0.0000       4.627244       125.9137 
 645   0.0000       4.631980       126.0426 
 646   0.0000       4.636101       126.1547 
 647   0.0000       4.643362       126.3523 
 648   0.0000       4.650135       126.5366 
 649   0.0000       4.655418       126.6804 
 650   0.0000       4.662858       126.8828 
 651   0.0000       4.669164       127.0544 
 652   0.0000       4.678252       127.3017 
 653   0.0000       4.683580       127.4467 
 654   0.0000       4.690362       127.6312 
 655   0.0000       4.697244       127.8185 
 656   0.0000       4.715874       128.3255 
 657   0.0000       4.730244       128.7165 
 658   0.0000       4.734174       128.8234 
 659   0.0000       4.747253       129.1793 
 660   0.0000       4.758237       129.4782 
 661   0.0000       4.778083       130.0183 
 662   0.0000       4.784012       130.1796 
 663   0.0000       4.798655       130.5781 
 664   0.0000       4.808413       130.8436 
 665   0.0000       4.840338       131.7123 
 666   0.0000       4.843676       131.8031 
 667   0.0000       4.861334       132.2836 
 668   0.0000       4.875664       132.6735 
 669   0.0000       4.884895       132.9247 
 670   0.0000       4.909833       133.6033 
 671   0.0000       4.915168       133.7485 
 672   0.0000       4.937709       134.3619 
 673   0.0000       4.939377       134.4073 
 674   0.0000       4.958534       134.9286 
 675   0.0000       4.971249       135.2746 
 676   0.0000       5.011802       136.3781 
 677   0.0000       5.017494       136.5330 
 678   0.0000       5.037725       137.0835 
 679   0.0000       5.041318       137.1812 
 680   0.0000       5.050135       137.4212 
 681   0.0000       5.059539       137.6770 
 682   0.0000       5.086048       138.3984 
 683   0.0000       5.096446       138.6813 
 684   0.0000       5.114545       139.1738 
 685   0.0000       5.126098       139.4882 
 686   0.0000       5.127072       139.5147 
 687   0.0000       5.140165       139.8710 
 688   0.0000       5.152381       140.2034 
 689   0.0000       5.166026       140.5747 
 690   0.0000       5.169109       140.6586 
 691   0.0000       5.188411       141.1838 
 692   0.0000       5.198661       141.4628 
 693   0.0000       5.200920       141.5242 
 694   0.0000       5.210666       141.7894 
 695   0.0000       5.218357       141.9987 
 696   0.0000       5.226515       142.2207 
 697   0.0000       5.231241       142.3493 
 698   0.0000       5.242562       142.6574 
 699   0.0000       5.253202       142.9469 
 700   0.0000       5.263131       143.2171 
 701   0.0000       5.271374       143.4414 
 702   0.0000       5.291146       143.9794 
 703   0.0000       5.320870       144.7882 
 704   0.0000       5.331244       145.0705 
 705   0.0000       5.334439       145.1575 
 706   0.0000       5.337132       145.2307 
 707   0.0000       5.361070       145.8821 
 708   0.0000       5.371267       146.1596 
 709   0.0000       5.384536       146.5207 
 710   0.0000       5.389179       146.6470 
 711   0.0000       5.407953       147.1579 
 712   0.0000       5.431791       147.8066 
 713   0.0000       5.461217       148.6073 
 714   0.0000       5.466080       148.7396 
 715   0.0000       5.475915       149.0072 
 716   0.0000       5.492391       149.4556 
 717   0.0000       5.506942       149.8515 
 718   0.0000       5.516876       150.1218 
 719   0.0000       5.527631       150.4145 
 720   0.0000       5.538438       150.7086 
 721   0.0000       5.542043       150.8067 
 722   0.0000       5.552919       151.1026 
 723   0.0000       5.573314       151.6576 
 724   0.0000       5.583502       151.9348 
 725   0.0000       5.606659       152.5650 
 726   0.0000       5.612240       152.7168 
 727   0.0000       5.628719       153.1652 
 728   0.0000       5.640770       153.4932 
 729   0.0000       5.647808       153.6847 
 730   0.0000       5.650107       153.7472 
 731   0.0000       5.654053       153.8546 
 732   0.0000       5.669193       154.2666 
 733   0.0000       5.696800       155.0178 
 734   0.0000       5.704973       155.2402 
 735   0.0000       5.722021       155.7041 
 736   0.0000       5.727164       155.8441 
 737   0.0000       5.734120       156.0333 
 738   0.0000       5.745162       156.3338 
 739   0.0000       5.758038       156.6842 
 740   0.0000       5.767258       156.9351 
 741   0.0000       5.783035       157.3644 
 742   0.0000       5.806731       158.0092 
 743   0.0000       5.813425       158.1913 
 744   0.0000       5.818534       158.3304 
 745   0.0000       5.846364       159.0876 
 746   0.0000       5.850887       159.2107 
 747   0.0000       5.864763       159.5883 
 748   0.0000       5.884924       160.1369 
 749   0.0000       5.933966       161.4714 
 750   0.0000       5.943139       161.7210 
 751   0.0000       5.974318       162.5695 
 752   0.0000       5.980984       162.7508 
 753   0.0000       6.001251       163.3023 
 754   0.0000       6.013611       163.6387 
 755   0.0000       6.045680       164.5113 
 756   0.0000       6.053913       164.7353 
 757   0.0000       6.066749       165.0846 
 758   0.0000       6.082223       165.5057 
 759   0.0000       6.093693       165.8178 
 760   0.0000       6.103244       166.0777 
 761   0.0000       6.179039       168.1402 
 762   0.0000       6.205840       168.8695 
 763   0.0000       6.223717       169.3559 
 764   0.0000       6.228291       169.4804 
 765   0.0000       6.306066       171.5968 
 766   0.0000       6.315657       171.8578 
 767   0.0000       6.331270       172.2826 
 768   0.0000       6.350288       172.8001 
 769   0.0000       6.368011       173.2824 
 770   0.0000       6.378537       173.5688 
 771   0.0000       6.383206       173.6959 
 772   0.0000       6.408173       174.3752 
 773   0.0000       6.419831       174.6925 
 774   0.0000       6.454211       175.6280 
 775   0.0000       6.466726       175.9686 
 776   0.0000       6.505117       177.0132 
 777   0.0000       6.558166       178.4568 
 778   0.0000       6.593794       179.4263 
 779   0.0000       6.619483       180.1253 
 780   0.0000       6.663899       181.3339 
 781   0.0000       6.692908       182.1233 
 782   0.0000       6.701788       182.3649 
 783   0.0000       6.757346       183.8767 
 784   0.0000       6.848741       186.3637 
 785   0.0000       6.909353       188.0130 
 786   0.0000       6.921172       188.3347 
 787   0.0000       6.927498       188.5068 
 788   0.0000       6.968078       189.6111 
 789   0.0000       7.017247       190.9490 
 790   0.0000       7.056750       192.0239 
 791   0.0000       7.065398       192.2593 
 792   0.0000       7.084703       192.7846 
 793   0.0000       7.128902       193.9873 
 794   0.0000       7.218172       196.4165 
 795   0.0000       7.250717       197.3020 
 796   0.0000       7.261643       197.5994 
 797   0.0000       7.284132       198.2113 
 798   0.0000       7.347820       199.9443 
 799   0.0000       7.392370       201.1566 
 800   0.0000       7.407291       201.5626 
 801   0.0000       7.588861       206.5034 
 802   0.0000       7.593829       206.6386 
 803   0.0000       7.636480       207.7992 
 804   0.0000       7.690112       209.2586 
 805   0.0000       7.788671       211.9405 
 806   0.0000       7.824411       212.9130 
 807   0.0000       7.890639       214.7152 
 808   0.0000       7.936288       215.9574 
 809   0.0000       9.489050       258.2102 
 810   0.0000       9.669681       263.1254 
 811   0.0000      10.834947       294.8339 
 812   0.0000      11.327756       308.2439 
 813   0.0000      11.885518       323.4214 
 814   0.0000      12.589237       342.5706 
 815   0.0000      12.912026       351.3541 
 816   0.0000      12.948279       352.3406 
 817   0.0000      13.097690       356.4063 
 818   0.0000      13.229801       360.0012 
 819   0.0000      13.412817       364.9813 
 820   0.0000      13.474340       366.6554 
 821   0.0000      13.823488       376.1562 
 822   0.0000      13.947998       379.5443 
 823   0.0000      14.008612       381.1937 
 824   0.0000      14.241216       387.5232 
 825   0.0000      14.565828       396.3563 
 826   0.0000      14.698875       399.9767 
 827   0.0000      15.966950       434.4828 

                    ********************************
                    * MULLIKEN POPULATION ANALYSIS *
                    ********************************

-----------------------
MULLIKEN ATOMIC CHARGES
-----------------------
   0 C :   -0.317148
   1 C :    0.055540
   2 O :   -0.386967
   3 C :    0.476709
   4 O :   -0.399695
   5 C :   -0.207046
   6 C :    0.139623
   7 C :   -0.290358
   8 N :   -0.122176
   9 C :    0.196776
  10 S :   -0.437054
  11 N :   -0.200202
  12 C :    0.049539
  13 C :    0.015239
  14 C :   -0.153705
  15 C :   -0.141463
  16 C :   -0.270265
  17 C :    0.304416
  18 O :   -0.360217
  19 C :   -0.252204
  20 H :    0.121603
  21 H :    0.107270
  22 H :    0.110367
  23 H :    0.108852
  24 H :    0.081223
  25 H :    0.120414
  26 H :    0.134245
  27 H :    0.107370
  28 H :    0.197333
  29 H :    0.194188
  30 H :    0.156192
  31 H :    0.160652
  32 H :    0.161199
  33 H :    0.131089
  34 H :    0.240670
  35 H :    0.167991
Sum of atomic charges:   -0.0000000

--------------------------------
MULLIKEN REDUCED ORBITAL CHARGES
--------------------------------
  0 C s       :     3.267840  s :     3.267840
      pz      :     0.954008  p :     2.972335
      px      :     1.034995
      py      :     0.983332
      dz2     :     0.022278  d :     0.072621
      dxz     :     0.004499
      dyz     :     0.017925
      dx2y2   :     0.010375
      dxy     :     0.017545
      f0      :     0.000450  f :     0.004351
      f+1     :     0.000223
      f-1     :     0.001521
      f+2     :     0.000652
      f-2     :     0.000479
      f+3     :     0.000374
      f-3     :     0.000653
  1 C s       :     3.164167  s :     3.164167
      pz      :     0.990906  p :     2.614954
      px      :     0.714603
      py      :     0.909445
      dz2     :     0.029220  d :     0.153866
      dxz     :     0.028704
      dyz     :     0.023998
      dx2y2   :     0.030046
      dxy     :     0.041898
      f0      :     0.001226  f :     0.011473
      f+1     :     0.001073
      f-1     :     0.001662
      f+2     :     0.001209
      f-2     :     0.001626
      f+3     :     0.002684
      f-3     :     0.001993
  2 O s       :     3.726871  s :     3.726871
      pz      :     1.610780  p :     4.627526
      px      :     1.246776
      py      :     1.769969
      dz2     :     0.004608  d :     0.030283
      dxz     :     0.011723
      dyz     :     0.003250
      dx2y2   :     0.004368
      dxy     :     0.006334
      f0      :     0.000150  f :     0.002287
      f+1     :     0.000430
      f-1     :     0.000067
      f+2     :     0.000491
      f-2     :     0.000261
      f+3     :     0.000392
      f-3     :     0.000496
  3 C s       :     3.017805  s :     3.017805
      pz      :     0.700764  p :     2.190049
      px      :     0.698174
      py      :     0.791112
      dz2     :     0.040296  d :     0.289019
      dxz     :     0.052548
      dyz     :     0.056127
      dx2y2   :     0.076520
      dxy     :     0.063527
      f0      :     0.002800  f :     0.026417
      f+1     :     0.003324
      f-1     :     0.002217
      f+2     :     0.003244
      f-2     :     0.005311
      f+3     :     0.003145
      f-3     :     0.006377
  4 O s       :     3.778247  s :     3.778247
      pz      :     1.614506  p :     4.583490
      px      :     1.535786
      py      :     1.433198
      dz2     :     0.003915  d :     0.035530
      dxz     :     0.002363
      dyz     :     0.007844
      dx2y2   :     0.009709
      dxy     :     0.011699
      f0      :     0.000267  f :     0.002428
      f+1     :     0.000142
      f-1     :     0.000307
      f+2     :     0.000130
      f-2     :     0.000315
      f+3     :     0.000665
      f-3     :     0.000602
  5 C s       :     3.176707  s :     3.176707
      pz      :     0.961911  p :     2.939453
      px      :     1.083464
      py      :     0.894078
      dz2     :     0.014557  d :     0.080230
      dxz     :     0.011340
      dyz     :     0.028213
      dx2y2   :     0.010263
      dxy     :     0.015857
      f0      :     0.000979  f :     0.010655
      f+1     :     0.001264
      f-1     :     0.001805
      f+2     :     0.001987
      f-2     :     0.001289
      f+3     :     0.001436
      f-3     :     0.001894
  6 C s       :     3.196711  s :     3.196711
      pz      :     0.859504  p :     2.472418
      px      :     0.827452
      py      :     0.785462
      dz2     :     0.033269  d :     0.177003
      dxz     :     0.020852
      dyz     :     0.049868
      dx2y2   :     0.029760
      dxy     :     0.043254
      f0      :     0.001878  f :     0.014245
      f+1     :     0.001165
      f-1     :     0.002706
      f+2     :     0.002403
      f-2     :     0.002401
      f+3     :     0.001753
      f-3     :     0.001938
  7 C s       :     3.281740  s :     3.281740
      pz      :     0.931401  p :     2.933574
      px      :     0.991838
      py      :     1.010335
      dz2     :     0.019124  d :     0.070387
      dxz     :     0.014190
      dyz     :     0.008497
      dx2y2   :     0.021987
      dxy     :     0.006590
      f0      :     0.000395  f :     0.004658
      f+1     :     0.001471
      f-1     :     0.000770
      f+2     :     0.000371
      f-2     :     0.000522
      f+3     :     0.000147
      f-3     :     0.000982
  8 N s       :     3.341035  s :     3.341035
      pz      :     1.206107  p :     3.716761
      px      :     1.399867
      py      :     1.110787
      dz2     :     0.014526  d :     0.059437
      dxz     :     0.010303
      dyz     :     0.014268
      dx2y2   :     0.009566
      dxy     :     0.010775
      f0      :     0.000618  f :     0.004943
      f+1     :     0.001001
      f-1     :     0.000720
      f+2     :     0.000964
      f-2     :     0.000878
      f+3     :     0.000420
      f-3     :     0.000342
  9 C s       :     3.166081  s :     3.166081
      pz      :     0.774577  p :     2.357402
      px      :     0.710159
      py      :     0.872666
      dz2     :     0.063493  d :     0.262143
      dxz     :     0.035190
      dyz     :     0.050196
      dx2y2   :     0.054397
      dxy     :     0.058867
      f0      :     0.002760  f :     0.017599
      f+1     :     0.002353
      f-1     :     0.002461
      f+2     :     0.002810
      f-2     :     0.002178
      f+3     :     0.002305
      f-3     :     0.002732
 10 S s       :     5.856249  s :     5.856249
      pz      :     3.475422  p :    10.486046
      px      :     3.694630
      py      :     3.315995
      dz2     :     0.009887  d :     0.084629
      dxz     :     0.005485
      dyz     :     0.039473
      dx2y2   :     0.015066
      dxy     :     0.014718
      f0      :     0.001124  f :     0.010129
      f+1     :     0.000129
      f-1     :     0.002267
      f+2     :     0.002945
      f-2     :     0.001560
      f+3     :     0.001250
      f-3     :     0.000854
 11 N s       :     3.371480  s :     3.371480
      pz      :     1.307487  p :     3.766261
      px      :     1.418686
      py      :     1.040088
      dz2     :     0.009108  d :     0.058010
      dxz     :     0.007658
      dyz     :     0.014320
      dx2y2   :     0.012499
      dxy     :     0.014425
      f0      :     0.000360  f :     0.004451
      f+1     :     0.000591
      f-1     :     0.000561
      f+2     :     0.000659
      f-2     :     0.000683
      f+3     :     0.000839
      f-3     :     0.000759
 12 C s       :     3.121962  s :     3.121962
      pz      :     0.843408  p :     2.634860
      px      :     0.985134
      py      :     0.806317
      dz2     :     0.036888  d :     0.182348
      dxz     :     0.028812
      dyz     :     0.040131
      dx2y2   :     0.031686
      dxy     :     0.044832
      f0      :     0.001234  f :     0.011291
      f+1     :     0.001282
      f-1     :     0.001976
      f+2     :     0.002188
      f-2     :     0.001963
      f+3     :     0.001318
      f-3     :     0.001331
 13 C s       :     3.111444  s :     3.111444
      pz      :     0.905139  p :     2.754493
      px      :     0.914386
      py      :     0.934968
      dz2     :     0.017501  d :     0.107556
      dxz     :     0.012299
      dyz     :     0.028659
      dx2y2   :     0.021116
      dxy     :     0.027981
      f0      :     0.001070  f :     0.011268
      f+1     :     0.001527
      f-1     :     0.001167
[...]
      f-1     :     0.004801
      f+2     :     0.007324
      f-2     :     0.005012
      f+3     :     0.007314
      f-3     :     0.008812
 15 C s       :     2.705483  s :     2.705483
      pz      :     0.888673  p :     2.795428
      px      :     0.940756
      py      :     0.965999
      dz2     :     0.085591  d :     0.415872
      dxz     :     0.071556
      dyz     :     0.053669
      dx2y2   :     0.114564
      dxy     :     0.090492
      f0      :     0.002968  f :     0.041053
      f+1     :     0.005066
      f-1     :     0.005665
      f+2     :     0.007105
      f-2     :     0.006142
      f+3     :     0.007462
      f-3     :     0.006646
 16 C s       :     2.701586  s :     2.701586
      pz      :     0.933260  p :     2.868873
      px      :     0.963578
      py      :     0.972035
      dz2     :     0.039878  d :     0.391120
      dxz     :     0.058399
      dyz     :     0.082986
      dx2y2   :     0.097490
      dxy     :     0.112367
      f0      :     0.004017  f :     0.040369
      f+1     :     0.004446
      f-1     :     0.003777
      f+2     :     0.006186
      f-2     :     0.004999
      f+3     :     0.009224
      f-3     :     0.007719
 17 C s       :     2.701191  s :     2.701191
      pz      :     0.848130  p :     2.684869
      px      :     0.822554
      py      :     1.014184
      dz2     :     0.118540  d :     0.708896
      dxz     :     0.110073
      dyz     :     0.132619
      dx2y2   :     0.171591
      dxy     :     0.176073
      f0      :     0.008373  f :     0.099324
      f+1     :     0.015752
      f-1     :     0.008772
      f+2     :     0.015928
      f-2     :     0.013871
      f+3     :     0.018484
      f-3     :     0.018144
 18 O s       :     3.177239  s :     3.177239
      pz      :     1.453107  p :     4.348071
      px      :     1.392728
      py      :     1.502237
      dz2     :     0.007533  d :     0.075561
      dxz     :     0.017126
      dyz     :     0.016742
      dx2y2   :     0.016321
      dxy     :     0.017838
      f0      :     0.000570  f :     0.005075
      f+1     :     0.000735
      f-1     :     0.000356
      f+2     :     0.000653
      f-2     :     0.000953
      f+3     :     0.000821
      f-3     :     0.000986
 19 C s       :     2.695245  s :     2.695245
      pz      :     0.928443  p :     2.848718
      px      :     0.956075
      py      :     0.964200
      dz2     :     0.069932  d :     0.388848
      dxz     :     0.068880
      dyz     :     0.055475
      dx2y2   :     0.100464
      dxy     :     0.094097
      f0      :     0.003099  f :     0.040836
      f+1     :     0.005092
      f-1     :     0.005196
      f+2     :     0.007143
      f-2     :     0.006642
      f+3     :     0.007436
      f-3     :     0.006228
 20 H s       :     0.841581  s :     0.841581
      pz      :     0.039381  p :     0.153147
      px      :     0.055991
      py      :     0.057775
      dz2     :     0.002979  d :     0.027649
      dxz     :     0.003442
      dyz     :     0.005488
      dx2y2   :     0.008903
      dxy     :     0.006836
 21 H s       :     0.844736  s :     0.844736
      pz      :     0.040155  p :     0.152260
      px      :     0.066072
      py      :     0.046032
      dz2     :     0.002325  d :     0.027566
      dxz     :     0.007259
      dyz     :     0.002198
      dx2y2   :     0.007599
      dxy     :     0.008185
 22 H s       :     0.842196  s :     0.842196
      pz      :     0.068568  p :     0.156191
      px      :     0.042785
      py      :     0.044838
      dz2     :     0.009026  d :     0.027724
      dxz     :     0.006839
      dyz     :     0.007468
      dx2y2   :     0.001982
      dxy     :     0.002408
 23 H s       :     0.853126  s :     0.853126
      pz      :     0.067741  p :     0.144231
      px      :     0.030121
      py      :     0.046370
      dz2     :     0.007847  d :     0.026844
      dxz     :     0.006179
      dyz     :     0.008096
      dx2y2   :     0.002454
      dxy     :     0.002268
 24 H s       :     0.862044  s :     0.862044
      pz      :     0.043750  p :     0.146969
      px      :     0.048352
      py      :     0.054867
      dz2     :     0.003499  d :     0.027140
      dxz     :     0.004165
      dyz     :     0.005733
      dx2y2   :     0.006154
      dxy     :     0.007590
 25 H s       :     0.832859  s :     0.832859
      pz      :     0.038448  p :     0.151767
      px      :     0.069861
      py      :     0.043458
      dz2     :     0.002339  d :     0.027766
      dxz     :     0.008384
      dyz     :     0.000705
      dx2y2   :     0.008512
      dxy     :     0.007826
 26 H s       :     0.827278  s :     0.827278
      pz      :     0.063098  p :     0.150872
      px      :     0.044665
      py      :     0.043109
      dz2     :     0.008831  d :     0.027742
      dxz     :     0.007082
      dyz     :     0.006471
      dx2y2   :     0.003341
      dxy     :     0.002016
 27 H s       :     0.841800  s :     0.841800
      pz      :     0.036792  p :     0.150063
      px      :     0.040005
      py      :     0.073267
      dz2     :     0.002323  d :     0.027712
      dxz     :     0.000128
      dyz     :     0.009099
      dx2y2   :     0.006782
      dxy     :     0.009380
 28 H s       :     0.742784  s :     0.742784
      pz      :     0.057373  p :     0.254003
      px      :     0.084269
      py      :     0.112362
      dz2     :     0.006144  d :     0.061866
      dxz     :     0.003007
      dyz     :     0.016008
      dx2y2   :     0.017858
      dxy     :     0.018848
 29 H s       :     0.748519  s :     0.748519
      pz      :     0.113486  p :     0.253914
      px      :     0.097086
      py      :     0.043342
      dz2     :     0.021373  d :     0.061305
      dxz     :     0.015995
      dyz     :     0.010482
      dx2y2   :     0.008001
      dxy     :     0.005453
 30 H s       :     0.827325  s :     0.827325
      pz      :     0.039462  p :     0.148431
      px      :     0.066749
      py      :     0.042219
      dz2     :     0.002980  d :     0.028357
      dxz     :     0.007426
      dyz     :     0.002822
      dx2y2   :     0.007514
      dxy     :     0.007615
 31 H s       :     0.840596  s :     0.840596
      pz      :     0.052455  p :     0.156029
      px      :     0.066254
      py      :     0.037320
      dz2     :     0.004892  d :     0.027463
      dxz     :     0.006828
      dyz     :     0.003175
      dx2y2   :     0.006176
      dxy     :     0.006392
 32 H s       :     0.842579  s :     0.842579
      pz      :     0.037442  p :     0.151118
      px      :     0.038708
      py      :     0.074968
      dz2     :     0.002646  d :     0.026453
      dxz     :     0.000738
      dyz     :     0.007214
      dx2y2   :     0.007830
      dxy     :     0.008025
 33 H s       :     0.848796  s :     0.848796
      pz      :     0.057506  p :     0.159013
      px      :     0.049847
      py      :     0.051661
      dz2     :     0.005849  d :     0.027753
      dxz     :     0.004855
      dyz     :     0.005740
      dx2y2   :     0.005926
      dxy     :     0.005382
 34 H s       :     0.706614  s :     0.706614
      pz      :     0.115777  p :     0.347861
      px      :     0.085475
      py      :     0.146609
      dz2     :     0.023444  d :     0.099568
      dxz     :     0.011822
      dyz     :     0.023935
      dx2y2   :     0.020676
      dxy     :     0.019691
 35 H s       :     0.839324  s :     0.839324
      pz      :     0.041308  p :     0.157443
      px      :     0.040292
      py      :     0.075843
      dz2     :     0.002656  d :     0.028036
      dxz     :     0.000906
      dyz     :     0.007973
      dx2y2   :     0.008061
      dxy     :     0.008440


                      *****************************
                      * MAYER POPULATION ANALYSIS *
                      *****************************

  NA   - Mulliken gross atomic population
  ZA   - Total nuclear charge
  QA   - Mulliken gross atomic charge
  VA   - Mayer's total valence
  BVA  - Mayer's bonded valence
  FA   - Mayer's free valence

  ATOM       NA         ZA         QA         VA         BVA        FA
  0 C      6.3171     6.0000    -0.3171     3.8778     3.8778     0.0000
  1 C      5.9445     6.0000     0.0555     3.8799     3.8799    -0.0000
  2 O      8.3870     8.0000    -0.3870     1.9859     1.9859    -0.0000
  3 C      5.5233     6.0000     0.4767     4.2191     4.2191     0.0000
  4 O      8.3997     8.0000    -0.3997     2.1101     2.1101    -0.0000
  5 C      6.2070     6.0000    -0.2070     3.6154     3.6154     0.0000
  6 C      5.8604     6.0000     0.1396     3.8452     3.8452    -0.0000
  7 C      6.2904     6.0000    -0.2904     3.8978     3.8978    -0.0000
  8 N      7.1222     7.0000    -0.1222     3.2888     3.2888    -0.0000
  9 C      5.8032     6.0000     0.1968     4.1567     4.1567    -0.0000
 10 S     16.4371    16.0000    -0.4371     1.7586     1.7586    -0.0000
 11 N      7.2002     7.0000    -0.2002     3.2593     3.2593    -0.0000
 12 C      5.9505     6.0000     0.0495     3.9562     3.9562    -0.0000
 13 C      5.9848     6.0000     0.0152     3.7572     3.7572    -0.0000
 14 C      6.1537     6.0000    -0.1537     3.8547     3.8547    -0.0000
 15 C      6.1415     6.0000    -0.1415     3.8120     3.8120    -0.0000
 16 C      6.2703     6.0000    -0.2703     3.7840     3.7840    -0.0000
 17 C      5.6956     6.0000     0.3044     3.8813     3.8813    -0.0000
 18 O      8.3602     8.0000    -0.3602     2.1154     2.1154    -0.0000
 19 C      6.2522     6.0000    -0.2522     3.8277     3.8277    -0.0000
 20 H      0.8784     1.0000     0.1216     0.9864     0.9864    -0.0000
 21 H      0.8927     1.0000     0.1073     0.9816     0.9816     0.0000
 22 H      0.8896     1.0000     0.1104     0.9694     0.9694    -0.0000
 23 H      0.8911     1.0000     0.1089     0.9730     0.9730    -0.0000
 24 H      0.9188     1.0000     0.0812     0.9644     0.9644    -0.0000
 25 H      0.8796     1.0000     0.1204     0.9738     0.9738    -0.0000
 26 H      0.8658     1.0000     0.1342     0.9809     0.9809    -0.0000
 27 H      0.8926     1.0000     0.1074     0.9864     0.9864     0.0000
 28 H      0.8027     1.0000     0.1973     1.0230     1.0230    -0.0000
 29 H      0.8058     1.0000     0.1942     1.0180     1.0180    -0.0000
 30 H      0.8438     1.0000     0.1562     0.9960     0.9960     0.0000
 31 H      0.8393     1.0000     0.1607     0.9874     0.9874    -0.0000
 32 H      0.8388     1.0000     0.1612     0.9772     0.9772    -0.0000
 33 H      0.8689     1.0000     0.1311     0.9907     0.9907    -0.0000
 34 H      0.7593     1.0000     0.2407     1.0108     1.0108     0.0000
 35 H      0.8320     1.0000     0.1680     0.9876     0.9876    -0.0000

  Mayer bond orders larger than 0.100000
B(  0-C ,  1-C ) :   0.9720 B(  0-C , 20-H ) :   0.9700 B(  0-C , 21-H ) :   0.9745 
B(  0-C , 22-H ) :   0.9658 B(  1-C ,  2-O ) :   0.8995 B(  1-C , 23-H ) :   0.9812 
B(  1-C , 24-H ) :   0.9756 B(  2-O ,  3-C ) :   1.0877 B(  3-C ,  4-O ) :   2.0339 
B(  3-C ,  5-C ) :   1.0290 B(  5-C ,  6-C ) :   1.6616 B(  5-C , 12-C ) :   0.9599 
B(  6-C ,  7-C ) :   0.9518 B(  6-C ,  8-N ) :   1.1452 B(  7-C , 25-H ) :   0.9675 
B(  7-C , 26-H ) :   0.9652 B(  7-C , 27-H ) :   0.9892 B(  8-N ,  9-C ) :   1.1797 
B(  8-N , 28-H ) :   0.9489 B(  9-C , 10-S ) :   1.6138 B(  9-C , 11-N ) :   1.3021 
B( 11-N , 12-C ) :   0.9902 B( 11-N , 29-H ) :   0.9521 B( 12-C , 13-C ) :   0.9456 
B( 12-C , 30-H ) :   0.9994 B( 13-C , 14-C ) :   1.3858 B( 13-C , 19-C ) :   1.3656 
B( 14-C , 15-C ) :   1.3942 B( 14-C , 31-H ) :   0.9612 B( 15-C , 16-C ) :   1.3621 
B( 15-C , 32-H ) :   0.9710 B( 16-C , 17-C ) :   1.3318 B( 16-C , 33-H ) :   0.9847 
B( 17-C , 18-O ) :   1.1109 B( 17-C , 19-C ) :   1.3737 B( 18-O , 34-H ) :   0.9800 
B( 19-C , 35-H ) :   0.9584 

-------
TIMINGS
-------

Total SCF time: 0 days 2 hours 12 min 33 sec 

Total time                  ....    7953.304 sec
Sum of individual times     ....    7942.623 sec  ( 99.9%)

Fock matrix formation       ....    7898.237 sec  ( 99.3%)
Diagonalization             ....       6.467 sec  (  0.1%)
Density matrix formation    ....       0.300 sec  (  0.0%)
Population analysis         ....       0.638 sec  (  0.0%)
Initial guess               ....       6.972 sec  (  0.1%)
Orbital Transformation      ....       0.000 sec  (  0.0%)
Orbital Orthonormalization  ....       0.000 sec  (  0.0%)
DIIS solution               ....      18.038 sec  (  0.2%)
SOSCF solution              ....      10.696 sec  (  0.1%)

------------------------------------------------------------------------------
                                ORCA  MP2 
------------------------------------------------------------------------------

Freezing NCore=48 chemical core electrons

-------------
RI-MP2 ENERGY
-------------
Dimension of the basis                    ...  828
Memory devoted to MP2                     ...  256 MB   
Data format for buffers                   ... DOUBLE
Compression type for matrix containers    ... UNCOMPRESSED
Overall scaling of the MP2 energy         ...   1.000e+00
Calculating two index integrals           ... done (    0.033 sec)
Cholesky decomposition of V**-1           ... done (    1.732 sec)

-----------------
RI-TRANSFORMATION (AUX index driven)
-----------------

Dimension of the orbital-basis         ... 828
Dimension of the aux-basis             ... 2141
Transformation of internal/external MOs...   24-  76 to   77- 827
Number Format for Storage              ... Double (8 Byte)
Integral mode                          ... Direct

First Phase: integral generation and transformation of MO indices
  Aux angular momentum 0               ... done (    8.514 sec)
  Aux angular momentum 1               ... done (   16.364 sec)
  Aux angular momentum 2               ... done (   21.889 sec)
  Aux angular momentum 3               ... done (   18.197 sec)
  Aux angular momentum 4               ... done (    6.717 sec)
Closing buffer VIA ( 0.63 GB; CompressionRatio= 1.00)
  Phase 1 completed in    71.922 sec
Second Phase: sorting and transformation of aux index

IA-Transformation
Memory available                       ... 167 MB 
Max. # MO pairs treated in a batch     ... 12    
# of internal orbitals                 ... 53
# batches for internal orbitals        ... 5
Closing buffer IAV ( 0.63 GB; CompressionRatio= 1.00)
(ia|v) transformation done in   105.796 sec

  Phase 2 completed in   105.802 sec
RI-Integral transformation completed in   177.777 sec
Opening buffers                              ... done

Starting loop over batches of integrals:

Operator 0  - window                       ... ( 24- 76)x( 77-827)
Operator 0  - Memory available             ...   256 MB
Operator 0  - Memory needed per MO         ...  12.3 MB
Operator 0  - Number of orbitals per batch ... 13
Operator 0  - Number of batches            ... 5

OPERATOR  0   PASS   0:  MOs    24 ...   36
  Reading integrals       ... ok
  Internal MO  26
  Internal MO  29
  Internal MO  32
  Internal MO  35
OPERATOR  0   PASS   1:  MOs    37 ...   49
  Reading integrals       ... ok
  Internal MO  38
  Internal MO  41
  Internal MO  44
  Internal MO  47
OPERATOR  0   PASS   2:  MOs    50 ...   62
  Reading integrals       ... ok
  Internal MO  50
  Internal MO  53
  Internal MO  56
  Internal MO  59
  Internal MO  62
OPERATOR  0   PASS   3:  MOs    63 ...   75
  Reading integrals       ... ok
  Internal MO  65
  Internal MO  68
  Internal MO  71
  Internal MO  74
OPERATOR  0   PASS   4:  MOs    76 ...   76
  Reading integrals       ... ok
Time spent in pair loops =   494.737 sec
Deleting buffer (Ka|jb)[aa] ...done

-----------------------------------------------
 RI-MP2 CORRELATION ENERGY:     -3.535202764 Eh
-----------------------------------------------


-------
TIMINGS
-------

Total time                :  674.400 sec
Integral trafo            :  177.799 sec ( 26.4%)
I/O of integrals          :   14.675 sec (  2.2%)
K(i,j) Operators          :  389.128 sec ( 57.7%)
T(i,j) pair energies      :    3.963 sec (  0.6%)
V-calculation             :    0.033 sec (  0.0%)
V**(-1/2)                 :    1.732 sec (  0.3%)
Gamma(ia|P)               :    0.000 sec (  0.0%)
Gamma-Trafo               :    0.000 sec (  0.0%)
D(virtual)                :    0.000 sec (  0.0%)
D(internal)               :    0.000 sec (  0.0%)
W(virtual)                :    0.000 sec (  0.0%)
W(internal)               :    0.000 sec (  0.0%)
L(virtual)                :    0.000 sec (  0.0%)
L(internal)               :    0.000 sec (  0.0%)
G(D)                      :    0.000 sec (  0.0%)
G(Z)                      :    0.000 sec (  0.0%)
Z-Vector Solution         :    0.000 sec (  0.0%)
3-Index Derivative        :    0.000 sec (  0.0%)
2-Index Derivative        :    0.000 sec (  0.0%)
Separable Gradient        :    0.000 sec (  0.0%)


---------------------------------------
MP2 TOTAL ENERGY:    -1274.330458755 Eh
---------------------------------------

-------------------------   --------------------
FINAL SINGLE POINT ENERGY     -1274.330458754662
-------------------------   --------------------


                            ***************************************
                            *     ORCA property calculations      *
                            ***************************************


  WARNING: The energy has been calculated at the MP2 level but the densities
           used in the property calculations are still SCF densities
           MP2 response densities have not been calculated 
           use %mp2 Density relaxed end
           or  %mp2 Density unrelaxed end

                                    ---------------------
                                    Active property flags
                                    ---------------------
   (+) Dipole Moment


------------------------------------------------------------------------------
                       ORCA ELECTRIC PROPERTIES CALCULATION
------------------------------------------------------------------------------

Dipole Moment Calculation                       ... on
Quadrupole Moment Calculation                   ... off
Polarizability Calculation                      ... off
GBWName                                         ... CONFS/Conf442.orca.gbw
Electron density file                           ... CONFS/Conf442.orca.scfp
The origin for moment calculation is the CENTER OF MASS  = (32.811182, 31.477986 35.270362)

-------------
DIPOLE MOMENT
-------------
                                X             Y             Z
Electronic contribution:      9.68708       9.36363       6.79050
Nuclear contribution   :    -11.19245     -10.51198      -7.44084
                        -----------------------------------------
Total Dipole Moment    :     -1.50536      -1.14835      -0.65034
                        -----------------------------------------
Magnitude (a.u.)       :      2.00194
Magnitude (Debye)      :      5.08854



--------------------
Rotational spectrum 
--------------------
 
Rotational constants in cm-1:     0.011677     0.009509     0.006587 
Rotational constants in MHz :   350.060607   285.073478   197.463908 

 Dipole components along the rotational axes: 
x,y,z [a.u.] :    -1.626650     0.637245     0.977603 
x,y,z [Debye]:    -4.134615     1.619749     2.484870 

 

Timings for individual modules:

Sum of individual times         ...     8630.826 sec (= 143.847 min)
GTO integral calculation        ...        1.330 sec (=   0.022 min)   0.0 %
SCF iterations                  ...     7953.418 sec (= 132.557 min)  92.2 %
MP2 module                      ...      676.078 sec (=  11.268 min)   7.8 %
                             ****ORCA TERMINATED NORMALLY****
TOTAL RUN TIME: 0 days 2 hours 23 minutes 51 seconds 792 msec
