
                                        *****************
                                        * O   R   C   A *
                                        *****************

                                            #,                                       
                                            ###                                      
                                            ####                                     
                                            #####                                    
                                            ######                                   
                                           ########,                                 
                                     ,,################,,,,,                         
                               ,,#################################,,                 
                          ,,##########################################,,             
                       ,#########################################, ''#####,          
                    ,#############################################,,   '####,        
                  ,##################################################,,,,####,       
                ,###########''''           ''''###############################       
              ,#####''   ,,,,##########,,,,          '''####'''          '####       
            ,##' ,,,,###########################,,,                        '##       
           ' ,,###''''                  '''############,,,                           
         ,,##''                                '''############,,,,        ,,,,,,###''
      ,#''                                            '''#######################'''  
     '                                                          ''''####''''         
             ,#######,   #######,   ,#######,      ##                                
            ,#'     '#,  ##    ##  ,#'     '#,    #''#        ######   ,####,        
            ##       ##  ##   ,#'  ##            #'  '#       #        #'  '#        
            ##       ##  #######   ##           ,######,      #####,   #    #        
            '#,     ,#'  ##    ##  '#,     ,#' ,#      #,         ##   #,  ,#        
             '#######'   ##     ##  '#######'  #'      '#     #####' # '####'        



                  #######################################################
                  #                        -***-                        #
                  #          Department of theory and spectroscopy      #
                  #    Directorship and core code : Frank Neese         #
                  #        Max Planck Institute fuer Kohlenforschung    #
                  #                Kaiser Wilhelm Platz 1               #
                  #                 D-45470 Muelheim/Ruhr               #
                  #                      Germany                        #
                  #                                                     #
                  #                  All rights reserved                #
                  #                        -***-                        #
                  #######################################################


                         Program Version 5.0.0 -  RELEASE  -
                                (SVN: $Rev: 19529$)
                ($Date: 2021-06-28 11:36:33 +0200 (Mo, 28 Jun 2021) $)


 With contributions from (in alphabetic order):
   Daniel Aravena         : Magnetic Suceptibility
   Michael Atanasov       : Ab Initio Ligand Field Theory (pilot matlab implementation)
   Alexander A. Auer      : GIAO ZORA, VPT2 properties, NMR spectrum
   Ute Becker             : Parallelization
   Giovanni Bistoni       : ED, misc. LED, open-shell LED, HFLD
   Martin Brehm           : Molecular dynamics
   Dmytro Bykov           : SCF Hessian
   Vijay G. Chilkuri      : MRCI spin determinant printing, contributions to CSF-ICE
   Dipayan Datta          : RHF DLPNO-CCSD density
   Achintya Kumar Dutta   : EOM-CC, STEOM-CC
   Dmitry Ganyushin       : Spin-Orbit,Spin-Spin,Magnetic field MRCI
   Miquel Garcia          : C-PCM Hessian, Gaussian charge scheme
   Yang Guo               : DLPNO-NEVPT2, F12-NEVPT2, CIM, IAO-localization
   Andreas Hansen         : Spin unrestricted coupled pair/coupled cluster methods
   Benjamin Helmich-Paris : MC-RPA, TRAH-SCF, COSX integrals
   Lee Huntington         : MR-EOM, pCC
   Robert Izsak           : Overlap fitted RIJCOSX, COSX-SCS-MP3, EOM
   Marcus Kettner         : VPT2
   Christian Kollmar      : KDIIS, OOCD, Brueckner-CCSD(T), CCSD density, CASPT2, CASPT2-K
   Simone Kossmann        : Meta GGA functionals, TD-DFT gradient, OOMP2, MP2 Hessian
   Martin Krupicka        : Initial AUTO-CI
   Lucas Lang             : DCDCAS
   Marvin Lechner         : AUTO-CI (C++ implementation), FIC-MRCC
   Dagmar Lenk            : GEPOL surface, SMD
   Dimitrios Liakos       : Extrapolation schemes; Compound Job, initial MDCI parallelization
   Dimitrios Manganas     : Further ROCIS development; embedding schemes
   Dimitrios Pantazis     : SARC Basis sets
   Anastasios Papadopoulos: AUTO-CI, single reference methods and gradients
   Taras Petrenko         : DFT Hessian,TD-DFT gradient, ASA, ECA, R-Raman, ABS, FL, XAS/XES, NRVS
   Peter Pinski           : DLPNO-MP2, DLPNO-MP2 Gradient
   Christoph Reimann      : Effective Core Potentials
   Marius Retegan         : Local ZFS, SOC
   Christoph Riplinger    : Optimizer, TS searches, QM/MM, DLPNO-CCSD(T), (RO)-DLPNO pert. Triples
   Tobias Risthaus        : Range-separated hybrids, TD-DFT gradient, RPA, STAB
   Michael Roemelt        : Original ROCIS implementation
   Masaaki Saitow         : Open-shell DLPNO-CCSD energy and density
   Barbara Sandhoefer     : DKH picture change effects
   Avijit Sen             : IP-ROCIS
   Kantharuban Sivalingam : CASSCF convergence, NEVPT2, FIC-MRCI
   Bernardo de Souza      : ESD, SOC TD-DFT
   Georgi Stoychev        : AutoAux, RI-MP2 NMR
   Willem Van den Heuvel  : Paramagnetic NMR
   Boris Wezisla          : Elementary symmetry handling
   Frank Wennmohs         : Technical directorship


 We gratefully acknowledge several colleagues who have allowed us to
 interface, adapt or use parts of their codes:
   Stefan Grimme, W. Hujo, H. Kruse, P. Pracht,  : VdW corrections, initial TS optimization,
                  C. Bannwarth, S. Ehlert          DFT functionals, gCP, sTDA/sTD-DF
   Ed Valeev, F. Pavosevic, A. Kumar             : LibInt (2-el integral package), F12 methods
   Garnet Chan, S. Sharma, J. Yang, R. Olivares  : DMRG
   Ulf Ekstrom                                   : XCFun DFT Library
   Mihaly Kallay                                 : mrcc  (arbitrary order and MRCC methods)
   Jiri Pittner, Ondrej Demel                    : Mk-CCSD
   Frank Weinhold                                : gennbo (NPA and NBO analysis)
   Christopher J. Cramer and Donald G. Truhlar   : smd solvation model
   Lars Goerigk                                  : TD-DFT with DH, B97 family of functionals
   V. Asgeirsson, H. Jonsson                     : NEB implementation
   FAccTs GmbH                                   : IRC, NEB, NEB-TS, DLPNO-Multilevel, CI-OPT
                                                   MM, QMMM, 2- and 3-layer-ONIOM, Crystal-QMMM,
                                                   LR-CPCM, SF, NACMEs, symmetry and pop. for TD-DFT,
                                                   nearIR, NL-DFT gradient (VV10), updates on ESD,
                                                   ML-optimized integration grids
   S Lehtola, MJT Oliveira, MAL Marques          : LibXC Library
   Liviu Ungur et al                             : ANISO software


 Your calculation uses the libint2 library for the computation of 2-el integrals
 For citations please refer to: http://libint.valeyev.net

 Your ORCA version has been built with support for libXC version: 5.1.0
 For citations please refer to: https://tddft.org/programs/libxc/

 This ORCA versions uses:
   CBLAS   interface :  Fast vector & matrix operations
   LAPACKE interface :  Fast linear algebra routines
   SCALAPACK package :  Parallel linear algebra routines
   Shared memory     :  Shared parallel matrices
   BLAS/LAPACK       :  OpenBLAS 0.3.15  USE64BITINT DYNAMIC_ARCH NO_AFFINITY Zen SINGLE_THREADED
        Core in use  :  Zen
   Copyright (c) 2011-2014, The OpenBLAS Project


================================================================================

----- Orbital basis set information -----
Your calculation utilizes the basis: cc-pVTZ 
       H, B-Ne : Obtained from the ccRepo (grant-hill.group.shef.ac.uk/ccrepo) Feb. 2017
                 T. H. Dunning, Jr., J. Chem. Phys. 90, 1007 (1989)
            He : Obtained from the ccRepo (grant-hill.group.shef.ac.uk/ccrepo) Feb. 2017
                 D. E. Woon, T. H. Dunning, Jr., J. Chem. Phys. 100, 2975 (1994)
  Li-Be, Na-Mg : Obtained from the ccRepo (grant-hill.group.shef.ac.uk/ccrepo) Feb. 2017
                 B. P. Prascher, D. E. Woon, K. A. Peterson, T. H. Dunning, Jr., A. K. Wilson, Theor. Chem. Acc. 128, 69 (2011)
         Al-Ar : Obtained from the ccRepo (grant-hill.group.shef.ac.uk/ccrepo) Feb. 2017
                 D. E. Woon, T. H. Dunning, Jr., J. Chem. Phys. 98, 1358 (1993)
            Ca : Obtained from the Peterson Research Group Website (tyr0.chem.wsu.edu/~kipeters) Feb. 2017
                 J. Koput, K. A. Peterson, J. Phys. Chem. 106, 9595 (2002)
         Sc-Zn : Obtained from the ccRepo (grant-hill.group.shef.ac.uk/ccrepo) Feb. 2017
                 N. B. Balabanov, K. A. Peterson, J. Chem. Phys. 123, 064107 (2005)
                 N. B. Balabanov, K. A. Peterson, J. Chem. Phys. 125, 074110 (2006)
         Ga-Kr : Obtained from the ccRepo (grant-hill.group.shef.ac.uk/ccrepo) Feb. 2017
                 A. K. Wilson, D. E. Woon, K. A. Peterson, T. H. Dunning, Jr., J. Chem. Phys. 110, 7667 (1999)
             Y : Obtained from the ccRepo (grant-hill.group.shef.ac.uk/ccrepo) Feb. 2017
                 K. A. Peterson, D. Figgen, M. Dolg, H. Stoll, J. Chem. Phys. 126, 124101 (2007)
        Ag, Au : Obtained from the Peterson Research Group Website (tyr0.chem.wsu.edu/~kipeters) Feb. 2017
                 K. A. Peterson, C. Puzzarini, Theor. Chem. Acc. 114, 283 (2005)

----- AuxC basis set information -----
Your calculation utilizes the auxiliary basis: cc-pVTZ/C 
  Obtained from the EMSL Basis Set Exchange (bse.pnl.gov) Feb. 2017
  H-He, B-F, Al-Ar, Ga-Kr : F. Weigend, A. Kohn, C. Hattig, J. Chem. Phys. 116, 3175 (2002)
             Li-Be, Na-Mg : C. Haettig, Phys. Chem. Chem. Phys. 7, 59 (2005)
                       Ne : C. Haettig, Phys. Chem. Chem. Phys. 7, 59 (2005)
                            F. Weigend, A. Kohn, C. Hattig, J. Chem. Phys. 116, 3175 (2002)
                    Sc-Zn : J. G. Hill, J. A. Platts, J. Chem. Phys. 128, 044104 (2008)

================================================================================
                                        WARNINGS
                       Please study these warnings very carefully!
================================================================================


WARNING: No MP2 level density has been requested!
         To caclulate MP2 level properties use
         %mp2 Density relaxed end
         or
         %mp2 Density unrelaxed end

WARNING: Post HF methods need fully converged wavefunctions
  ===> : Setting SCFConvForced true
         You can overwrite this default with %scf ConvForced false 


INFO   : the flag for use of the SHARK integral package has been found!

================================================================================
                                       INPUT FILE
================================================================================
NAME = CONFS/Conf237.orca
|  1> ! ri-mp2 cc-pvtz cc-pvtz/c TightSCF NoKeepInts
|  2> 
|  3> %scf
|  4>   MaxCore 4096
|  5> end
|  6> *xyz  0  1
|  7>     C       15.0016682   15.4363660   17.5958345
|  8>     C       15.6654824   15.2617426   16.2178176
|  9>     O       17.0330983   14.8373401   16.3708673
| 10>     C       18.1295805   15.6574574   16.4702000
| 11>     O       19.2299804   15.1433405   16.3934110
| 12>     C       17.9513719   16.8425472   17.3605831
| 13>     C       17.4263780   18.0092087   16.9203375
| 14>     C       16.9541167   18.3282665   15.5185375
| 15>     N       17.3774757   19.1160095   17.7705275
| 16>     C       17.9620411   19.1738766   19.0085752
| 17>     S       17.9258697   20.5518260   19.9218512
| 18>     N       18.5832635   18.0320518   19.4507921
| 19>     C       18.5594342   16.7252640   18.7625143
| 20>     C       17.8679123   15.6528929   19.6037286
| 21>     C       18.3111171   14.3188462   19.5351215
| 22>     C       17.6875374   13.3137312   20.2925521
| 23>     C       16.6101482   13.6428989   21.1317181
| 24>     C       16.1647198   14.9691120   21.2059949
| 25>     O       15.1177766   15.2888458   22.0074186
| 26>     C       16.7868606   15.9681521   20.4503850
| 27>     H       15.2300046   14.5821175   18.2461310
| 28>     H       13.9120104   15.4995116   17.4897381
| 29>     H       15.3397996   16.3528474   18.0906458
| 30>     H       15.1269055   14.4616395   15.6933726
| 31>     H       15.5698461   16.1622505   15.6060071
| 32>     H       17.2397285   17.5538162   14.7962621
| 33>     H       17.4028256   19.2643803   15.1614856
| 34>     H       15.8641698   18.4472268   15.4850875
| 35>     H       16.9452921   19.9708379   17.4568508
| 36>     H       18.9972507   18.1000330   20.3719919
| 37>     H       19.6055222   16.4094908   18.6341867
| 38>     H       19.1380886   14.0570888   18.8780797
| 39>     H       18.0385354   12.2855955   20.2224557
| 40>     H       16.1242421   12.8689508   21.7165001
| 41>     H       14.8524090   14.4819104   22.4738596
| 42>     H       16.4145374   16.9845269   20.5225778
| 43> *
| 44> 
| 45>                          ****END OF INPUT****
================================================================================

                       ****************************
                       * Single Point Calculation *
                       ****************************

---------------------------------
CARTESIAN COORDINATES (ANGSTROEM)
---------------------------------
  C     15.001668   15.436366   17.595834
  C     15.665482   15.261743   16.217818
  O     17.033098   14.837340   16.370867
  C     18.129580   15.657457   16.470200
  O     19.229980   15.143340   16.393411
  C     17.951372   16.842547   17.360583
  C     17.426378   18.009209   16.920337
  C     16.954117   18.328267   15.518537
  N     17.377476   19.116010   17.770528
  C     17.962041   19.173877   19.008575
  S     17.925870   20.551826   19.921851
  N     18.583264   18.032052   19.450792
  C     18.559434   16.725264   18.762514
  C     17.867912   15.652893   19.603729
  C     18.311117   14.318846   19.535121
  C     17.687537   13.313731   20.292552
  C     16.610148   13.642899   21.131718
  C     16.164720   14.969112   21.205995
  O     15.117777   15.288846   22.007419
  C     16.786861   15.968152   20.450385
  H     15.230005   14.582117   18.246131
  H     13.912010   15.499512   17.489738
  H     15.339800   16.352847   18.090646
  H     15.126905   14.461639   15.693373
  H     15.569846   16.162250   15.606007
  H     17.239728   17.553816   14.796262
  H     17.402826   19.264380   15.161486
  H     15.864170   18.447227   15.485087
  H     16.945292   19.970838   17.456851
  H     18.997251   18.100033   20.371992
  H     19.605522   16.409491   18.634187
  H     19.138089   14.057089   18.878080
  H     18.038535   12.285595   20.222456
  H     16.124242   12.868951   21.716500
  H     14.852409   14.481910   22.473860
  H     16.414537   16.984527   20.522578

----------------------------
CARTESIAN COORDINATES (A.U.)
----------------------------
  NO LB      ZA    FRAG     MASS         X           Y           Z
   0 C     6.0000    0    12.011   28.349044   29.170504   33.251308
   1 C     6.0000    0    12.011   29.603471   28.840514   30.647234
   2 O     8.0000    0    15.999   32.187891   28.038509   30.936456
   3 C     6.0000    0    12.011   34.259942   29.588306   31.124167
   4 O     8.0000    0    15.999   36.339397   28.616766   30.979057
   5 C     6.0000    0    12.011   33.923177   31.827802   32.806748
   6 C     6.0000    0    12.011   32.931082   34.032472   31.974804
   7 C     6.0000    0    12.011   32.038637   34.635404   29.325786
   8 N     7.0000    0    14.007   32.838670   36.124023   33.581430
   9 C     6.0000    0    12.011   33.943338   36.233376   35.921001
  10 S    16.0000    0    32.060   33.874984   38.837323   37.646843
  11 N     7.0000    0    14.007   35.117279   34.075640   36.756670
  12 C     6.0000    0    12.011   35.072248   31.606168   35.456014
  13 C     6.0000    0    12.011   33.765461   29.579681   37.045678
  14 C     6.0000    0    12.011   34.602997   27.058698   36.916030
  15 C     6.0000    0    12.011   33.424602   25.159306   38.347366
  16 C     6.0000    0    12.011   31.388631   25.781343   39.933160
  17 C     6.0000    0    12.011   30.546893   28.287522   40.073523
  18 O     8.0000    0    15.999   28.568458   28.891731   41.587994
  19 C     6.0000    0    12.011   31.722569   30.175434   38.645627
  20 H     1.0000    0     1.008   28.780538   27.556209   34.480191
  21 H     1.0000    0     1.008   26.289890   29.289832   33.050815
  22 H     1.0000    0     1.008   28.988020   30.902403   34.186366
  23 H     1.0000    0     1.008   28.585709   27.328538   29.656176
  24 H     1.0000    0     1.008   29.422745   30.542227   29.491079
  25 H     1.0000    0     1.008   32.578365   33.171905   27.960883
  26 H     1.0000    0     1.008   32.886574   36.404403   28.651056
  27 H     1.0000    0     1.008   29.978936   34.860207   29.262575
  28 H     1.0000    0     1.008   32.021961   37.739414   32.988667
  29 H     1.0000    0     1.008   35.899601   34.204105   38.497485
  30 H     1.0000    0     1.008   37.049068   31.009444   35.213510
  31 H     1.0000    0     1.008   36.165746   26.564048   35.674401
  32 H     1.0000    0     1.008   34.087892   23.216411   38.214903
  33 H     1.0000    0     1.008   30.470402   24.318793   41.038238
  34 H     1.0000    0     1.008   28.066985   27.366845   42.469440
  35 H     1.0000    0     1.008   31.018980   32.096104   38.782052

--------------------------------
INTERNAL COORDINATES (ANGSTROEM)
--------------------------------
 C      0   0   0     0.000000000000     0.00000000     0.00000000
 C      1   0   0     1.539504206111     0.00000000     0.00000000
 O      2   1   0     1.440109350921   110.35162329     0.00000000
 C      3   2   1     1.372855631873   126.16572286   269.49848236
 O      4   3   2     1.217001510807   117.72564961   190.82084353
 C      4   3   2     1.492976290483   114.96109870    43.26869355
 C      6   4   3     1.352972224009   122.46128307   273.36062598
 C      7   6   4     1.513232254222   127.18139051   359.50056558
 N      7   6   4     1.396503663413   119.92745852   184.88609790
 C      9   7   6     1.370338431051   124.64962117     7.56381882
 S     10   9   7     1.653519268504   121.65888841   176.71419403
 N     10   9   7     1.373039304172   116.67103489   356.93461300
 C     12  10   9     1.477155550286   125.33270889   353.84066015
 C     13  12  10     1.528340215011   111.81236090   243.22746450
 C     14  13  12     1.407415371059   119.72017109   213.54828868
 C     15  14  13     1.404567164394   120.81081725   180.35555203
 C     16  15  14     1.404748532142   119.66741544   359.85092710
 C     17  16  15     1.400987041038   119.82398860     0.07730976
 O     18  17  16     1.356687036059   119.98434109   179.48521919
 C     18  17  16     1.398601665025   120.40550935   359.95005128
 H      1   2   3     1.097617214346   110.63034510   314.26270484
 H      1   2   3     1.096630263121   110.38811454   194.79192232
 H      1   2   3     1.095038457233   111.48492396    75.25873117
 H      2   1   3     1.097849081554   107.38131512   116.96766759
 H      2   1   3     1.092873674196   111.70945137   233.83176674
 H      8   7   6     1.096826841810   112.32627182   349.73173383
 H      8   7   6     1.097786310164   110.70322644   231.01343012
 H      8   7   6     1.096929669713   111.17486923   111.36859808
 H      9   7   6     1.007922283551   119.84928985   183.00090062
 H     12  10   9     1.012233133639   114.97978738   180.64843588
 H     13  12  10     1.100218519433   107.03264179   126.31004365
 H     15  14  13     1.088164842850   119.78605329   359.52252954
 H     16  15  14     1.088657943944   119.86508204   179.57730275
 H     17  16  15     1.084928747446   119.88955660   179.84807891
 H     19  18  17     0.969088184524   107.42162371     3.01841036
 H     20  18  17     1.084829064740   118.72566400   179.50361830

---------------------------
INTERNAL COORDINATES (A.U.)
---------------------------
 C      0   0   0     0.000000000000     0.00000000     0.00000000
 C      1   0   0     2.909241331570     0.00000000     0.00000000
 O      2   1   0     2.721412276139   110.35162329     0.00000000
 C      3   2   1     2.594321165651   126.16572286   269.49848236
 O      4   3   2     2.299799559994   117.72564961   190.82084353
 C      4   3   2     2.821316313450   114.96109870    43.26869355
 C      6   4   3     2.556746970179   122.46128307   273.36062598
 C      7   6   4     2.859594537496   127.18139051   359.50056558
 N      7   6   4     2.639009468868   119.92745852   184.88609790
 C      9   7   6     2.589564345473   124.64962117     7.56381882
 S     10   9   7     3.124698574635   121.65888841   176.71419403
 N     10   9   7     2.594668255996   116.67103489   356.93461300
 C     12  10   9     2.791419447242   125.33270889   353.84066015
 C     13  12  10     2.888144445829   111.81236090   243.22746450
 C     14  13  12     2.659629607973   119.72017109   213.54828868
 C     15  14  13     2.654247277403   120.81081725   180.35555203
 C     16  15  14     2.654590012777   119.66741544   359.85092710
 C     17  16  15     2.647481824735   119.82398860     0.07730976
 O     18  17  16     2.563766947593   119.98434109   179.48521919
 C     18  17  16     2.642974117343   120.40550935   359.95005128
 H      1   2   3     2.074195934992   110.63034510   314.26270484
 H      1   2   3     2.072330867469   110.38811454   194.79192232
 H      1   2   3     2.069322790282   111.48492396    75.25873117
 H      2   1   3     2.074634100513   107.38131512   116.96766759
 H      2   1   3     2.065231943202   111.70945137   233.83176674
 H      8   7   6     2.072702347354   112.32627182   349.73173383
 H      8   7   6     2.074515479778   110.70322644   231.01343012
 H      8   7   6     2.072896663929   111.17486923   111.36859808
 H      9   7   6     1.904697080188   119.84928985   183.00090062
 H     12  10   9     1.912843406259   114.97978738   180.64843588
 H     13  12  10     2.079111689197   107.03264179   126.31004365
 H     15  14  13     2.056333541548   119.78605329   359.52252954
 H     16  15  14     2.057265367571   119.86508204   179.57730275
 H     17  16  15     2.050218207491   119.88955660   179.84807891
 H     19  18  17     1.831311268369   107.42162371     3.01841036
 H     20  18  17     2.050029834477   118.72566400   179.50361830

---------------------
BASIS SET INFORMATION
---------------------
There are 5 groups of distinct atoms

 Group   1 Type C   : 18s5p2d1f contracted to 4s3p2d1f pattern {8811/311/11/1}
 Group   2 Type O   : 18s5p2d1f contracted to 4s3p2d1f pattern {8811/311/11/1}
 Group   3 Type N   : 18s5p2d1f contracted to 4s3p2d1f pattern {8811/311/11/1}
 Group   4 Type S   : 41s16p2d1f contracted to 5s4p2d1f pattern {13131311/7711/11/1}
 Group   5 Type H   : 5s2p1d contracted to 3s2p1d pattern {311/11/1}

Atom   0C    basis set group =>   1
Atom   1C    basis set group =>   1
Atom   2O    basis set group =>   2
Atom   3C    basis set group =>   1
Atom   4O    basis set group =>   2
Atom   5C    basis set group =>   1
Atom   6C    basis set group =>   1
Atom   7C    basis set group =>   1
Atom   8N    basis set group =>   3
Atom   9C    basis set group =>   1
Atom  10S    basis set group =>   4
Atom  11N    basis set group =>   3
Atom  12C    basis set group =>   1
Atom  13C    basis set group =>   1
Atom  14C    basis set group =>   1
Atom  15C    basis set group =>   1
Atom  16C    basis set group =>   1
Atom  17C    basis set group =>   1
Atom  18O    basis set group =>   2
Atom  19C    basis set group =>   1
Atom  20H    basis set group =>   5
Atom  21H    basis set group =>   5
Atom  22H    basis set group =>   5
Atom  23H    basis set group =>   5
Atom  24H    basis set group =>   5
Atom  25H    basis set group =>   5
Atom  26H    basis set group =>   5
Atom  27H    basis set group =>   5
Atom  28H    basis set group =>   5
Atom  29H    basis set group =>   5
Atom  30H    basis set group =>   5
Atom  31H    basis set group =>   5
Atom  32H    basis set group =>   5
Atom  33H    basis set group =>   5
Atom  34H    basis set group =>   5
Atom  35H    basis set group =>   5
---------------------------------
AUXILIARY/C BASIS SET INFORMATION
---------------------------------
There are 5 groups of distinct atoms

 Group   1 Type C   : 8s6p5d3f1g contracted to 8s6p5d3f1g pattern {11111111/111111/11111/111/1}
 Group   2 Type O   : 8s6p5d3f1g contracted to 8s6p5d3f1g pattern {11111111/111111/11111/111/1}
 Group   3 Type N   : 8s6p5d3f1g contracted to 8s6p5d3f1g pattern {11111111/111111/11111/111/1}
 Group   4 Type S   : 10s8p7d5f2g contracted to 10s8p7d5f2g pattern {1111111111/11111111/1111111/11111/11}
 Group   5 Type H   : 4s3p2d1f contracted to 4s3p2d1f pattern {1111/111/11/1}

Atom   0C    basis set group =>   1
Atom   1C    basis set group =>   1
Atom   2O    basis set group =>   2
Atom   3C    basis set group =>   1
Atom   4O    basis set group =>   2
Atom   5C    basis set group =>   1
Atom   6C    basis set group =>   1
Atom   7C    basis set group =>   1
Atom   8N    basis set group =>   3
Atom   9C    basis set group =>   1
Atom  10S    basis set group =>   4
Atom  11N    basis set group =>   3
Atom  12C    basis set group =>   1
Atom  13C    basis set group =>   1
Atom  14C    basis set group =>   1
Atom  15C    basis set group =>   1
Atom  16C    basis set group =>   1
Atom  17C    basis set group =>   1
Atom  18O    basis set group =>   2
Atom  19C    basis set group =>   1
Atom  20H    basis set group =>   5
Atom  21H    basis set group =>   5
Atom  22H    basis set group =>   5
Atom  23H    basis set group =>   5
Atom  24H    basis set group =>   5
Atom  25H    basis set group =>   5
Atom  26H    basis set group =>   5
Atom  27H    basis set group =>   5
Atom  28H    basis set group =>   5
Atom  29H    basis set group =>   5
Atom  30H    basis set group =>   5
Atom  31H    basis set group =>   5
Atom  32H    basis set group =>   5
Atom  33H    basis set group =>   5
Atom  34H    basis set group =>   5
Atom  35H    basis set group =>   5
------------------------------------------------------------------------------
                           ORCA GTO INTEGRAL CALCULATION
------------------------------------------------------------------------------
------------------------------------------------------------------------------
                   ___                                                        
                  /   \      - P O W E R E D   B Y -                         
                 /     \                                                     
                 |  |  |   _    _      __       _____    __    __             
                 |  |  |  | |  | |    /  \     |  _  \  |  |  /  |          
                  \  \/   | |  | |   /    \    | | | |  |  | /  /          
                 / \  \   | |__| |  /  /\  \   | |_| |  |  |/  /          
                |  |  |   |  __  | /  /__\  \  |    /   |      \           
                |  |  |   | |  | | |   __   |  |    \   |  |\   \          
                \     /   | |  | | |  |  |  |  | |\  \  |  | \   \       
                 \___/    |_|  |_| |__|  |__|  |_| \__\ |__|  \__/        
                                                                              
                      - O R C A' S   B I G   F R I E N D -                    
                                      &                                       
                       - I N T E G R A L  F E E D E R -                       
                                                                              
 v1 FN, 2020, v2 2021                                                         
------------------------------------------------------------------------------


Reading SHARK input file CONFS/Conf237.orca.SHARKINP.tmp ... ok
----------------------
SHARK INTEGRAL PACKAGE
----------------------

Number of atoms                             ...     36
Number of basis functions                   ...    828
Number of shells                            ...    298
Maximum angular momentum                    ...      3
Integral batch strategy                     ... SHARK/LIBINT Hybrid
RI-J (if used) integral strategy            ... SPLIT-RIJ (Revised 2003 algorithm where possible)
Printlevel                                  ...      1
Contraction scheme used                     ... SEGMENTED contraction
Coulomb Range Separation                    ... NOT USED
Exchange Range Separation                   ... NOT USED
Finite Nucleus Model                        ... NOT USED
Auxiliary Coulomb fitting basis             ... NOT available
Auxiliary J/K fitting basis                 ... NOT available
Auxiliary Correlation fitting basis         ... AVAILABLE
   # of basis functions in Aux-C            ...   2141
   # of shells in Aux-C                     ...    629
   Maximum angular momentum in Aux-C        ...      4
Auxiliary 'external' fitting basis          ... NOT available
Integral threshold                          ...     2.500000e-11
Primitive cut-off                           ...     2.500000e-12
Primitive pair pre-selection threshold      ...     2.500000e-12

Calculating pre-screening integrals         ... done (  0.5 sec) Dimension = 298
Organizing shell pair data                  ... done (  0.9 sec)
Shell pair information
Total number of shell pairs                 ...     44551
Shell pairs after pre-screening             ...     34983
Total number of primitive shell pairs       ...    234348
Primitive shell pairs kept                  ...     99802
          la=0 lb=0:   6938 shell pairs
          la=1 lb=0:   9696 shell pairs
          la=1 lb=1:   3439 shell pairs
          la=2 lb=0:   5579 shell pairs
          la=2 lb=1:   3843 shell pairs
          la=2 lb=2:   1106 shell pairs
          la=3 lb=0:   2033 shell pairs
          la=3 lb=1:   1399 shell pairs
          la=3 lb=2:    795 shell pairs
          la=3 lb=3:    155 shell pairs

Calculating one electron integrals          ... done (  0.4 sec)
Calculating RI/C V-Matrix + Cholesky decomp.... done (  1.1 sec)
Calculating Nuclear repulsion               ... done (  0.0 sec) ENN=   1740.237123628924 Eh

SHARK setup successfully completed in   3.5 seconds

Maximum memory used throughout the entire GTOINT-calculation: 523.0 MB
-------------------------------------------------------------------------------
                                 ORCA SCF
-------------------------------------------------------------------------------

------------
SCF SETTINGS
------------
Hamiltonian:
 Ab initio Hamiltonian  Method          .... Hartree-Fock(GTOs)


General Settings:
 Integral files         IntName         .... CONFS/Conf237.orca
 Hartree-Fock type      HFTyp           .... RHF
 Total Charge           Charge          ....    0
 Multiplicity           Mult            ....    1
 Number of Electrons    NEL             ....  154
 Basis Dimension        Dim             ....  828
 Nuclear Repulsion      ENuc            ....   1740.2371236289 Eh

Convergence Acceleration:
 DIIS                   CNVDIIS         .... on
   Start iteration      DIISMaxIt       ....    12
   Startup error        DIISStart       ....  0.200000
   # of expansion vecs  DIISMaxEq       ....     5
   Bias factor          DIISBfac        ....   1.050
   Max. coefficient     DIISMaxC        ....  10.000
 Trust-Rad. Augm. Hess. CNVTRAH         .... auto
   Auto Start mean grad. ratio tolernc. ....  1.125000
   Auto Start start iteration           ....    20
   Auto Start num. interpolation iter.  ....    10
   Max. Number of Micro iterations      ....    16
   Max. Number of Macro iterations      .... Maxiter - #DIIS iter
   Number of Davidson start vectors     ....     2
   Converg. threshold I  (grad. norm)   ....   1.000e-05
   Converg. threshold II (energy diff.) ....   1.000e-08
   Grad. Scal. Fac. for Micro threshold ....   0.100
   Minimum threshold for Micro iter.    ....   0.010
   NR start threshold (gradient norm)   ....   0.001
   Initial trust radius                 ....   0.400
   Minimum AH scaling param. (alpha)    ....   1.000
   Maximum AH scaling param. (alpha)    .... 1000.000
   Orbital update algorithm             .... Taylor
   White noise on init. David. guess    .... on
   Maximum white noise                  ....   0.010
   Quad. conv. algorithm                .... NR
 SOSCF                  CNVSOSCF        .... on
   Start iteration      SOSCFMaxIt      ....   150
   Startup grad/error   SOSCFStart      ....  0.003300
 Level Shifting         CNVShift        .... on
   Level shift para.    LevelShift      ....    0.2500
   Turn off err/grad.   ShiftErr        ....    0.0010
 Zerner damping         CNVZerner       .... off
 Static damping         CNVDamp         .... on
   Fraction old density DampFac         ....    0.7000
   Max. Damping (<1)    DampMax         ....    0.9800
   Min. Damping (>=0)   DampMin         ....    0.0000
   Turn off err/grad.   DampErr         ....    0.1000
 Fernandez-Rico         CNVRico         .... off

SCF Procedure:
 Maximum # iterations   MaxIter         ....   125
 SCF integral mode      SCFMode         .... Direct
   Integral package                     .... SHARK and LIBINT hybrid scheme
 Reset frequency        DirectResetFreq ....    20
 Integral Threshold     Thresh          ....  2.500e-11 Eh
 Primitive CutOff       TCut            ....  2.500e-12 Eh

Convergence Tolerance:
 Convergence Check Mode ConvCheckMode   .... Total+1el-Energy
 Convergence forced     ConvForced      .... 1
 Energy Change          TolE            ....  1.000e-08 Eh
 1-El. energy change                    ....  1.000e-05 Eh
 Orbital Gradient       TolG            ....  1.000e-05
 Orbital Rotation angle TolX            ....  1.000e-05
 DIIS Error             TolErr          ....  5.000e-07


Diagonalization of the overlap matrix:
Smallest eigenvalue                        ... 3.245e-05
Time for diagonalization                   ...    0.134 sec
Threshold for overlap eigenvalues          ... 1.000e-08
Number of eigenvalues below threshold      ... 0
Time for construction of square roots      ...    0.094 sec
Total time needed                          ...    0.228 sec

Time for model grid setup =    1.625 sec

------------------------------
INITIAL GUESS: MODEL POTENTIAL
------------------------------
Loading Hartree-Fock densities                     ... done
Calculating cut-offs                               ... done
Initializing the effective Hamiltonian             ... done
Setting up the integral package (SHARK)            ... done
Starting the Coulomb interaction                   ... done (   7.5 sec)
Reading the grid                                   ... done
Mapping shells                                     ... done
Starting the XC term evaluation                    ... done (   3.5 sec)
Transforming the Hamiltonian                       ... done (   0.1 sec)
Diagonalizing the Hamiltonian                      ... done (   0.1 sec)
Back transforming the eigenvectors                 ... done (   0.0 sec)
Now organizing SCF variables                       ... done
                      ------------------
                      INITIAL GUESS DONE (  13.0 sec)
                      ------------------
--------------
SCF ITERATIONS
--------------
ITER       Energy         Delta-E        Max-DP      RMS-DP      [F,P]     Damp
               ***  Starting incremental Fock matrix formation  ***
  0  -1269.9796143438   0.000000000000 0.04931322  0.00045038  0.3148182 0.7000
  1  -1270.2474356049  -0.267821261044 0.03609970  0.00036555  0.1873808 0.7000
                               ***Turning on DIIS***
  2  -1270.4140183944  -0.166582789515 0.02586713  0.00024348  0.1097855 0.7000
  3  -1272.5450314353  -2.131013040878 0.06327842  0.00052267  0.0829125 0.0000
  4  -1270.7264516896   1.818579745711 0.01146803  0.00010246  0.0075010 0.0000
  5  -1270.7821279697  -0.055676280134 0.00446824  0.00005229  0.0040237 0.0000
  6  -1270.7608843407   0.021243628969 0.00189536  0.00002660  0.0035854 0.0000
                      *** Initiating the SOSCF procedure ***
                           *** Shutting down DIIS ***
                      *** Re-Reading the Fockian *** 
                      *** Removing any level shift *** 
ITER      Energy       Delta-E        Grad      Rot      Max-DP    RMS-DP
  7  -1270.77579016  -0.0149058206  0.001066  0.001066  0.001180  0.000015
               *** Restarting incremental Fock matrix formation ***
  8  -1270.77595490  -0.0001647401  0.000550  0.001055  0.000811  0.000008
  9  -1270.77596836  -0.0000134549  0.000213  0.001253  0.001306  0.000011
 10  -1270.77597398  -0.0000056272  0.000058  0.000078  0.000168  0.000002
 11  -1270.77597459  -0.0000006091  0.000042  0.000075  0.000066  0.000001
 12  -1270.77597469  -0.0000000967  0.000006  0.000023  0.000027  0.000000
 13  -1270.77597470  -0.0000000094  0.000005  0.000022  0.000013  0.000000
                  ***Gradient check signals convergence***
              ***Rediagonalizing the Fockian in SOSCF/NRSCF***

               *****************************************************
               *                     SUCCESS                       *
               *           SCF CONVERGED AFTER  14 CYCLES          *
               *****************************************************


----------------
TOTAL SCF ENERGY
----------------

Total Energy       :        -1270.77597471 Eh          -34579.57226 eV

Components:
Nuclear Repulsion  :         1740.23712363 Eh           47354.25958 eV
Electronic Energy  :        -3011.01309834 Eh          -81933.83184 eV
One Electron Energy:        -5201.22473066 Eh         -141532.52030 eV
Two Electron Energy:         2190.21163232 Eh           59598.68845 eV

Virial components:
Potential Energy   :        -2539.80218221 Eh          -69111.53094 eV
Kinetic Energy     :         1269.02620750 Eh           34531.95868 eV
Virial Ratio       :            2.00137883


---------------
SCF CONVERGENCE
---------------

  Last Energy change         ...   -1.0171e-08  Tolerance :   1.0000e-08
  Last MAX-Density change    ...    2.9356e-06  Tolerance :   1.0000e-07
  Last RMS-Density change    ...    4.2790e-08  Tolerance :   5.0000e-09
  Last Orbital Gradient      ...    1.5078e-06  Tolerance :   1.0000e-05
  Last Orbital Rotation      ...    4.1819e-06  Tolerance :   1.0000e-05

             **** THE GBW FILE WAS UPDATED (CONFS/Conf237.orca.gbw) ****
             **** DENSITY CONFS/Conf237.orca.scfp WAS UPDATED ****
             **** ENERGY FILE WAS UPDATED (CONFS/Conf237.orca.en.tmp) ****
             **** THE GBW FILE WAS UPDATED (CONFS/Conf237.orca.gbw) ****
             **** DENSITY CONFS/Conf237.orca.scfp WAS UPDATED ****
----------------
ORBITAL ENERGIES
----------------

  NO   OCC          E(Eh)            E(eV) 
   0   2.0000     -91.889043     -2500.4280 
   1   2.0000     -20.600810      -560.5765 
   2   2.0000     -20.596622      -560.4626 
   3   2.0000     -20.555590      -559.3460 
   4   2.0000     -15.625202      -425.1834 
   5   2.0000     -15.610962      -424.7959 
   6   2.0000     -11.399493      -310.1960 
   7   2.0000     -11.385765      -309.8224 
   8   2.0000     -11.326449      -308.2084 
   9   2.0000     -11.315900      -307.9213 
  10   2.0000     -11.312946      -307.8409 
  11   2.0000     -11.306756      -307.6725 
  12   2.0000     -11.272376      -306.7369 
  13   2.0000     -11.267350      -306.6002 
  14   2.0000     -11.261332      -306.4364 
  15   2.0000     -11.253549      -306.2246 
  16   2.0000     -11.242854      -305.9336 
  17   2.0000     -11.238493      -305.8149 
  18   2.0000     -11.235561      -305.7352 
  19   2.0000     -11.227719      -305.5218 
  20   2.0000      -8.894169      -242.0226 
  21   2.0000      -6.575765      -178.9357 
  22   2.0000      -6.573730      -178.8803 
  23   2.0000      -6.573162      -178.8648 
  24   2.0000      -1.451852       -39.5069 
  25   2.0000      -1.416457       -38.5438 
  26   2.0000      -1.361459       -37.0472 
  27   2.0000      -1.339428       -36.4477 
  28   2.0000      -1.239284       -33.7226 
  29   2.0000      -1.158030       -31.5116 
  30   2.0000      -1.124618       -30.6024 
  31   2.0000      -1.047506       -28.5041 
  32   2.0000      -1.038815       -28.2676 
  33   2.0000      -1.016349       -27.6563 
  34   2.0000      -1.004976       -27.3468 
  35   2.0000      -0.989122       -26.9154 
  36   2.0000      -0.927208       -25.2306 
  37   2.0000      -0.892891       -24.2968 
  38   2.0000      -0.854063       -23.2402 
  39   2.0000      -0.839775       -22.8514 
  40   2.0000      -0.833448       -22.6793 
  41   2.0000      -0.831159       -22.6170 
  42   2.0000      -0.754272       -20.5248 
  43   2.0000      -0.739122       -20.1125 
  44   2.0000      -0.729934       -19.8625 
  45   2.0000      -0.694747       -18.9050 
  46   2.0000      -0.687802       -18.7161 
  47   2.0000      -0.681554       -18.5460 
  48   2.0000      -0.675745       -18.3880 
  49   2.0000      -0.664433       -18.0801 
  50   2.0000      -0.651949       -17.7404 
  51   2.0000      -0.639913       -17.4129 
  52   2.0000      -0.639574       -17.4037 
  53   2.0000      -0.616936       -16.7877 
  54   2.0000      -0.611359       -16.6359 
  55   2.0000      -0.605530       -16.4773 
  56   2.0000      -0.601178       -16.3589 
  57   2.0000      -0.590620       -16.0716 
  58   2.0000      -0.580727       -15.8024 
  59   2.0000      -0.573067       -15.5939 
  60   2.0000      -0.564871       -15.3709 
  61   2.0000      -0.557877       -15.1806 
  62   2.0000      -0.539603       -14.6833 
  63   2.0000      -0.529011       -14.3951 
  64   2.0000      -0.516748       -14.0614 
  65   2.0000      -0.512084       -13.9345 
  66   2.0000      -0.504422       -13.7260 
  67   2.0000      -0.500620       -13.6226 
  68   2.0000      -0.485205       -13.2031 
  69   2.0000      -0.464257       -12.6331 
  70   2.0000      -0.455684       -12.3998 
  71   2.0000      -0.452010       -12.2998 
  72   2.0000      -0.356685        -9.7059 
  73   2.0000      -0.347182        -9.4473 
  74   2.0000      -0.328821        -8.9477 
  75   2.0000      -0.321564        -8.7502 
  76   2.0000      -0.317606        -8.6425 
  77   0.0000       0.089496         2.4353 
  78   0.0000       0.102730         2.7954 
  79   0.0000       0.111475         3.0334 
  80   0.0000       0.128690         3.5018 
  81   0.0000       0.131139         3.5685 
  82   0.0000       0.141466         3.8495 
  83   0.0000       0.145120         3.9489 
  84   0.0000       0.150884         4.1058 
  85   0.0000       0.159885         4.3507 
  86   0.0000       0.166599         4.5334 
  87   0.0000       0.174735         4.7548 
  88   0.0000       0.183901         5.0042 
  89   0.0000       0.193586         5.2677 
  90   0.0000       0.196766         5.3543 
  91   0.0000       0.206265         5.6128 
  92   0.0000       0.208971         5.6864 
  93   0.0000       0.217475         5.9178 
  94   0.0000       0.219611         5.9759 
  95   0.0000       0.235671         6.4129 
  96   0.0000       0.243976         6.6389 
  97   0.0000       0.247492         6.7346 
  98   0.0000       0.259219         7.0537 
  99   0.0000       0.278187         7.5699 
 100   0.0000       0.284510         7.7419 
 101   0.0000       0.297913         8.1066 
 102   0.0000       0.309567         8.4238 
 103   0.0000       0.315070         8.5735 
 104   0.0000       0.327044         8.8993 
 105   0.0000       0.334011         9.0889 
 106   0.0000       0.344185         9.3657 
 107   0.0000       0.350423         9.5355 
 108   0.0000       0.354364         9.6427 
 109   0.0000       0.364763         9.9257 
 110   0.0000       0.371528        10.1098 
 111   0.0000       0.377425        10.2703 
 112   0.0000       0.383930        10.4473 
 113   0.0000       0.398738        10.8502 
 114   0.0000       0.400516        10.8986 
 115   0.0000       0.410840        11.1795 
 116   0.0000       0.416538        11.3346 
 117   0.0000       0.425624        11.5818 
 118   0.0000       0.434970        11.8361 
 119   0.0000       0.438996        11.9457 
 120   0.0000       0.441943        12.0259 
 121   0.0000       0.450773        12.2662 
 122   0.0000       0.452653        12.3173 
 123   0.0000       0.463415        12.6102 
 124   0.0000       0.470587        12.8053 
 125   0.0000       0.474038        12.8992 
 126   0.0000       0.483771        13.1641 
 127   0.0000       0.489293        13.3143 
 128   0.0000       0.494146        13.4464 
 129   0.0000       0.502067        13.6619 
 130   0.0000       0.506562        13.7843 
 131   0.0000       0.512297        13.9403 
 132   0.0000       0.516198        14.0465 
 133   0.0000       0.517932        14.0936 
 134   0.0000       0.525736        14.3060 
 135   0.0000       0.527092        14.3429 
 136   0.0000       0.536960        14.6114 
 137   0.0000       0.537883        14.6365 
 138   0.0000       0.541507        14.7352 
 139   0.0000       0.550919        14.9913 
 140   0.0000       0.556931        15.1549 
 141   0.0000       0.560098        15.2411 
 142   0.0000       0.569444        15.4954 
 143   0.0000       0.571477        15.5507 
 144   0.0000       0.575424        15.6581 
 145   0.0000       0.582960        15.8631 
 146   0.0000       0.584474        15.9044 
 147   0.0000       0.590666        16.0728 
 148   0.0000       0.593373        16.1465 
 149   0.0000       0.600541        16.3415 
 150   0.0000       0.602579        16.3970 
 151   0.0000       0.604873        16.4594 
 152   0.0000       0.608268        16.5518 
 153   0.0000       0.613182        16.6855 
 154   0.0000       0.617935        16.8149 
 155   0.0000       0.619973        16.8703 
 156   0.0000       0.626594        17.0505 
 157   0.0000       0.633336        17.2339 
 158   0.0000       0.638108        17.3638 
 159   0.0000       0.651166        17.7191 
 160   0.0000       0.656103        17.8535 
 161   0.0000       0.659100        17.9350 
 162   0.0000       0.662262        18.0211 
 163   0.0000       0.667580        18.1658 
 164   0.0000       0.670504        18.2453 
 165   0.0000       0.676618        18.4117 
 166   0.0000       0.680401        18.5146 
 167   0.0000       0.686040        18.6681 
 168   0.0000       0.694864        18.9082 
 169   0.0000       0.701525        19.0895 
 170   0.0000       0.706514        19.2252 
 171   0.0000       0.710043        19.3213 
 172   0.0000       0.719847        19.5880 
 173   0.0000       0.729674        19.8554 
 174   0.0000       0.734843        19.9961 
 175   0.0000       0.742365        20.2008 
 176   0.0000       0.746548        20.3146 
 177   0.0000       0.748276        20.3616 
 178   0.0000       0.757223        20.6051 
 179   0.0000       0.770253        20.9597 
 180   0.0000       0.771712        20.9994 
 181   0.0000       0.783286        21.3143 
 182   0.0000       0.788092        21.4451 
 183   0.0000       0.790430        21.5087 
 184   0.0000       0.799264        21.7491 
 185   0.0000       0.813421        22.1343 
 186   0.0000       0.822503        22.3814 
 187   0.0000       0.835569        22.7370 
 188   0.0000       0.839069        22.8322 
 189   0.0000       0.851024        23.1575 
 190   0.0000       0.855415        23.2770 
 191   0.0000       0.860393        23.4125 
 192   0.0000       0.868144        23.6234 
 193   0.0000       0.873844        23.7785 
 194   0.0000       0.879278        23.9264 
 195   0.0000       0.885358        24.0918 
 196   0.0000       0.891351        24.2549 
 197   0.0000       0.898597        24.4521 
 198   0.0000       0.908268        24.7152 
 199   0.0000       0.911355        24.7992 
 200   0.0000       0.921499        25.0753 
 201   0.0000       0.926931        25.2231 
 202   0.0000       0.933729        25.4080 
 203   0.0000       0.943227        25.6665 
 204   0.0000       0.949609        25.8402 
 205   0.0000       0.962318        26.1860 
 206   0.0000       0.970428        26.4067 
 207   0.0000       0.975827        26.5536 
 208   0.0000       0.983335        26.7579 
 209   0.0000       0.985772        26.8242 
 210   0.0000       0.991249        26.9733 
 211   0.0000       0.997401        27.1407 
 212   0.0000       1.008563        27.4444 
 213   0.0000       1.010406        27.4945 
 214   0.0000       1.013014        27.5655 
 215   0.0000       1.023475        27.8502 
 216   0.0000       1.028880        27.9973 
 217   0.0000       1.030186        28.0328 
 218   0.0000       1.038292        28.2533 
 219   0.0000       1.043372        28.3916 
 220   0.0000       1.055122        28.7113 
 221   0.0000       1.058679        28.8081 
 222   0.0000       1.070140        29.1200 
 223   0.0000       1.078015        29.3343 
 224   0.0000       1.086063        29.5533 
 225   0.0000       1.090500        29.6740 
 226   0.0000       1.093456        29.7545 
 227   0.0000       1.109417        30.1888 
 228   0.0000       1.110508        30.2185 
 229   0.0000       1.114155        30.3177 
 230   0.0000       1.125987        30.6397 
 231   0.0000       1.133444        30.8426 
 232   0.0000       1.140168        31.0256 
 233   0.0000       1.147417        31.2228 
 234   0.0000       1.156332        31.4654 
 235   0.0000       1.170154        31.8415 
 236   0.0000       1.173627        31.9360 
 237   0.0000       1.181317        32.1453 
 238   0.0000       1.186530        32.2871 
 239   0.0000       1.192683        32.4546 
 240   0.0000       1.206619        32.8338 
 241   0.0000       1.210524        32.9400 
 242   0.0000       1.216001        33.0891 
 243   0.0000       1.217736        33.1363 
 244   0.0000       1.223392        33.2902 
 245   0.0000       1.235970        33.6325 
 246   0.0000       1.248486        33.9730 
 247   0.0000       1.254437        34.1350 
 248   0.0000       1.266127        34.4531 
 249   0.0000       1.270417        34.5698 
 250   0.0000       1.279883        34.8274 
 251   0.0000       1.287943        35.0467 
 252   0.0000       1.292588        35.1731 
 253   0.0000       1.296206        35.2716 
 254   0.0000       1.307814        35.5874 
 255   0.0000       1.316484        35.8234 
 256   0.0000       1.317629        35.8545 
 257   0.0000       1.320536        35.9336 
 258   0.0000       1.335528        36.3416 
 259   0.0000       1.338606        36.4253 
 260   0.0000       1.345538        36.6140 
 261   0.0000       1.356596        36.9148 
 262   0.0000       1.365454        37.1559 
 263   0.0000       1.372877        37.3579 
 264   0.0000       1.378126        37.5007 
 265   0.0000       1.393133        37.9091 
 266   0.0000       1.397418        38.0257 
 267   0.0000       1.401148        38.1272 
 268   0.0000       1.410942        38.3937 
 269   0.0000       1.422536        38.7092 
 270   0.0000       1.425845        38.7992 
 271   0.0000       1.435194        39.0536 
 272   0.0000       1.448803        39.4239 
 273   0.0000       1.452442        39.5230 
 274   0.0000       1.453615        39.5549 
 275   0.0000       1.461310        39.7643 
 276   0.0000       1.477472        40.2040 
 277   0.0000       1.482998        40.3544 
 278   0.0000       1.489109        40.5207 
 279   0.0000       1.492039        40.6005 
 280   0.0000       1.497496        40.7490 
 281   0.0000       1.504764        40.9467 
 282   0.0000       1.515924        41.2504 
 283   0.0000       1.525353        41.5070 
 284   0.0000       1.531004        41.6607 
 285   0.0000       1.536065        41.7985 
 286   0.0000       1.548456        42.1356 
 287   0.0000       1.554111        42.2895 
 288   0.0000       1.557877        42.3920 
 289   0.0000       1.560645        42.4673 
 290   0.0000       1.570311        42.7303 
 291   0.0000       1.572871        42.8000 
 292   0.0000       1.587555        43.1996 
 293   0.0000       1.594617        43.3917 
 294   0.0000       1.603616        43.6366 
 295   0.0000       1.610684        43.8289 
 296   0.0000       1.620437        44.0943 
 297   0.0000       1.623873        44.1878 
 298   0.0000       1.633838        44.4590 
 299   0.0000       1.637225        44.5512 
 300   0.0000       1.646694        44.8088 
 301   0.0000       1.658484        45.1297 
 302   0.0000       1.663014        45.2529 
 303   0.0000       1.674973        45.5783 
 304   0.0000       1.677024        45.6341 
 305   0.0000       1.682600        45.7859 
 306   0.0000       1.692258        46.0487 
 307   0.0000       1.709709        46.5235 
 308   0.0000       1.712878        46.6098 
 309   0.0000       1.719735        46.7964 
 310   0.0000       1.732809        47.1521 
 311   0.0000       1.742530        47.4166 
 312   0.0000       1.745675        47.5022 
 313   0.0000       1.754392        47.7394 
 314   0.0000       1.772415        48.2299 
 315   0.0000       1.776921        48.3525 
 316   0.0000       1.781730        48.4833 
 317   0.0000       1.795617        48.8612 
 318   0.0000       1.797887        48.9230 
 319   0.0000       1.817477        49.4561 
 320   0.0000       1.838538        50.0292 
 321   0.0000       1.842150        50.1275 
 322   0.0000       1.855623        50.4941 
 323   0.0000       1.861310        50.6488 
 324   0.0000       1.869375        50.8683 
 325   0.0000       1.879988        51.1571 
 326   0.0000       1.882295        51.2198 
 327   0.0000       1.892170        51.4886 
 328   0.0000       1.909061        51.9482 
 329   0.0000       1.913279        52.0630 
 330   0.0000       1.935154        52.6582 
 331   0.0000       1.941135        52.8210 
 332   0.0000       1.944771        52.9199 
 333   0.0000       1.949508        53.0488 
 334   0.0000       1.977726        53.8167 
 335   0.0000       1.986841        54.0647 
 336   0.0000       1.994811        54.2816 
 337   0.0000       2.006489        54.5993 
 338   0.0000       2.013390        54.7871 
 339   0.0000       2.022191        55.0266 
 340   0.0000       2.034036        55.3489 
 341   0.0000       2.055505        55.9331 
 342   0.0000       2.064701        56.1834 
 343   0.0000       2.086906        56.7876 
 344   0.0000       2.090635        56.8891 
 345   0.0000       2.120292        57.6961 
 346   0.0000       2.127187        57.8837 
 347   0.0000       2.140104        58.2352 
 348   0.0000       2.149914        58.5021 
 349   0.0000       2.171942        59.1015 
 350   0.0000       2.192114        59.6505 
 351   0.0000       2.204339        59.9831 
 352   0.0000       2.211330        60.1733 
 353   0.0000       2.223276        60.4984 
 354   0.0000       2.236808        60.8666 
 355   0.0000       2.265027        61.6345 
 356   0.0000       2.279778        62.0359 
 357   0.0000       2.291665        62.3594 
 358   0.0000       2.298361        62.5416 
 359   0.0000       2.311896        62.9099 
 360   0.0000       2.321226        63.1638 
 361   0.0000       2.329400        63.3862 
 362   0.0000       2.336801        63.5876 
 363   0.0000       2.348264        63.8995 
 364   0.0000       2.364397        64.3385 
 365   0.0000       2.378059        64.7103 
 366   0.0000       2.379137        64.7396 
 367   0.0000       2.394912        65.1689 
 368   0.0000       2.414602        65.7047 
 369   0.0000       2.434746        66.2528 
 370   0.0000       2.449562        66.6560 
 371   0.0000       2.459890        66.9370 
 372   0.0000       2.466189        67.1084 
 373   0.0000       2.482480        67.5517 
 374   0.0000       2.496235        67.9260 
 375   0.0000       2.510294        68.3086 
 376   0.0000       2.522568        68.6426 
 377   0.0000       2.527912        68.7880 
 378   0.0000       2.544935        69.2512 
 379   0.0000       2.558935        69.6322 
 380   0.0000       2.586026        70.3694 
 381   0.0000       2.590857        70.5008 
 382   0.0000       2.592215        70.5377 
 383   0.0000       2.607132        70.9437 
 384   0.0000       2.621799        71.3428 
 385   0.0000       2.635394        71.7127 
 386   0.0000       2.648177        72.0605 
 387   0.0000       2.653461        72.2043 
 388   0.0000       2.655922        72.2713 
 389   0.0000       2.668053        72.6014 
 390   0.0000       2.686337        73.0990 
 391   0.0000       2.689627        73.1885 
 392   0.0000       2.712096        73.7999 
 393   0.0000       2.717238        73.9398 
 394   0.0000       2.733586        74.3846 
 395   0.0000       2.750837        74.8541 
 396   0.0000       2.756171        74.9992 
 397   0.0000       2.770756        75.3961 
 398   0.0000       2.774928        75.5096 
 399   0.0000       2.780352        75.6572 
 400   0.0000       2.792783        75.9955 
 401   0.0000       2.803954        76.2995 
 402   0.0000       2.807945        76.4081 
 403   0.0000       2.818261        76.6888 
 404   0.0000       2.823949        76.8436 
 405   0.0000       2.838680        77.2444 
 406   0.0000       2.845637        77.4337 
 407   0.0000       2.858616        77.7869 
 408   0.0000       2.865006        77.9608 
 409   0.0000       2.869269        78.0768 
 410   0.0000       2.889771        78.6347 
 411   0.0000       2.897877        78.8553 
 412   0.0000       2.904921        79.0469 
 413   0.0000       2.917406        79.3867 
 414   0.0000       2.922899        79.5361 
 415   0.0000       2.928848        79.6980 
 416   0.0000       2.938593        79.9632 
 417   0.0000       2.944215        80.1162 
 418   0.0000       2.949970        80.2728 
 419   0.0000       2.958036        80.4922 
 420   0.0000       2.975637        80.9712 
 421   0.0000       2.987928        81.3057 
 422   0.0000       2.991204        81.3948 
 423   0.0000       2.996791        81.5468 
 424   0.0000       3.006849        81.8205 
 425   0.0000       3.011583        81.9494 
 426   0.0000       3.016389        82.0801 
 427   0.0000       3.031770        82.4987 
 428   0.0000       3.040676        82.7410 
 429   0.0000       3.042365        82.7869 
 430   0.0000       3.054333        83.1126 
 431   0.0000       3.056580        83.1738 
 432   0.0000       3.063961        83.3746 
 433   0.0000       3.071611        83.5828 
 434   0.0000       3.081799        83.8600 
 435   0.0000       3.085448        83.9593 
 436   0.0000       3.089989        84.0829 
 437   0.0000       3.099688        84.3468 
 438   0.0000       3.111424        84.6662 
 439   0.0000       3.120013        84.8999 
 440   0.0000       3.128345        85.1266 
 441   0.0000       3.131594        85.2150 
 442   0.0000       3.133650        85.2710 
 443   0.0000       3.138837        85.4121 
 444   0.0000       3.149606        85.7051 
 445   0.0000       3.156777        85.9003 
 446   0.0000       3.166653        86.1690 
 447   0.0000       3.180800        86.5540 
 448   0.0000       3.183589        86.6299 
 449   0.0000       3.187771        86.7437 
 450   0.0000       3.198223        87.0281 
 451   0.0000       3.213288        87.4380 
 452   0.0000       3.226215        87.7898 
 453   0.0000       3.234966        88.0279 
 454   0.0000       3.238393        88.1212 
 455   0.0000       3.246658        88.3461 
 456   0.0000       3.250498        88.4506 
 457   0.0000       3.253189        88.5238 
 458   0.0000       3.268260        88.9339 
 459   0.0000       3.274246        89.0968 
 460   0.0000       3.276853        89.1677 
 461   0.0000       3.281803        89.3024 
 462   0.0000       3.296784        89.7100 
 463   0.0000       3.302414        89.8633 
 464   0.0000       3.308031        90.0161 
 465   0.0000       3.312548        90.1390 
 466   0.0000       3.314983        90.2053 
 467   0.0000       3.326689        90.5238 
 468   0.0000       3.333631        90.7127 
 469   0.0000       3.334513        90.7367 
 470   0.0000       3.344747        91.0152 
 471   0.0000       3.349819        91.1532 
 472   0.0000       3.360654        91.4481 
 473   0.0000       3.362227        91.4908 
 474   0.0000       3.368226        91.6541 
 475   0.0000       3.372299        91.7649 
 476   0.0000       3.377505        91.9066 
 477   0.0000       3.381152        92.0058 
 478   0.0000       3.388189        92.1973 
 479   0.0000       3.389754        92.2399 
 480   0.0000       3.393568        92.3437 
 481   0.0000       3.400386        92.5292 
 482   0.0000       3.403870        92.6240 
 483   0.0000       3.414073        92.9016 
 484   0.0000       3.419065        93.0375 
 485   0.0000       3.426797        93.2479 
 486   0.0000       3.436707        93.5176 
 487   0.0000       3.442488        93.6749 
 488   0.0000       3.443017        93.6892 
 489   0.0000       3.448743        93.8451 
 490   0.0000       3.450033        93.8802 
 491   0.0000       3.459462        94.1368 
 492   0.0000       3.463728        94.2528 
 493   0.0000       3.471324        94.4595 
 494   0.0000       3.484555        94.8196 
 495   0.0000       3.491076        94.9970 
 496   0.0000       3.495434        95.1156 
 497   0.0000       3.499437        95.2245 
 498   0.0000       3.505102        95.3787 
 499   0.0000       3.509678        95.5032 
 500   0.0000       3.521545        95.8261 
 501   0.0000       3.527982        96.0013 
 502   0.0000       3.535915        96.2171 
 503   0.0000       3.542732        96.4026 
 504   0.0000       3.546449        96.5038 
 505   0.0000       3.559618        96.8621 
 506   0.0000       3.570221        97.1507 
 507   0.0000       3.577863        97.3586 
 508   0.0000       3.582298        97.4793 
 509   0.0000       3.590660        97.7068 
 510   0.0000       3.599487        97.9470 
 511   0.0000       3.603892        98.0669 
 512   0.0000       3.609771        98.2269 
 513   0.0000       3.614205        98.3475 
 514   0.0000       3.621338        98.5416 
 515   0.0000       3.632477        98.8447 
 516   0.0000       3.637348        98.9773 
 517   0.0000       3.643288        99.1389 
 518   0.0000       3.652620        99.3929 
 519   0.0000       3.654204        99.4360 
 520   0.0000       3.661656        99.6387 
 521   0.0000       3.662503        99.6618 
 522   0.0000       3.671035        99.8939 
 523   0.0000       3.681562       100.1804 
 524   0.0000       3.689129       100.3863 
 525   0.0000       3.694530       100.5333 
 526   0.0000       3.700736       100.7022 
 527   0.0000       3.707792       100.8942 
 528   0.0000       3.713528       101.0502 
 529   0.0000       3.716524       101.1318 
 530   0.0000       3.724706       101.3544 
 531   0.0000       3.733182       101.5850 
 532   0.0000       3.736465       101.6744 
 533   0.0000       3.746900       101.9583 
 534   0.0000       3.755031       102.1796 
 535   0.0000       3.760150       102.3189 
 536   0.0000       3.766888       102.5022 
 537   0.0000       3.769742       102.5799 
 538   0.0000       3.775108       102.7259 
 539   0.0000       3.780717       102.8785 
 540   0.0000       3.795988       103.2941 
 541   0.0000       3.796620       103.3113 
 542   0.0000       3.801774       103.4515 
 543   0.0000       3.810772       103.6964 
 544   0.0000       3.823626       104.0461 
 545   0.0000       3.830796       104.2413 
 546   0.0000       3.835994       104.3827 
 547   0.0000       3.843861       104.5968 
 548   0.0000       3.853536       104.8600 
 549   0.0000       3.860731       105.0558 
 550   0.0000       3.862067       105.0922 
 551   0.0000       3.875362       105.4540 
 552   0.0000       3.877916       105.5235 
 553   0.0000       3.888615       105.8146 
 554   0.0000       3.895569       106.0038 
 555   0.0000       3.898380       106.0803 
 556   0.0000       3.909165       106.3738 
 557   0.0000       3.916236       106.5662 
 558   0.0000       3.922734       106.7430 
 559   0.0000       3.939280       107.1933 
 560   0.0000       3.943969       107.3209 
 561   0.0000       3.950853       107.5082 
 562   0.0000       3.961734       107.8043 
 563   0.0000       3.974433       108.1498 
 564   0.0000       3.981849       108.3516 
 565   0.0000       3.991513       108.6146 
 566   0.0000       4.001997       108.8999 
 567   0.0000       4.012698       109.1911 
 568   0.0000       4.023287       109.4792 
 569   0.0000       4.025686       109.5445 
 570   0.0000       4.030546       109.6767 
 571   0.0000       4.038088       109.8820 
 572   0.0000       4.046115       110.1004 
 573   0.0000       4.063378       110.5701 
 574   0.0000       4.064574       110.6027 
 575   0.0000       4.071990       110.8045 
 576   0.0000       4.083436       111.1159 
 577   0.0000       4.091483       111.3349 
 578   0.0000       4.103305       111.6566 
 579   0.0000       4.112686       111.9119 
 580   0.0000       4.117632       112.0465 
 581   0.0000       4.119613       112.1004 
 582   0.0000       4.132273       112.4449 
 583   0.0000       4.137863       112.5970 
 584   0.0000       4.149689       112.9188 
 585   0.0000       4.156439       113.1025 
 586   0.0000       4.162804       113.2757 
 587   0.0000       4.167585       113.4058 
 588   0.0000       4.174723       113.6000 
 589   0.0000       4.179008       113.7166 
 590   0.0000       4.182105       113.8009 
 591   0.0000       4.191100       114.0456 
 592   0.0000       4.204889       114.4209 
 593   0.0000       4.209417       114.5441 
 594   0.0000       4.215430       114.7077 
 595   0.0000       4.229385       115.0874 
 596   0.0000       4.234046       115.2142 
 597   0.0000       4.241530       115.4179 
 598   0.0000       4.252207       115.7084 
 599   0.0000       4.258389       115.8767 
 600   0.0000       4.268117       116.1414 
 601   0.0000       4.274630       116.3186 
 602   0.0000       4.280798       116.4864 
 603   0.0000       4.293478       116.8315 
 604   0.0000       4.302773       117.0844 
 605   0.0000       4.313736       117.3827 
 606   0.0000       4.317467       117.4843 
 607   0.0000       4.325881       117.7132 
 608   0.0000       4.332545       117.8945 
 609   0.0000       4.337512       118.0297 
 610   0.0000       4.342277       118.1594 
 611   0.0000       4.355701       118.5247 
 612   0.0000       4.367716       118.8516 
 613   0.0000       4.375127       119.0532 
 614   0.0000       4.380714       119.2053 
 615   0.0000       4.394916       119.5917 
 616   0.0000       4.405179       119.8710 
 617   0.0000       4.413301       120.0920 
 618   0.0000       4.417077       120.1948 
 619   0.0000       4.423044       120.3571 
 620   0.0000       4.425649       120.4280 
 621   0.0000       4.435043       120.6837 
 622   0.0000       4.444173       120.9321 
 623   0.0000       4.449898       121.0879 
 624   0.0000       4.459115       121.3387 
 625   0.0000       4.467283       121.5610 
 626   0.0000       4.473146       121.7205 
 627   0.0000       4.481458       121.9467 
 628   0.0000       4.498873       122.4206 
 629   0.0000       4.503557       122.5480 
 630   0.0000       4.519123       122.9716 
 631   0.0000       4.524519       123.1184 
 632   0.0000       4.528252       123.2200 
 633   0.0000       4.535548       123.4185 
 634   0.0000       4.543982       123.6480 
 635   0.0000       4.551957       123.8651 
 636   0.0000       4.561670       124.1293 
 637   0.0000       4.567195       124.2797 
 638   0.0000       4.569150       124.3329 
 639   0.0000       4.583290       124.7177 
 640   0.0000       4.596309       125.0719 
 641   0.0000       4.598808       125.1399 
 642   0.0000       4.608855       125.4133 
 643   0.0000       4.620336       125.7257 
 644   0.0000       4.631293       126.0239 
 645   0.0000       4.639052       126.2350 
 646   0.0000       4.641001       126.2881 
 647   0.0000       4.646389       126.4347 
 648   0.0000       4.655651       126.6867 
 649   0.0000       4.661089       126.8347 
 650   0.0000       4.669165       127.0544 
 651   0.0000       4.676396       127.2512 
 652   0.0000       4.684845       127.4811 
 653   0.0000       4.692941       127.7014 
 654   0.0000       4.701474       127.9336 
 655   0.0000       4.704691       128.0211 
 656   0.0000       4.715414       128.3129 
 657   0.0000       4.729537       128.6972 
 658   0.0000       4.748552       129.2147 
 659   0.0000       4.754202       129.3684 
 660   0.0000       4.761943       129.5791 
 661   0.0000       4.775582       129.9502 
 662   0.0000       4.790010       130.3428 
 663   0.0000       4.814437       131.0075 
 664   0.0000       4.820244       131.1655 
 665   0.0000       4.830521       131.4451 
 666   0.0000       4.857899       132.1901 
 667   0.0000       4.863213       132.3348 
 668   0.0000       4.894858       133.1958 
 669   0.0000       4.896648       133.2446 
 670   0.0000       4.906549       133.5140 
 671   0.0000       4.915814       133.7661 
 672   0.0000       4.932221       134.2126 
 673   0.0000       4.960049       134.9698 
 674   0.0000       4.962375       135.0331 
 675   0.0000       4.994943       135.9193 
 676   0.0000       5.014171       136.4425 
 677   0.0000       5.016651       136.5100 
 678   0.0000       5.033207       136.9605 
 679   0.0000       5.047285       137.3436 
 680   0.0000       5.051735       137.4647 
 681   0.0000       5.056291       137.5887 
 682   0.0000       5.076870       138.1487 
 683   0.0000       5.087907       138.4490 
 684   0.0000       5.099221       138.7569 
 685   0.0000       5.117423       139.2522 
 686   0.0000       5.119001       139.2951 
 687   0.0000       5.135239       139.7370 
 688   0.0000       5.149621       140.1283 
 689   0.0000       5.164186       140.5247 
 690   0.0000       5.170447       140.6950 
 691   0.0000       5.180970       140.9814 
 692   0.0000       5.192911       141.3063 
 693   0.0000       5.199788       141.4934 
 694   0.0000       5.206475       141.6754 
 695   0.0000       5.228646       142.2787 
 696   0.0000       5.231876       142.3666 
 697   0.0000       5.236494       142.4922 
 698   0.0000       5.250535       142.8743 
 699   0.0000       5.265503       143.2816 
 700   0.0000       5.271986       143.4580 
 701   0.0000       5.283742       143.7779 
 702   0.0000       5.287964       143.8928 
 703   0.0000       5.298625       144.1829 
 704   0.0000       5.327180       144.9599 
 705   0.0000       5.330947       145.0625 
 706   0.0000       5.338254       145.2613 
 707   0.0000       5.351574       145.6237 
 708   0.0000       5.369222       146.1040 
 709   0.0000       5.386706       146.5797 
 710   0.0000       5.390461       146.6819 
 711   0.0000       5.395212       146.8112 
 712   0.0000       5.437557       147.9634 
 713   0.0000       5.467916       148.7896 
 714   0.0000       5.473265       148.9351 
 715   0.0000       5.488935       149.3615 
 716   0.0000       5.495414       149.5378 
 717   0.0000       5.502491       149.7304 
 718   0.0000       5.510522       149.9489 
 719   0.0000       5.525865       150.3664 
 720   0.0000       5.538114       150.6998 
 721   0.0000       5.552816       151.0998 
 722   0.0000       5.559538       151.2827 
 723   0.0000       5.566632       151.4758 
 724   0.0000       5.579821       151.8346 
 725   0.0000       5.595371       152.2578 
 726   0.0000       5.622294       152.9904 
 727   0.0000       5.629564       153.1882 
 728   0.0000       5.636700       153.3824 
 729   0.0000       5.650248       153.7511 
 730   0.0000       5.661735       154.0636 
 731   0.0000       5.675357       154.4343 
 732   0.0000       5.680919       154.5857 
 733   0.0000       5.687322       154.7599 
 734   0.0000       5.704661       155.2317 
 735   0.0000       5.711469       155.4170 
 736   0.0000       5.720885       155.6732 
 737   0.0000       5.740157       156.1976 
 738   0.0000       5.747945       156.4095 
 739   0.0000       5.754007       156.5745 
 740   0.0000       5.759459       156.7229 
 741   0.0000       5.773050       157.0927 
 742   0.0000       5.796484       157.7304 
 743   0.0000       5.813081       158.1820 
 744   0.0000       5.822524       158.4389 
 745   0.0000       5.854366       159.3054 
 746   0.0000       5.858447       159.4164 
 747   0.0000       5.870953       159.7567 
 748   0.0000       5.888610       160.2372 
 749   0.0000       5.894737       160.4040 
 750   0.0000       5.940871       161.6593 
 751   0.0000       5.963502       162.2751 
 752   0.0000       5.973885       162.5577 
 753   0.0000       5.998442       163.2259 
 754   0.0000       5.998960       163.2400 
 755   0.0000       6.019069       163.7872 
 756   0.0000       6.041321       164.3927 
 757   0.0000       6.052539       164.6980 
 758   0.0000       6.057852       164.8425 
 759   0.0000       6.079851       165.4411 
 760   0.0000       6.099687       165.9809 
 761   0.0000       6.169572       167.8826 
 762   0.0000       6.232102       169.5841 
 763   0.0000       6.235141       169.6668 
 764   0.0000       6.294452       171.2807 
 765   0.0000       6.301264       171.4661 
 766   0.0000       6.334029       172.3577 
 767   0.0000       6.349946       172.7908 
 768   0.0000       6.362031       173.1197 
 769   0.0000       6.390782       173.9020 
 770   0.0000       6.395892       174.0411 
 771   0.0000       6.401099       174.1828 
 772   0.0000       6.414466       174.5465 
 773   0.0000       6.450307       175.5218 
 774   0.0000       6.457141       175.7077 
 775   0.0000       6.499032       176.8476 
 776   0.0000       6.509200       177.1243 
 777   0.0000       6.535867       177.8500 
 778   0.0000       6.556719       178.4174 
 779   0.0000       6.619927       180.1374 
 780   0.0000       6.644154       180.7966 
 781   0.0000       6.686675       181.9537 
 782   0.0000       6.731900       183.1843 
 783   0.0000       6.772084       184.2778 
 784   0.0000       6.813094       185.3937 
 785   0.0000       6.861266       186.7045 
 786   0.0000       6.910423       188.0422 
 787   0.0000       6.921684       188.3486 
 788   0.0000       6.967274       189.5892 
 789   0.0000       6.982788       190.0113 
 790   0.0000       7.054512       191.9630 
 791   0.0000       7.070760       192.4052 
 792   0.0000       7.083710       192.7575 
 793   0.0000       7.138454       194.2472 
 794   0.0000       7.201927       195.9744 
 795   0.0000       7.223300       196.5560 
 796   0.0000       7.261287       197.5897 
 797   0.0000       7.283074       198.1825 
 798   0.0000       7.338704       199.6963 
 799   0.0000       7.347692       199.9409 
 800   0.0000       7.393223       201.1798 
 801   0.0000       7.509765       204.3511 
 802   0.0000       7.534095       205.0131 
 803   0.0000       7.587265       206.4600 
 804   0.0000       7.588997       206.5071 
 805   0.0000       7.765627       211.3135 
 806   0.0000       7.824517       212.9159 
 807   0.0000       7.935350       215.9319 
 808   0.0000       8.041859       218.8301 
 809   0.0000       9.480296       257.9720 
 810   0.0000       9.702742       264.0250 
 811   0.0000      10.794918       293.7447 
 812   0.0000      11.188434       304.4528 
 813   0.0000      11.959510       325.4348 
 814   0.0000      12.565779       341.9322 
 815   0.0000      12.931932       351.8957 
 816   0.0000      13.013173       354.1064 
 817   0.0000      13.149573       357.8181 
 818   0.0000      13.304100       362.0230 
 819   0.0000      13.443629       365.8197 
 820   0.0000      13.502638       367.4255 
 821   0.0000      13.821102       376.0913 
 822   0.0000      13.966624       380.0512 
 823   0.0000      14.047928       382.2636 
 824   0.0000      14.203034       386.4842 
 825   0.0000      14.525460       395.2578 
 826   0.0000      14.744209       401.2103 
 827   0.0000      15.988182       435.0606 

                    ********************************
                    * MULLIKEN POPULATION ANALYSIS *
                    ********************************

-----------------------
MULLIKEN ATOMIC CHARGES
-----------------------
   0 C :   -0.304666
   1 C :   -0.000876
   2 O :   -0.312768
   3 C :    0.395329
   4 O :   -0.372231
   5 C :   -0.177235
   6 C :    0.132424
   7 C :   -0.332335
   8 N :   -0.136747
   9 C :    0.208913
  10 S :   -0.443393
  11 N :   -0.231562
  12 C :    0.090384
  13 C :    0.036433
  14 C :   -0.205968
  15 C :   -0.134275
  16 C :   -0.280525
  17 C :    0.321094
  18 O :   -0.359118
  19 C :   -0.282525
  20 H :    0.122153
  21 H :    0.111023
  22 H :    0.103181
  23 H :    0.129687
  24 H :    0.089841
  25 H :    0.119572
  26 H :    0.138758
  27 H :    0.122548
  28 H :    0.195219
  29 H :    0.203502
  30 H :    0.169263
  31 H :    0.169525
  32 H :    0.163127
  33 H :    0.131631
  34 H :    0.240949
  35 H :    0.179669
Sum of atomic charges:   -0.0000000

--------------------------------
MULLIKEN REDUCED ORBITAL CHARGES
--------------------------------
  0 C s       :     3.260959  s :     3.260959
      pz      :     0.929952  p :     2.965188
      px      :     1.004980
      py      :     1.030256
      dz2     :     0.014674  d :     0.074015
      dxz     :     0.010333
      dyz     :     0.024872
      dx2y2   :     0.019729
      dxy     :     0.004407
      f0      :     0.000628  f :     0.004503
      f+1     :     0.001211
      f-1     :     0.000542
      f+2     :     0.000993
      f-2     :     0.000255
      f+3     :     0.000827
      f-3     :     0.000046
  1 C s       :     3.174914  s :     3.174914
      pz      :     0.974348  p :     2.655437
      px      :     0.679228
      py      :     1.001861
      dz2     :     0.020231  d :     0.158983
      dxz     :     0.040802
      dyz     :     0.031855
      dx2y2   :     0.036315
      dxy     :     0.029780
      f0      :     0.001956  f :     0.011543
      f+1     :     0.001856
      f-1     :     0.000703
      f+2     :     0.002009
      f-2     :     0.000979
      f+3     :     0.002138
      f-3     :     0.001901
  2 O s       :     3.730360  s :     3.730360
      pz      :     1.782843  p :     4.545977
      px      :     1.180839
      py      :     1.582295
      dz2     :     0.004089  d :     0.034132
      dxz     :     0.004876
      dyz     :     0.003502
      dx2y2   :     0.005444
      dxy     :     0.016221
      f0      :     0.000255  f :     0.002299
      f+1     :     0.000520
      f-1     :     0.000165
      f+2     :     0.000133
      f-2     :     0.000178
[...]
 15 C s       :     2.705334  s :     2.705334
      pz      :     0.896924  p :     2.793630
      px      :     0.923343
      py      :     0.973363
      dz2     :     0.093565  d :     0.416318
      dxz     :     0.065024
      dyz     :     0.062415
      dx2y2   :     0.105497
      dxy     :     0.089817
      f0      :     0.003140  f :     0.041116
      f+1     :     0.005028
      f-1     :     0.006377
      f+2     :     0.006482
      f-2     :     0.007015
      f+3     :     0.006279
      f-3     :     0.006794
 16 C s       :     2.701573  s :     2.701573
      pz      :     0.939845  p :     2.868910
      px      :     0.957859
      py      :     0.971206
      dz2     :     0.048067  d :     0.391483
      dxz     :     0.053122
      dyz     :     0.092022
      dx2y2   :     0.091028
      dxy     :     0.107244
      f0      :     0.004985  f :     0.040414
      f+1     :     0.004519
      f-1     :     0.003333
      f+2     :     0.005785
      f-2     :     0.006265
      f+3     :     0.007893
      f-3     :     0.007632
 17 C s       :     2.701283  s :     2.701283
      pz      :     0.830859  p :     2.684214
      px      :     0.818169
      py      :     1.035186
      dz2     :     0.130049  d :     0.709063
      dxz     :     0.108975
      dyz     :     0.142726
      dx2y2   :     0.163669
      dxy     :     0.163645
      f0      :     0.010450  f :     0.099356
      f+1     :     0.015893
      f-1     :     0.009627
      f+2     :     0.014757
      f-2     :     0.016549
      f+3     :     0.014351
      f-3     :     0.017729
 18 O s       :     3.177102  s :     3.177102
      pz      :     1.443616  p :     4.346956
      px      :     1.430918
      py      :     1.472422
      dz2     :     0.009436  d :     0.075625
      dxz     :     0.017893
      dyz     :     0.016777
      dx2y2   :     0.017232
      dxy     :     0.014287
      f0      :     0.000602  f :     0.005075
      f+1     :     0.000807
      f-1     :     0.000321
      f+2     :     0.000873
      f-2     :     0.000921
      f+3     :     0.000681
      f-3     :     0.000869
 19 C s       :     2.696050  s :     2.696050
      pz      :     0.932386  p :     2.846188
      px      :     0.943697
      py      :     0.970106
      dz2     :     0.075501  d :     0.388372
      dxz     :     0.062476
      dyz     :     0.065422
      dx2y2   :     0.092528
      dxy     :     0.092445
      f0      :     0.003252  f :     0.040697
      f+1     :     0.005088
      f-1     :     0.005797
      f+2     :     0.006586
      f-2     :     0.007478
      f+3     :     0.006374
      f-3     :     0.006122
 20 H s       :     0.839665  s :     0.839665
      pz      :     0.051384  p :     0.150813
      px      :     0.039288
      py      :     0.060141
      dz2     :     0.006450  d :     0.027758
      dxz     :     0.003372
      dyz     :     0.007013
      dx2y2   :     0.005740
      dxy     :     0.005183
 21 H s       :     0.847140  s :     0.847140
      pz      :     0.038930  p :     0.152014
      px      :     0.071937
      py      :     0.041146
      dz2     :     0.002301  d :     0.027492
      dxz     :     0.008829
      dyz     :     0.000326
      dx2y2   :     0.006816
      dxy     :     0.009220
 22 H s       :     0.848749  s :     0.848749
      pz      :     0.048266  p :     0.158509
      px      :     0.045428
      py      :     0.064814
      dz2     :     0.004902  d :     0.028137
      dxz     :     0.002610
      dyz     :     0.007331
      dx2y2   :     0.007280
      dxy     :     0.006014
 23 H s       :     0.848965  s :     0.848965
      pz      :     0.050871  p :     0.144543
      px      :     0.035254
      py      :     0.058418
      dz2     :     0.005610  d :     0.027113
      dxz     :     0.003600
      dyz     :     0.006421
      dx2y2   :     0.005652
      dxy     :     0.005829
 24 H s       :     0.859398  s :     0.859398
      pz      :     0.054915  p :     0.152900
      px      :     0.027123
      py      :     0.070862
      dz2     :     0.006680  d :     0.027501
      dxz     :     0.002177
      dyz     :     0.008055
      dx2y2   :     0.005786
      dxy     :     0.004803
 25 H s       :     0.834733  s :     0.834733
      pz      :     0.051400  p :     0.149012
      px      :     0.041307
      py      :     0.056306
      dz2     :     0.007094  d :     0.027628
      dxz     :     0.004064
      dyz     :     0.006529
      dx2y2   :     0.005237
      dxy     :     0.004704
 26 H s       :     0.831314  s :     0.831314
      pz      :     0.039778  p :     0.150080
      px      :     0.045229
      py      :     0.065073
      dz2     :     0.003641  d :     0.027637
      dxz     :     0.002069
      dyz     :     0.007320
      dx2y2   :     0.008105
      dxy     :     0.006503
 27 H s       :     0.837352  s :     0.837352
      pz      :     0.037384  p :     0.152666
      px      :     0.074285
      py      :     0.040997
      dz2     :     0.002422  d :     0.027689
      dxz     :     0.008591
      dyz     :     0.000231
      dx2y2   :     0.006845
      dxy     :     0.009601
 28 H s       :     0.743252  s :     0.743252
      pz      :     0.054607  p :     0.253844
      px      :     0.094195
      py      :     0.105043
      dz2     :     0.007536  d :     0.061707
      dxz     :     0.004373
      dyz     :     0.014823
      dx2y2   :     0.017483
      dxy     :     0.017492
 29 H s       :     0.747361  s :     0.747361
      pz      :     0.118690  p :     0.254665
      px      :     0.090525
      py      :     0.045450
      dz2     :     0.022303  d :     0.061466
      dxz     :     0.018827
      dyz     :     0.013293
      dx2y2   :     0.004136
      dxy     :     0.002907
 30 H s       :     0.823059  s :     0.823059
      pz      :     0.036867  p :     0.149935
      px      :     0.077892
      py      :     0.035176
      dz2     :     0.002718  d :     0.028544
      dxz     :     0.008468
      dyz     :     0.001182
      dx2y2   :     0.008389
      dxy     :     0.007786
 31 H s       :     0.836949  s :     0.836949
      pz      :     0.058808  p :     0.157754
      px      :     0.064712
      py      :     0.034234
      dz2     :     0.005874  d :     0.027425
      dxz     :     0.007147
      dyz     :     0.003723
      dx2y2   :     0.005183
      dxy     :     0.005498
 32 H s       :     0.841578  s :     0.841578
      pz      :     0.036749  p :     0.150846
      px      :     0.040154
      py      :     0.073943
      dz2     :     0.002637  d :     0.026432
      dxz     :     0.000914
      dyz     :     0.007070
      dx2y2   :     0.007923
      dxy     :     0.007888
 33 H s       :     0.848586  s :     0.848586
      pz      :     0.054491  p :     0.158926
      px      :     0.047684
      py      :     0.056751
      dz2     :     0.005444  d :     0.027748
      dxz     :     0.003975
      dyz     :     0.006302
      dx2y2   :     0.006246
      dxy     :     0.005781
 34 H s       :     0.706490  s :     0.706490
      pz      :     0.104275  p :     0.347708
      px      :     0.085793
      py      :     0.157640
      dz2     :     0.019536  d :     0.099554
      dxz     :     0.008795
      dyz     :     0.025437
      dx2y2   :     0.022888
      dxy     :     0.022899
 35 H s       :     0.837547  s :     0.837547
      pz      :     0.041178  p :     0.160331
      px      :     0.043190
      py      :     0.075963
      dz2     :     0.002631  d :     0.028155
      dxz     :     0.001120
      dyz     :     0.007727
      dx2y2   :     0.008164
      dxy     :     0.008513


                      *****************************
                      * MAYER POPULATION ANALYSIS *
                      *****************************

  NA   - Mulliken gross atomic population
  ZA   - Total nuclear charge
  QA   - Mulliken gross atomic charge
  VA   - Mayer's total valence
  BVA  - Mayer's bonded valence
  FA   - Mayer's free valence

  ATOM       NA         ZA         QA         VA         BVA        FA
  0 C      6.3047     6.0000    -0.3047     3.8483     3.8483     0.0000
  1 C      6.0009     6.0000    -0.0009     3.8938     3.8938    -0.0000
  2 O      8.3128     8.0000    -0.3128     2.0344     2.0344    -0.0000
  3 C      5.6047     6.0000     0.3953     4.2059     4.2059    -0.0000
  4 O      8.3722     8.0000    -0.3722     2.1323     2.1323    -0.0000
  5 C      6.1772     6.0000    -0.1772     3.5953     3.5953     0.0000
  6 C      5.8676     6.0000     0.1324     3.7783     3.7783     0.0000
  7 C      6.3323     6.0000    -0.3323     3.8794     3.8794    -0.0000
  8 N      7.1367     7.0000    -0.1367     3.2551     3.2551    -0.0000
  9 C      5.7911     6.0000     0.2089     4.1419     4.1419    -0.0000
 10 S     16.4434    16.0000    -0.4434     1.7463     1.7463     0.0000
 11 N      7.2316     7.0000    -0.2316     3.2497     3.2497     0.0000
 12 C      5.9096     6.0000     0.0904     3.9345     3.9345    -0.0000
 13 C      5.9636     6.0000     0.0364     3.7128     3.7128     0.0000
 14 C      6.2060     6.0000    -0.2060     3.8832     3.8832     0.0000
 15 C      6.1343     6.0000    -0.1343     3.8127     3.8127     0.0000
 16 C      6.2805     6.0000    -0.2805     3.7896     3.7896     0.0000
 17 C      5.6789     6.0000     0.3211     3.8604     3.8604     0.0000
 18 O      8.3591     8.0000    -0.3591     2.1157     2.1157     0.0000
 19 C      6.2825     6.0000    -0.2825     3.8170     3.8170    -0.0000
 20 H      0.8778     1.0000     0.1222     0.9782     0.9782    -0.0000
 21 H      0.8890     1.0000     0.1110     0.9820     0.9820     0.0000
 22 H      0.8968     1.0000     0.1032     0.9756     0.9756     0.0000
 23 H      0.8703     1.0000     0.1297     0.9741     0.9741     0.0000
 24 H      0.9102     1.0000     0.0898     0.9643     0.9643    -0.0000
 25 H      0.8804     1.0000     0.1196     0.9814     0.9814    -0.0000
 26 H      0.8612     1.0000     0.1388     0.9788     0.9788    -0.0000
 27 H      0.8775     1.0000     0.1225     0.9674     0.9674     0.0000
 28 H      0.8048     1.0000     0.1952     1.0229     1.0229     0.0000
 29 H      0.7965     1.0000     0.2035     1.0123     1.0123     0.0000
 30 H      0.8307     1.0000     0.1693     0.9877     0.9877    -0.0000
 31 H      0.8305     1.0000     0.1695     0.9885     0.9885    -0.0000
 32 H      0.8369     1.0000     0.1631     0.9770     0.9770     0.0000
 33 H      0.8684     1.0000     0.1316     0.9911     0.9911    -0.0000
 34 H      0.7591     1.0000     0.2409     1.0105     1.0105     0.0000
 35 H      0.8203     1.0000     0.1797     0.9863     0.9863    -0.0000

  Mayer bond orders larger than 0.100000
B(  0-C ,  1-C ) :   0.9591 B(  0-C , 20-H ) :   0.9701 B(  0-C , 21-H ) :   0.9767 
B(  0-C , 22-H ) :   0.9718 B(  1-C ,  2-O ) :   0.9139 B(  1-C , 23-H ) :   0.9858 
B(  1-C , 24-H ) :   0.9764 B(  2-O ,  3-C ) :   1.1306 B(  3-C ,  4-O ) :   2.0863 
B(  3-C ,  5-C ) :   0.9196 B(  5-C ,  6-C ) :   1.7111 B(  5-C , 12-C ) :   0.9496 
B(  6-C ,  7-C ) :   0.9402 B(  6-C ,  8-N ) :   1.1016 B(  7-C , 25-H ) :   0.9831 
B(  7-C , 26-H ) :   0.9710 B(  7-C , 27-H ) :   0.9670 B(  8-N ,  9-C ) :   1.2004 
B(  8-N , 28-H ) :   0.9538 B(  9-C , 10-S ) :   1.6051 B(  9-C , 11-N ) :   1.2861 
B( 11-N , 12-C ) :   0.9844 B( 11-N , 29-H ) :   0.9466 B( 12-C , 13-C ) :   0.9533 
B( 12-C , 30-H ) :   0.9955 B( 13-C , 14-C ) :   1.3863 B( 13-C , 19-C ) :   1.3344 
B( 14-C , 15-C ) :   1.4041 B( 14-C , 31-H ) :   0.9610 B( 15-C , 16-C ) :   1.3554 
B( 15-C , 32-H ) :   0.9702 B( 16-C , 17-C ) :   1.3330 B( 16-C , 33-H ) :   0.9852 
B( 17-C , 18-O ) :   1.1077 B( 17-C , 19-C ) :   1.3667 B( 18-O , 34-H ) :   0.9797 
B( 19-C , 35-H ) :   0.9566 

-------
TIMINGS
-------

Total SCF time: 0 days 2 hours 4 min 8 sec 

Total time                  ....    7448.605 sec
Sum of individual times     ....    7441.824 sec  ( 99.9%)

Fock matrix formation       ....    7418.024 sec  ( 99.6%)
Diagonalization             ....       1.679 sec  (  0.0%)
Density matrix formation    ....       0.194 sec  (  0.0%)
Population analysis         ....       0.303 sec  (  0.0%)
Initial guess               ....      11.374 sec  (  0.2%)
Orbital Transformation      ....       0.000 sec  (  0.0%)
Orbital Orthonormalization  ....       0.000 sec  (  0.0%)
DIIS solution               ....       6.740 sec  (  0.1%)
SOSCF solution              ....       1.886 sec  (  0.0%)

Maximum memory used throughout the entire SCF-calculation: 765.4 MB

------------------------------------------------------------------------------
                                ORCA  MP2 
------------------------------------------------------------------------------

Freezing NCore=48 chemical core electrons

-------------
RI-MP2 ENERGY
-------------
Dimension of the basis                    ...  828
Memory devoted to MP2                     ...  256 MB   
Data format for buffers                   ... DOUBLE
Compression type for matrix containers    ... UNCOMPRESSED
Overall scaling of the MP2 energy         ...   1.000e+00
Calculating two index integrals           ... done (    0.036 sec)
Cholesky decomposition of V**-1           ... done (    0.502 sec)

-----------------
RI-TRANSFORMATION (AUX index driven)
-----------------

Dimension of the orbital-basis         ... 828
Dimension of the aux-basis             ... 2141
Transformation of internal/external MOs...   24-  76 to   77- 827
Number Format for Storage              ... Double (8 Byte)
Integral mode                          ... Direct

First Phase: integral generation and transformation of MO indices
  Aux angular momentum 0               ... done (    4.423 sec)
  Aux angular momentum 1               ... done (    6.438 sec)
  Aux angular momentum 2               ... done (    7.688 sec)
  Aux angular momentum 3               ... done (    6.134 sec)
  Aux angular momentum 4               ... done (    2.172 sec)
Closing buffer VIA ( 0.63 GB; CompressionRatio= 1.00)
  Phase 1 completed in    27.115 sec
Second Phase: sorting and transformation of aux index

IA-Transformation
Memory available                       ... 156 MB 
Max. # MO pairs treated in a batch     ... 11    
# of internal orbitals                 ... 53
# batches for internal orbitals        ... 5
Closing buffer IAV ( 0.63 GB; CompressionRatio= 1.00)
(ia|v) transformation done in    22.436 sec

  Phase 2 completed in    22.447 sec
RI-Integral transformation completed in    49.569 sec
Opening buffers                              ... done

Starting loop over batches of integrals:

Operator 0  - window                       ... ( 24- 76)x( 77-827)
Operator 0  - Memory available             ...   256 MB
Operator 0  - Memory needed per MO         ...  12.3 MB
Operator 0  - Number of orbitals per batch ... 13
Operator 0  - Number of batches            ... 5

OPERATOR  0   PASS   0:  MOs    24 ...   36
  Reading integrals       ... ok
  Internal MO  26
  Internal MO  29
  Internal MO  32
  Internal MO  35
OPERATOR  0   PASS   1:  MOs    37 ...   49
  Reading integrals       ... ok
  Internal MO  38
  Internal MO  41
  Internal MO  44
  Internal MO  47
OPERATOR  0   PASS   2:  MOs    50 ...   62
  Reading integrals       ... ok
  Internal MO  50
  Internal MO  53
  Internal MO  56
  Internal MO  59
  Internal MO  62
OPERATOR  0   PASS   3:  MOs    63 ...   75
  Reading integrals       ... ok
  Internal MO  65
  Internal MO  68
  Internal MO  71
  Internal MO  74
OPERATOR  0   PASS   4:  MOs    76 ...   76
  Reading integrals       ... ok
Time spent in pair loops =   100.898 sec
Deleting buffer (Ka|jb)[aa] ...done

-----------------------------------------------
 RI-MP2 CORRELATION ENERGY:     -3.544453708 Eh
-----------------------------------------------


-------
TIMINGS
-------

Total time                :  151.102 sec
Integral trafo            :   49.580 sec ( 32.8%)
I/O of integrals          :    1.984 sec (  1.3%)
K(i,j) Operators          :   78.523 sec ( 52.0%)
T(i,j) pair energies      :    2.980 sec (  2.0%)
V-calculation             :    0.036 sec (  0.0%)
V**(-1/2)                 :    0.502 sec (  0.3%)
Gamma(ia|P)               :    0.000 sec (  0.0%)
Gamma-Trafo               :    0.000 sec (  0.0%)
D(virtual)                :    0.000 sec (  0.0%)
D(internal)               :    0.000 sec (  0.0%)
W(virtual)                :    0.000 sec (  0.0%)
W(internal)               :    0.000 sec (  0.0%)
L(virtual)                :    0.000 sec (  0.0%)
L(internal)               :    0.000 sec (  0.0%)
G(D)                      :    0.000 sec (  0.0%)
G(Z)                      :    0.000 sec (  0.0%)
Z-Vector Solution         :    0.000 sec (  0.0%)
3-Index Derivative        :    0.000 sec (  0.0%)
2-Index Derivative        :    0.000 sec (  0.0%)
Separable Gradient        :    0.000 sec (  0.0%)


---------------------------------------
MP2 TOTAL ENERGY:    -1274.320428416 Eh
---------------------------------------

Maximum memory used throughout the entire MP2-calculation: 306.4 MB

-------------------------   --------------------
FINAL SINGLE POINT ENERGY     -1274.320428416431
-------------------------   --------------------


                            ***************************************
                            *     ORCA property calculations      *
                            ***************************************


  WARNING: The energy has been calculated at the MP2 level but the densities
           used in the property calculations are still SCF densities
           MP2 response densities have not been calculated 
           use %mp2 Density relaxed end
           or  %mp2 Density unrelaxed end

                                    ---------------------
                                    Active property flags
                                    ---------------------
   (+) Dipole Moment


------------------------------------------------------------------------------
                       ORCA ELECTRIC PROPERTIES CALCULATION
------------------------------------------------------------------------------

Dipole Moment Calculation                       ... on
Quadrupole Moment Calculation                   ... off
Polarizability Calculation                      ... off
GBWName                                         ... CONFS/Conf237.orca.gbw
Electron density file                           ... CONFS/Conf237.orca.scfp
The origin for moment calculation is the CENTER OF MASS  = (32.732730, 31.317966 35.249094)

-------------
DIPOLE MOMENT
-------------
                                X             Y             Z
Electronic contribution:      9.17601       6.24577       6.30549
Nuclear contribution   :    -10.65917      -7.36586      -7.18776
                        -----------------------------------------
Total Dipole Moment    :     -1.48316      -1.12009      -0.88227
                        -----------------------------------------
Magnitude (a.u.)       :      2.05736
Magnitude (Debye)      :      5.22940



--------------------
Rotational spectrum 
--------------------
 
Rotational constants in cm-1:     0.012169     0.009496     0.006847 
Rotational constants in MHz :   364.811097   284.684055   205.264717 

 Dipole components along the rotational axes: 
x,y,z [a.u.] :    -1.051346    -1.146175     1.346738 
x,y,z [Debye]:    -2.672310    -2.913344     3.423136 

 

Timings for individual modules:

Sum of individual times         ...     7604.378 sec (= 126.740 min)
GTO integral calculation        ...        3.952 sec (=   0.066 min)   0.1 %
SCF iterations                  ...     7448.758 sec (= 124.146 min)  98.0 %
MP2 module                      ...      151.668 sec (=   2.528 min)   2.0 %
                             ****ORCA TERMINATED NORMALLY****
TOTAL RUN TIME: 0 days 2 hours 6 minutes 45 seconds 907 msec
