
                                 *****************
                                 * O   R   C   A *
                                 *****************

           --- An Ab Initio, DFT and Semiempirical electronic structure package ---

                  #######################################################
                  #                        -***-                        #
                  #          Department of theory and spectroscopy      #
                  #               Directorship: Frank Neese             #
                  #        Max Planck Institute fuer Kohlenforschung    #
                  #                Kaiser Wilhelm Platz 1               #
                  #                 D-45470 Muelheim/Ruhr               #
                  #                      Germany                        #
                  #                                                     #
                  #                  All rights reserved                #
                  #                        -***-                        #
                  #######################################################


                         Program Version 4.2.0 -  RELEASE  -


 With contributions from (in alphabetic order):
   Daniel Aravena         : Magnetic Suceptibility
   Michael Atanasov       : Ab Initio Ligand Field Theory (pilot matlab implementation)
   Alexander A. Auer      : GIAO ZORA, VPT2
   Ute Becker             : Parallelization
   Giovanni Bistoni       : ED, misc. LED, open-shell LED, HFLED
   Martin Brehm           : Molecular dynamics
   Dmytro Bykov           : SCF Hessian
   Vijay G. Chilkuri      : MRCI spin determinant printing, contributions to CSF-ICE
   Dipayan Datta          : RHF DLPNO-CCSD density
   Achintya Kumar Dutta   : EOM-CC, STEOM-CC
   Dmitry Ganyushin       : Spin-Orbit,Spin-Spin,Magnetic field MRCI
   Miquel Garcia          : C-PCM Hessian, Gaussian charge scheme
   Yang Guo               : DLPNO-NEVPT2, CIM, IAO-localization
   Andreas Hansen         : Spin unrestricted coupled pair/coupled cluster methods
   Benjamin Helmich-Paris : CASSCF linear response (MC-RPA)
   Lee Huntington         : MR-EOM, pCC
   Robert Izsak           : Overlap fitted RIJCOSX, COSX-SCS-MP3, EOM
   Christian Kollmar      : KDIIS, OOCD, Brueckner-CCSD(T), CCSD density
   Simone Kossmann        : Meta GGA functionals, TD-DFT gradient, OOMP2, MP2 Hessian
   Martin Krupicka        : AUTO-CI
   Lucas Lang             : DCDCAS
   Dagmar Lenk            : GEPOL surface, SMD
   Dimitrios Liakos       : Extrapolation schemes; Compound Job, initial MDCI parallelization
   Dimitrios Manganas     : Further ROCIS development; embedding schemes
   Dimitrios Pantazis     : SARC Basis sets
   Taras Petrenko         : DFT Hessian,TD-DFT gradient, ASA, ECA, R-Raman, ABS, FL, XAS/XES, NRVS
   Peter Pinski           : DLPNO-MP2, DLPNO-MP2 Gradient
   Christoph Reimann      : Effective Core Potentials
   Marius Retegan         : Local ZFS, SOC
   Christoph Riplinger    : Optimizer, TS searches, QM/MM, DLPNO-CCSD(T), (RO)-DLPNO pert. Triples
   Tobias Risthaus        : Range-separated hybrids, TD-DFT gradient, RPA, STAB
   Michael Roemelt        : Original ROCIS implementation
   Masaaki Saitow         : Open-shell DLPNO-CCSD energy and density
   Barbara Sandhoefer     : DKH picture change effects
   Avijit Sen             : IP-ROCIS
   Kantharuban Sivalingam : CASSCF convergence, NEVPT2, FIC-MRCI
   Bernardo de Souza      : ESD, SOC TD-DFT
   Georgi Stoychev        : AutoAux, RI-MP2 NMR
   Willem Van den Heuvel  : Paramagnetic NMR
   Boris Wezisla          : Elementary symmetry handling
   Frank Wennmohs         : Technical directorship


 We gratefully acknowledge several colleagues who have allowed us to
 interface, adapt or use parts of their codes:
   Stefan Grimme, W. Hujo, H. Kruse,             : VdW corrections, initial TS optimization,
                  C. Bannwarth                     DFT functionals, gCP, sTDA/sTD-DF
   Ed Valeev, F. Pavosevic, A. Kumar             : LibInt (2-el integral package), F12 methods
   Garnet Chan, S. Sharma, J. Yang, R. Olivares  : DMRG
   Ulf Ekstrom                                   : XCFun DFT Library
   Mihaly Kallay                                 : mrcc  (arbitrary order and MRCC methods)
   Andreas Klamt, Michael Diedenhofen            : otool_cosmo (COSMO solvation model)
   Jiri Pittner, Ondrej Demel                    : Mk-CCSD
   Frank Weinhold                                : gennbo (NPA and NBO analysis)
   Christopher J. Cramer and Donald G. Truhlar   : smd solvation model
   Lars Goerigk                                  : TD-DFT with DH, B97 family of functionals
   V. Asgeirsson, H. Jonsson                     : NEB implementation
   FAccTs GmbH                                   : IRC, NEB, NEB-TS, Multilevel, MM, QM/MM, CI optimization
   S Lehtola, MJT Oliveira, MAL Marques          : LibXC Library


 Your calculation uses the libint2 library for the computation of 2-el integrals
 For citations please refer to: http://libint.valeyev.net

 Your ORCA version has been built with support for libXC version: 4.2.3
 For citations please refer to: https://tddft.org/programs/libxc/

 This ORCA versions uses:
   CBLAS   interface :  Fast vector & matrix operations
   LAPACKE interface :  Fast linear algebra routines
   SCALAPACK package :  Parallel linear algebra routines


----- Orbital basis set information -----
Your calculation utilizes the basis: cc-pVTZ 
       H, B-Ne : Obtained from the ccRepo (grant-hill.group.shef.ac.uk/ccrepo) Feb. 2017
                 T. H. Dunning, Jr., J. Chem. Phys. 90, 1007 (1989)
            He : Obtained from the ccRepo (grant-hill.group.shef.ac.uk/ccrepo) Feb. 2017
                 D. E. Woon, T. H. Dunning, Jr., J. Chem. Phys. 100, 2975 (1994)
  Li-Be, Na-Mg : Obtained from the ccRepo (grant-hill.group.shef.ac.uk/ccrepo) Feb. 2017
                 B. P. Prascher, D. E. Woon, K. A. Peterson, T. H. Dunning, Jr., A. K. Wilson, Theor. Chem. Acc. 128, 69 (2011)
         Al-Ar : Obtained from the ccRepo (grant-hill.group.shef.ac.uk/ccrepo) Feb. 2017
                 D. E. Woon, T. H. Dunning, Jr., J. Chem. Phys. 98, 1358 (1993)
            Ca : Obtained from the Peterson Research Group Website (tyr0.chem.wsu.edu/~kipeters) Feb. 2017
                 J. Koput, K. A. Peterson, J. Phys. Chem. 106, 9595 (2002)
         Sc-Zn : Obtained from the ccRepo (grant-hill.group.shef.ac.uk/ccrepo) Feb. 2017
                 N. B. Balabanov, K. A. Peterson, J. Chem. Phys. 123, 064107 (2005)
                 N. B. Balabanov, K. A. Peterson, J. Chem. Phys. 125, 074110 (2006)
         Ga-Kr : Obtained from the ccRepo (grant-hill.group.shef.ac.uk/ccrepo) Feb. 2017
                 A. K. Wilson, D. E. Woon, K. A. Peterson, T. H. Dunning, Jr., J. Chem. Phys. 110, 7667 (1999)
             Y : Obtained from the ccRepo (grant-hill.group.shef.ac.uk/ccrepo) Feb. 2017
                 K. A. Peterson, D. Figgen, M. Dolg, H. Stoll, J. Chem. Phys. 126, 124101 (2007)
        Ag, Au : Obtained from the Peterson Research Group Website (tyr0.chem.wsu.edu/~kipeters) Feb. 2017
                 K. A. Peterson, C. Puzzarini, Theor. Chem. Acc. 114, 283 (2005)

----- AuxC basis set information -----
Your calculation utilizes the auxiliary basis: cc-pVTZ/C 
  Obtained from the EMSL Basis Set Exchange (bse.pnl.gov) Feb. 2017
  H-He, B-F, Al-Ar, Ga-Kr : F. Weigend, A. Kohn, C. Hattig, J. Chem. Phys. 116, 3175 (2002)
             Li-Be, Na-Mg : C. Haettig, Phys. Chem. Chem. Phys. 7, 59 (2005)
                       Ne : C. Haettig, Phys. Chem. Chem. Phys. 7, 59 (2005)
                            F. Weigend, A. Kohn, C. Hattig, J. Chem. Phys. 116, 3175 (2002)
                    Sc-Zn : J. G. Hill, J. A. Platts, J. Chem. Phys. 128, 044104 (2008)

================================================================================
                                        WARNINGS
                       Please study these warnings very carefully!
================================================================================


WARNING: No MP2 level density has been requested!
         To caclulate MP2 level properties use
         %mp2 Density relaxed end
         or
         %mp2 Density unrelaxed end

WARNING: Post HF methods need fully converged wavefunctions
  ===> : Setting SCFConvForced true
         You can overwrite this default with %scf ConvForced false 


INFO   : the flag for use of LIBINT has been found!

================================================================================
                                       INPUT FILE
================================================================================
NAME = CONFS/Conf643.orca
|  1> ! ri-mp2 cc-pvtz cc-pvtz/c TightSCF  NoKeepInts
|  2> 
|  3> %scf
|  4>   MaxCore 4096
|  5> end
|  6> *xyz  0  1
|  7>     C       14.9709730   14.3968382   16.0069980
|  8>     C       16.1982529   14.2889624   16.9344052
|  9>     O       17.3203148   15.0212963   16.3911593
| 10>     C       17.2289980   16.3701717   16.1935225
| 11>     O       16.6461527   16.8193773   15.2231372
| 12>     C       17.6687620   17.1950179   17.3746331
| 13>     C       17.3861622   18.5196071   17.4776976
| 14>     C       16.5309108   19.3536780   16.5480157
| 15>     N       17.9505747   19.2769280   18.5091737
| 16>     C       18.9598290   18.8430391   19.3274796
| 17>     S       19.7124398   19.8500600   20.4020865
| 18>     N       19.3243407   17.5268190   19.1979761
| 19>     C       18.5696236   16.5225384   18.4265996
| 20>     C       17.8061187   15.6295510   19.3978340
| 21>     C       18.2053590   14.2941919   19.5964809
| 22>     C       17.5045004   13.4635648   20.4868905
| 23>     C       16.3999953   13.9735746   21.1903013
| 24>     C       16.0071320   15.3060047   21.0046191
| 25>     O       14.9420003   15.8019862   21.6825663
| 26>     C       16.7043859   16.1296097   20.1154696
| 27>     H       14.5510253   15.4102191   16.0190246
| 28>     H       14.1846394   13.7047003   16.3311823
| 29>     H       15.2431225   14.1467836   14.9737066
| 30>     H       15.9213903   14.6647709   17.9254633
| 31>     H       16.4784943   13.2331697   17.0406162
| 32>     H       15.5466299   18.8895744   16.4062650
| 33>     H       17.0008084   19.4309453   15.5590124
| 34>     H       16.3630597   20.3719237   16.9178681
| 35>     H       17.7055538   20.2497684   18.6033140
| 36>     H       20.0561325   17.2286255   19.8300670
| 37>     H       19.2992448   15.9012285   17.8879357
| 38>     H       19.0588191   13.8963240   19.0533150
| 39>     H       17.8198092   12.4315085   20.6324799
| 40>     H       15.8568956   13.3362669   21.8807306
| 41>     H       14.6360696   15.1134133   22.2922488
| 42>     H       16.3884797   17.1599614   19.9937248
| 43> *
| 44> 
| 45>                          ****END OF INPUT****
================================================================================

                       ****************************
                       * Single Point Calculation *
                       ****************************

---------------------------------
CARTESIAN COORDINATES (ANGSTROEM)
---------------------------------
  C     14.970973   14.396838   16.006998
  C     16.198253   14.288962   16.934405
  O     17.320315   15.021296   16.391159
  C     17.228998   16.370172   16.193523
  O     16.646153   16.819377   15.223137
  C     17.668762   17.195018   17.374633
  C     17.386162   18.519607   17.477698
  C     16.530911   19.353678   16.548016
  N     17.950575   19.276928   18.509174
  C     18.959829   18.843039   19.327480
  S     19.712440   19.850060   20.402086
  N     19.324341   17.526819   19.197976
  C     18.569624   16.522538   18.426600
  C     17.806119   15.629551   19.397834
  C     18.205359   14.294192   19.596481
  C     17.504500   13.463565   20.486891
  C     16.399995   13.973575   21.190301
  C     16.007132   15.306005   21.004619
  O     14.942000   15.801986   21.682566
  C     16.704386   16.129610   20.115470
  H     14.551025   15.410219   16.019025
  H     14.184639   13.704700   16.331182
  H     15.243122   14.146784   14.973707
  H     15.921390   14.664771   17.925463
  H     16.478494   13.233170   17.040616
  H     15.546630   18.889574   16.406265
  H     17.000808   19.430945   15.559012
  H     16.363060   20.371924   16.917868
  H     17.705554   20.249768   18.603314
  H     20.056132   17.228625   19.830067
  H     19.299245   15.901229   17.887936
  H     19.058819   13.896324   19.053315
  H     17.819809   12.431508   20.632480
  H     15.856896   13.336267   21.880731
  H     14.636070   15.113413   22.292249
  H     16.388480   17.159961   19.993725

----------------------------
CARTESIAN COORDINATES (A.U.)
----------------------------
  NO LB      ZA    FRAG     MASS         X           Y           Z
   0 C     6.0000    0    12.011   28.291039   27.206081   30.248842
   1 C     6.0000    0    12.011   30.610262   27.002226   32.001388
   2 O     8.0000    0    15.999   32.730652   28.386136   30.974802
   3 C     6.0000    0    12.011   32.558088   30.935141   30.601323
   4 O     8.0000    0    15.999   31.456670   31.784017   28.767560
   5 C     6.0000    0    12.011   33.389121   32.493875   32.833298
   6 C     6.0000    0    12.011   32.855085   34.996986   33.028062
   7 C     6.0000    0    12.011   31.238894   36.573151   31.271218
   8 N     7.0000    0    14.007   33.921670   36.428115   34.977269
   9 C     6.0000    0    12.011   35.828884   35.608183   36.523643
  10 S    16.0000    0    32.060   37.251113   37.511177   38.554356
  11 N     7.0000    0    14.007   36.517712   33.120888   36.278917
  12 C     6.0000    0    12.011   35.091503   31.223073   34.821227
  13 C     6.0000    0    12.011   33.648688   29.535571   36.656594
  14 C     6.0000    0    12.011   34.403143   27.012108   37.031982
  15 C     6.0000    0    12.011   33.078712   25.442450   38.714612
  16 C     6.0000    0    12.011   30.991500   26.406229   40.043866
  17 C     6.0000    0    12.011   30.249096   28.924157   39.692978
  18 O     8.0000    0    15.999   28.236288   29.861426   40.974112
  19 C     6.0000    0    12.011   31.566715   30.480545   38.012729
  20 H     1.0000    0     1.008   27.497453   29.121094   30.271569
  21 H     1.0000    0     1.008   26.805084   25.898130   30.861462
  22 H     1.0000    0     1.008   28.805327   26.733547   28.296205
  23 H     1.0000    0     1.008   30.087067   27.712401   33.874216
  24 H     1.0000    0     1.008   31.139841   25.007067   32.202098
  25 H     1.0000    0     1.008   29.378873   35.696122   31.003348
  26 H     1.0000    0     1.008   32.126872   36.719165   29.402272
  27 H     1.0000    0     1.008   30.921702   38.497357   31.970137
  28 H     1.0000    0     1.008   33.458648   38.266517   35.155169
  29 H     1.0000    0     1.008   37.900598   32.557384   37.473396
  30 H     1.0000    0     1.008   36.470287   30.048967   33.803300
  31 H     1.0000    0     1.008   36.015949   26.260247   36.005547
  32 H     1.0000    0     1.008   33.674559   23.492146   38.989736
  33 H     1.0000    0     1.008   29.965190   25.201892   41.348588
  34 H     1.0000    0     1.008   27.658163   28.560212   42.126245
  35 H     1.0000    0     1.008   30.969738   32.427628   37.782664

--------------------------------
INTERNAL COORDINATES (ANGSTROEM)
--------------------------------
 C      0   0   0     0.000000000000     0.00000000     0.00000000
 C      1   0   0     1.542056177894     0.00000000     0.00000000
 O      2   1   0     1.445839533416   110.86979681     0.00000000
 C      3   2   1     1.366332282939   120.16694937    61.27401467
 O      4   3   2     1.217843152980   120.75597553   281.03280537
 C      4   3   2     1.506248943164   114.05935118    90.32354906
 C      6   4   3     1.358315680126   122.19309501   194.40684023
 C      7   6   4     1.513749536289   127.46394824     5.26417527
 N      7   6   4     1.398584770618   120.00295962   187.69679880
 C      9   7   6     1.369846110184   124.49849468    11.22434922
 S     10   9   7     1.653872455433   122.04291340   172.15982315
 N     10   9   7     1.371887490865   116.31198238   352.82335555
 C     12  10   9     1.474177441600   124.53933297   349.19713948
 C     13  12  10     1.524356417845   108.79101344   256.18729831
 C     14  13  12     1.407848476924   120.23266318   251.09828475
 C     15  14  13     1.404981641240   120.57870010   180.19021533
 C     16  15  14     1.405285830562   119.65202668   359.64561934
 C     17  16  15     1.401495423920   119.93653922   359.75666047
 O     18  17  16     1.356508603981   120.09953608   180.04306099
 C     18  17  16     1.398239975984   120.29606989     0.39900164
 H      1   2   3     1.097014839611   111.26590704   289.86574757
 H      1   2   3     1.096572324779   110.41115746   170.23550204
 H      1   2   3     1.097398637982   110.66871343    50.45957438
 H      2   1   3     1.095482124695   108.59890894   122.50632241
 H      2   1   3     1.097503641984   109.19111042   239.90013426
 H      8   7   6     1.097403436567   110.67438056    52.66733762
 H      8   7   6     1.097680061560   110.50424340   293.95409437
 H      8   7   6     1.096261417330   113.02228928   173.17560197
 H      9   7   6     1.007628940331   119.57536959   182.62394000
 H     12  10   9     1.011917737690   114.57641866   181.41605180
 H     13  12  10     1.099332472226   107.55551699   139.12163595
 H     15  14  13     1.087070468307   119.95326772   359.78491280
 H     16  15  14     1.088924294485   120.04074079   179.88752282
 H     17  16  15     1.085270015673   119.90986925   180.13071349
 H     19  18  17     0.969246605680   107.60531664     4.61896002
 H     20  18  17     1.084547439819   119.06015405   180.53091345

---------------------------
INTERNAL COORDINATES (A.U.)
---------------------------
 C      0   0   0     0.000000000000     0.00000000     0.00000000
 C      1   0   0     2.914063859341     0.00000000     0.00000000
 O      2   1   0     2.732240751752   110.86979681     0.00000000
 C      3   2   1     2.581993822690   120.16694937    61.27401467
 O      4   3   2     2.301390033203   120.75597553   281.03280537
 C      4   3   2     2.846397992088   114.05935118    90.32354906
 C      6   4   3     2.566844638850   122.19309501   194.40684023
 C      7   6   4     2.860572058937   127.46394824     5.26417527
 N      7   6   4     2.642942191541   120.00295962   187.69679880
 C      9   7   6     2.588633993865   124.49849468    11.22434922
 S     10   9   7     3.125366001205   122.04291340   172.15982315
 N     10   9   7     2.592491644288   116.31198238   352.82335555
 C     12  10   9     2.785791637428   124.53933297   349.19713948
 C     13  12  10     2.880616160213   108.79101344   256.18729831
 C     14  13  12     2.660448059444   120.23266318   251.09828475
 C     15  14  13     2.655030525130   120.57870010   180.19021533
 C     16  15  14     2.655605359642   119.65202668   359.64561934
 C     17  16  15     2.648442529153   119.93653922   359.75666047
 O     18  17  16     2.563429759832   120.09953608   180.04306099
 C     18  17  16     2.642290624111   120.29606989     0.39900164
 H      1   2   3     2.073057611713   111.26590704   289.86574757
 H      1   2   3     2.072221379870   110.41115746   170.23550204
 H      1   2   3     2.073782885525   110.66871343    50.45957438
 H      2   1   3     2.070161200280   108.59890894   122.50632241
 H      2   1   3     2.073981314331   109.19111042   239.90013426
 H      8   7   6     2.073791953535   110.67438056    52.66733762
 H      8   7   6     2.074314699014   110.50424340   293.95409437
 H      8   7   6     2.071633849937   113.02228928   173.17560197
 H      9   7   6     1.904142741839   119.57536959   182.62394000
 H     12  10   9     1.912247394292   114.57641866   181.41605180
 H     13  12  10     2.077437302634   107.55551699   139.12163595
 H     15  14  13     2.054265473374   119.95326772   359.78491280
 H     16  15  14     2.057768697150   120.04074079   179.88752282
 H     17  16  15     2.050863110978   119.90986925   180.13071349
 H     19  18  17     1.831610640969   107.60531664     4.61896002
 H     20  18  17     2.049497640504   119.06015405   180.53091345

---------------------
BASIS SET INFORMATION
---------------------
There are 5 groups of distinct atoms

 Group   1 Type C   : 18s5p2d1f contracted to 4s3p2d1f pattern {8811/311/11/1}
 Group   2 Type O   : 18s5p2d1f contracted to 4s3p2d1f pattern {8811/311/11/1}
 Group   3 Type N   : 18s5p2d1f contracted to 4s3p2d1f pattern {8811/311/11/1}
 Group   4 Type S   : 41s16p2d1f contracted to 5s4p2d1f pattern {13131311/7711/11/1}
 Group   5 Type H   : 5s2p1d contracted to 3s2p1d pattern {311/11/1}

Atom   0C    basis set group =>   1
Atom   1C    basis set group =>   1
Atom   2O    basis set group =>   2
Atom   3C    basis set group =>   1
Atom   4O    basis set group =>   2
Atom   5C    basis set group =>   1
Atom   6C    basis set group =>   1
Atom   7C    basis set group =>   1
Atom   8N    basis set group =>   3
Atom   9C    basis set group =>   1
Atom  10S    basis set group =>   4
Atom  11N    basis set group =>   3
Atom  12C    basis set group =>   1
Atom  13C    basis set group =>   1
Atom  14C    basis set group =>   1
Atom  15C    basis set group =>   1
Atom  16C    basis set group =>   1
Atom  17C    basis set group =>   1
Atom  18O    basis set group =>   2
Atom  19C    basis set group =>   1
Atom  20H    basis set group =>   5
Atom  21H    basis set group =>   5
Atom  22H    basis set group =>   5
Atom  23H    basis set group =>   5
Atom  24H    basis set group =>   5
Atom  25H    basis set group =>   5
Atom  26H    basis set group =>   5
Atom  27H    basis set group =>   5
Atom  28H    basis set group =>   5
Atom  29H    basis set group =>   5
Atom  30H    basis set group =>   5
Atom  31H    basis set group =>   5
Atom  32H    basis set group =>   5
Atom  33H    basis set group =>   5
Atom  34H    basis set group =>   5
Atom  35H    basis set group =>   5
---------------------------------
AUXILIARY/C BASIS SET INFORMATION
---------------------------------
There are 5 groups of distinct atoms

 Group   1 Type C   : 8s6p5d3f1g contracted to 8s6p5d3f1g pattern {11111111/111111/11111/111/1}
 Group   2 Type O   : 8s6p5d3f1g contracted to 8s6p5d3f1g pattern {11111111/111111/11111/111/1}
 Group   3 Type N   : 8s6p5d3f1g contracted to 8s6p5d3f1g pattern {11111111/111111/11111/111/1}
 Group   4 Type S   : 10s8p7d5f2g contracted to 10s8p7d5f2g pattern {1111111111/11111111/1111111/11111/11}
 Group   5 Type H   : 4s3p2d1f contracted to 4s3p2d1f pattern {1111/111/11/1}

Atom   0C    basis set group =>   1
Atom   1C    basis set group =>   1
Atom   2O    basis set group =>   2
Atom   3C    basis set group =>   1
Atom   4O    basis set group =>   2
Atom   5C    basis set group =>   1
Atom   6C    basis set group =>   1
Atom   7C    basis set group =>   1
Atom   8N    basis set group =>   3
Atom   9C    basis set group =>   1
Atom  10S    basis set group =>   4
Atom  11N    basis set group =>   3
Atom  12C    basis set group =>   1
Atom  13C    basis set group =>   1
Atom  14C    basis set group =>   1
Atom  15C    basis set group =>   1
Atom  16C    basis set group =>   1
Atom  17C    basis set group =>   1
Atom  18O    basis set group =>   2
Atom  19C    basis set group =>   1
Atom  20H    basis set group =>   5
Atom  21H    basis set group =>   5
Atom  22H    basis set group =>   5
Atom  23H    basis set group =>   5
Atom  24H    basis set group =>   5
Atom  25H    basis set group =>   5
Atom  26H    basis set group =>   5
Atom  27H    basis set group =>   5
Atom  28H    basis set group =>   5
Atom  29H    basis set group =>   5
Atom  30H    basis set group =>   5
Atom  31H    basis set group =>   5
Atom  32H    basis set group =>   5
Atom  33H    basis set group =>   5
Atom  34H    basis set group =>   5
Atom  35H    basis set group =>   5
------------------------------------------------------------------------------
                           ORCA GTO INTEGRAL CALCULATION
------------------------------------------------------------------------------

                         BASIS SET STATISTICS AND STARTUP INFO

 # of primitive gaussian shells          ...  682
 # of primitive gaussian functions       ... 1312
 # of contracted shells                  ...  298
 # of contracted basis functions         ...  828
 Highest angular momentum                ...    3
 Maximum contraction depth               ...   13
 Integral package used                   ... LIBINT
 Integral threshhold            Thresh   ...  2.500e-11
 Primitive cut-off              TCut     ...  2.500e-12


------------------------------ INTEGRAL EVALUATION ----------------------------


 * One electron integrals 
 Pre-screening matrix                    ... done
 Shell pair data                         ... done (   0.015 sec)

-------------------------------------------------------------------------------
                                 ORCA SCF
-------------------------------------------------------------------------------

------------
SCF SETTINGS
------------
Hamiltonian:
 Ab initio Hamiltonian  Method          .... Hartree-Fock(GTOs)


General Settings:
 Integral files         IntName         .... CONFS/Conf643.orca
 Hartree-Fock type      HFTyp           .... RHF
 Total Charge           Charge          ....    0
 Multiplicity           Mult            ....    1
 Number of Electrons    NEL             ....  154
 Basis Dimension        Dim             ....  828
 Nuclear Repulsion      ENuc            ....   1721.7802242068 Eh

Convergence Acceleration:
 DIIS                   CNVDIIS         .... on
   Start iteration      DIISMaxIt       ....    12
   Startup error        DIISStart       ....  0.200000
   # of expansion vecs  DIISMaxEq       ....     5
   Bias factor          DIISBfac        ....   1.050
   Max. coefficient     DIISMaxC        ....  10.000
 Newton-Raphson         CNVNR           .... off
 SOSCF                  CNVSOSCF        .... on
   Start iteration      SOSCFMaxIt      ....   150
   Startup grad/error   SOSCFStart      ....  0.003300
 Level Shifting         CNVShift        .... on
   Level shift para.    LevelShift      ....    0.2500
   Turn off err/grad.   ShiftErr        ....    0.0010
 Zerner damping         CNVZerner       .... off
 Static damping         CNVDamp         .... on
   Fraction old density DampFac         ....    0.7000
   Max. Damping (<1)    DampMax         ....    0.9800
   Min. Damping (>=0)   DampMin         ....    0.0000
   Turn off err/grad.   DampErr         ....    0.1000
 Fernandez-Rico         CNVRico         .... off

SCF Procedure:
 Maximum # iterations   MaxIter         ....   125
 SCF integral mode      SCFMode         .... Direct
   Integral package                     .... LIBINT
 Reset frequency        DirectResetFreq ....    20
 Integral Threshold     Thresh          ....  2.500e-11 Eh
 Primitive CutOff       TCut            ....  2.500e-12 Eh

Convergence Tolerance:
 Convergence Check Mode ConvCheckMode   .... Total+1el-Energy
 Convergence forced     ConvForced      .... 1
 Energy Change          TolE            ....  1.000e-08 Eh
 1-El. energy change                    ....  1.000e-05 Eh
 Orbital Gradient       TolG            ....  1.000e-05
 Orbital Rotation angle TolX            ....  1.000e-05
 DIIS Error             TolErr          ....  5.000e-07


Diagonalization of the overlap matrix:
Smallest eigenvalue                        ... 3.227e-05
Time for diagonalization                   ...    0.120 sec
Threshold for overlap eigenvalues          ... 1.000e-08
Number of eigenvalues below threshold      ... 0
Time for construction of square roots      ...    0.108 sec
Total time needed                          ...    0.232 sec

-------------------
DFT GRID GENERATION
-------------------

General Integration Accuracy     IntAcc      ...  4.340
Radial Grid Type                 RadialGrid  ... Gauss-Chebyshev
Angular Grid (max. acc.)         AngularGrid ... Lebedev-110
Angular grid pruning method      GridPruning ... 3 (G Style)
Weight generation scheme         WeightScheme... Becke
Basis function cutoff            BFCut       ...    1.0000e-11
Integration weight cutoff        WCut        ...    1.0000e-14
Grids for H and He will be reduced by one unit

# of grid points (after initial pruning)     ...  46246 (   0.0 sec)
# of grid points (after weights+screening)   ...  41229 (   0.3 sec)
nearest neighbour list constructed           ...    0.0 sec
Grid point re-assignment to atoms done       ...    0.0 sec
Grid point division into batches done        ...    0.0 sec
Reduced shell lists constructed in    1.2 sec

Total number of grid points                  ...    41229
Total number of batches                      ...      663
Average number of points per batch           ...       62
Average number of grid points per atom       ...     1145
Average number of shells per batch           ...   151.56 (50.86%)
Average number of basis functions per batch  ...   386.00 (46.62%)
Average number of large shells per batch     ...    97.46 (64.30%)
Average number of large basis fcns per batch ...   250.18 (64.81%)
Maximum spatial batch extension              ...  22.36, 20.61, 22.44 au
Average spatial batch extension              ...   3.53,  3.29,  3.51 au

Time for grid setup =    1.539 sec

------------------------------
INITIAL GUESS: MODEL POTENTIAL
------------------------------
Loading Hartree-Fock densities                     ... done
Calculating cut-offs                               ... done
Setting up the integral package                    ... done
Initializing the effective Hamiltonian             ... done
Starting the Coulomb interaction                   ... done (   3.2 sec)
Reading the grid                                   ... done
Mapping shells                                     ... done
Starting the XC term evaluation                    ... done (   1.5 sec)
Transforming the Hamiltonian                       ... done (   0.1 sec)
Diagonalizing the Hamiltonian                      ... done (   0.1 sec)
Back transforming the eigenvectors                 ... done (   0.0 sec)
Now organizing SCF variables                       ... done
                      ------------------
                      INITIAL GUESS DONE (   7.0 sec)
                      ------------------
--------------
SCF ITERATIONS
--------------
ITER       Energy         Delta-E        Max-DP      RMS-DP      [F,P]     Damp
               ***  Starting incremental Fock matrix formation  ***
  0  -1270.0003723069   0.000000000000 0.04934156  0.00043257  0.3149733 0.7000
  1  -1270.2674653917  -0.267093084788 0.03609402  0.00034774  0.1878437 0.7000
                               ***Turning on DIIS***
  2  -1270.4340332347  -0.166567843007 0.02584301  0.00023346  0.1096298 0.7000
  3  -1272.5634106950  -2.129377460311 0.06313213  0.00050755  0.0828001 0.0000
  4  -1270.7415097259   1.821900969078 0.00818748  0.00009861  0.0070924 0.0000
  5  -1270.8008269440  -0.059317218126 0.00415706  0.00005189  0.0052566 0.0000
  6  -1270.7811200993   0.019706844736 0.00194508  0.00002688  0.0033547 0.0000
                      *** Initiating the SOSCF procedure ***
                           *** Shutting down DIIS ***
                      *** Re-Reading the Fockian *** 
                      *** Removing any level shift *** 
ITER      Energy       Delta-E        Grad      Rot      Max-DP    RMS-DP
  7  -1270.79571324  -0.0145931423  0.001268  0.001268  0.001099  0.000014
               *** Restarting incremental Fock matrix formation ***
  8  -1270.79603885  -0.0003256045  0.000688  0.001779  0.000711  0.000008
  9  -1270.79605477  -0.0000159200  0.000321  0.002073  0.000937  0.000010
 10  -1270.79606146  -0.0000066902  0.000080  0.000133  0.000185  0.000002
 11  -1270.79606206  -0.0000005987  0.000035  0.000070  0.000063  0.000001
 12  -1270.79606219  -0.0000001315  0.000009  0.000043  0.000032  0.000000
 13  -1270.79606220  -0.0000000169  0.000009  0.000040  0.000016  0.000000
                  ***Gradient check signals convergence***
              ***Rediagonalizing the Fockian in SOSCF/NRSCF***

               *****************************************************
               *                     SUCCESS                       *
               *           SCF CONVERGED AFTER  14 CYCLES          *
               *****************************************************


----------------
TOTAL SCF ENERGY
----------------

Total Energy       :        -1270.79606222 Eh          -34580.11887 eV

Components:
Nuclear Repulsion  :         1721.78022421 Eh           46852.02181 eV
Electronic Energy  :        -2992.57628642 Eh          -81432.14068 eV
One Electron Energy:        -5164.53665766 Eh         -140534.18707 eV
Two Electron Energy:         2171.96037124 Eh           59102.04639 eV

Virial components:
Potential Energy   :        -2539.78025970 Eh          -69110.93440 eV
Kinetic Energy     :         1268.98419749 Eh           34530.81553 eV
Virial Ratio       :            2.00142781


---------------
SCF CONVERGENCE
---------------

  Last Energy change         ...   -1.2320e-08  Tolerance :   1.0000e-08
  Last MAX-Density change    ...    2.8266e-06  Tolerance :   1.0000e-07
  Last RMS-Density change    ...    4.5551e-08  Tolerance :   5.0000e-09
  Last Orbital Gradient      ...    1.8588e-06  Tolerance :   1.0000e-05
  Last Orbital Rotation      ...    5.4261e-06  Tolerance :   1.0000e-05

             **** THE GBW FILE WAS UPDATED (CONFS/Conf643.orca.gbw) ****
             **** DENSITY FILE WAS UPDATED (CONFS/Conf643.orca.scfp) ****
             **** ENERGY FILE WAS UPDATED (CONFS/Conf643.orca.en.tmp) ****
             **** THE GBW FILE WAS UPDATED (CONFS/Conf643.orca.gbw) ****
             **** DENSITY FILE WAS UPDATED (CONFS/Conf643.orca.scfp) ****
----------------
ORBITAL ENERGIES
----------------

  NO   OCC          E(Eh)            E(eV) 
   0   2.0000     -91.891220     -2500.4872 
   1   2.0000     -20.602190      -560.6141 
   2   2.0000     -20.581804      -560.0594 
   3   2.0000     -20.547945      -559.1380 
   4   2.0000     -15.631662      -425.3591 
   5   2.0000     -15.610087      -424.7721 
   6   2.0000     -11.393556      -310.0344 
   7   2.0000     -11.385784      -309.8229 
   8   2.0000     -11.337978      -308.5221 
   9   2.0000     -11.320185      -308.0379 
  10   2.0000     -11.312477      -307.8282 
  11   2.0000     -11.296738      -307.3999 
  12   2.0000     -11.264429      -306.5207 
  13   2.0000     -11.261312      -306.4359 
  14   2.0000     -11.259513      -306.3869 
  15   2.0000     -11.254089      -306.2393 
  16   2.0000     -11.249169      -306.1054 
  17   2.0000     -11.243617      -305.9544 
  18   2.0000     -11.243276      -305.9451 
  19   2.0000     -11.218988      -305.2842 
  20   2.0000      -8.896242      -242.0791 
  21   2.0000      -6.577806      -178.9912 
  22   2.0000      -6.575813      -178.9370 
  23   2.0000      -6.575216      -178.9207 
  24   2.0000      -1.444396       -39.3040 
  25   2.0000      -1.421882       -38.6914 
  26   2.0000      -1.352566       -36.8052 
  27   2.0000      -1.342784       -36.5390 
  28   2.0000      -1.241124       -33.7727 
  29   2.0000      -1.162715       -31.6391 
  30   2.0000      -1.121743       -30.5242 
  31   2.0000      -1.046742       -28.4833 
  32   2.0000      -1.029990       -28.0274 
  33   2.0000      -1.021052       -27.7842 
  34   2.0000      -0.998472       -27.1698 
  35   2.0000      -0.986335       -26.8395 
  36   2.0000      -0.925969       -25.1969 
  37   2.0000      -0.886620       -24.1262 
  38   2.0000      -0.850016       -23.1301 
  39   2.0000      -0.844097       -22.9691 
  40   2.0000      -0.839384       -22.8408 
  41   2.0000      -0.827069       -22.5057 
  42   2.0000      -0.751028       -20.4365 
  43   2.0000      -0.735517       -20.0144 
  44   2.0000      -0.717175       -19.5153 
  45   2.0000      -0.701053       -19.0766 
  46   2.0000      -0.691734       -18.8230 
  47   2.0000      -0.679248       -18.4833 
  48   2.0000      -0.667553       -18.1650 
  49   2.0000      -0.665018       -18.0961 
  50   2.0000      -0.651484       -17.7278 
  51   2.0000      -0.648546       -17.6478 
  52   2.0000      -0.639025       -17.3888 
  53   2.0000      -0.612512       -16.6673 
  54   2.0000      -0.608647       -16.5621 
  55   2.0000      -0.601914       -16.3789 
  56   2.0000      -0.600772       -16.3478 
  57   2.0000      -0.582064       -15.8388 
  58   2.0000      -0.573205       -15.5977 
  59   2.0000      -0.569097       -15.4859 
  60   2.0000      -0.558734       -15.2039 
  61   2.0000      -0.542055       -14.7501 
  62   2.0000      -0.536028       -14.5860 
  63   2.0000      -0.529389       -14.4054 
  64   2.0000      -0.522119       -14.2076 
  65   2.0000      -0.517046       -14.0695 
  66   2.0000      -0.505434       -13.7536 
  67   2.0000      -0.496735       -13.5168 
  68   2.0000      -0.479617       -13.0510 
  69   2.0000      -0.464131       -12.6296 
  70   2.0000      -0.454943       -12.3796 
  71   2.0000      -0.442512       -12.0414 
  72   2.0000      -0.358237        -9.7481 
  73   2.0000      -0.354558        -9.6480 
  74   2.0000      -0.331239        -9.0135 
  75   2.0000      -0.327384        -8.9086 
  76   2.0000      -0.318150        -8.6573 
  77   0.0000       0.068986         1.8772 
  78   0.0000       0.100355         2.7308 
  79   0.0000       0.121766         3.3134 
  80   0.0000       0.127854         3.4791 
  81   0.0000       0.132486         3.6051 
  82   0.0000       0.139591         3.7985 
  83   0.0000       0.146363         3.9827 
  84   0.0000       0.151753         4.1294 
  85   0.0000       0.159005         4.3267 
  86   0.0000       0.171504         4.6669 
  87   0.0000       0.181256         4.9322 
  88   0.0000       0.187932         5.1139 
  89   0.0000       0.192213         5.2304 
  90   0.0000       0.201595         5.4857 
  91   0.0000       0.211804         5.7635 
  92   0.0000       0.216432         5.8894 
  93   0.0000       0.220641         6.0039 
  94   0.0000       0.229264         6.2386 
  95   0.0000       0.231132         6.2894 
  96   0.0000       0.244530         6.6540 
  97   0.0000       0.252777         6.8784 
  98   0.0000       0.267487         7.2787 
  99   0.0000       0.285148         7.7593 
 100   0.0000       0.294458         8.0126 
 101   0.0000       0.303631         8.2622 
 102   0.0000       0.314139         8.5482 
 103   0.0000       0.316475         8.6117 
 104   0.0000       0.327960         8.9242 
 105   0.0000       0.335012         9.1161 
 106   0.0000       0.338914         9.2223 
 107   0.0000       0.345693         9.4068 
 108   0.0000       0.362549         9.8655 
 109   0.0000       0.366175         9.9641 
 110   0.0000       0.371278        10.1030 
 111   0.0000       0.375057        10.2058 
 112   0.0000       0.384301        10.4574 
 113   0.0000       0.388694        10.5769 
 114   0.0000       0.401632        10.9290 
 115   0.0000       0.406475        11.0608 
 116   0.0000       0.411398        11.1947 
 117   0.0000       0.426748        11.6124 
 118   0.0000       0.428432        11.6582 
 119   0.0000       0.435255        11.8439 
 120   0.0000       0.438892        11.9429 
 121   0.0000       0.447173        12.1682 
 122   0.0000       0.456595        12.4246 
 123   0.0000       0.461063        12.5462 
 124   0.0000       0.466536        12.6951 
 125   0.0000       0.468316        12.7435 
 126   0.0000       0.476106        12.9555 
 127   0.0000       0.482375        13.1261 
 128   0.0000       0.488637        13.2965 
 129   0.0000       0.498169        13.5559 
 130   0.0000       0.502051        13.6615 
 131   0.0000       0.508607        13.8399 
 132   0.0000       0.511209        13.9107 
 133   0.0000       0.518379        14.1058 
 134   0.0000       0.521067        14.1789 
 135   0.0000       0.524829        14.2813 
 136   0.0000       0.536313        14.5938 
 137   0.0000       0.543961        14.8019 
 138   0.0000       0.544588        14.8190 
 139   0.0000       0.548949        14.9377 
 140   0.0000       0.553889        15.0721 
 141   0.0000       0.560215        15.2442 
 142   0.0000       0.562341        15.3021 
 143   0.0000       0.569615        15.5000 
 144   0.0000       0.574170        15.6240 
 145   0.0000       0.582210        15.8427 
 146   0.0000       0.585513        15.9326 
 147   0.0000       0.593135        16.1400 
 148   0.0000       0.597605        16.2616 
 149   0.0000       0.600479        16.3399 
 150   0.0000       0.602737        16.4013 
 151   0.0000       0.610204        16.6045 
 152   0.0000       0.613284        16.6883 
 153   0.0000       0.622191        16.9307 
 154   0.0000       0.628618        17.1056 
 155   0.0000       0.630093        17.1457 
 156   0.0000       0.633566        17.2402 
 157   0.0000       0.636321        17.3152 
 158   0.0000       0.640993        17.4423 
 159   0.0000       0.646420        17.5900 
 160   0.0000       0.649677        17.6786 
 161   0.0000       0.656163        17.8551 
 162   0.0000       0.663468        18.0539 
 163   0.0000       0.666554        18.1378 
 164   0.0000       0.670971        18.2580 
 165   0.0000       0.676512        18.4088 
 166   0.0000       0.677592        18.4382 
 167   0.0000       0.688490        18.7348 
 168   0.0000       0.689477        18.7616 
 169   0.0000       0.693977        18.8841 
 170   0.0000       0.701225        19.0813 
 171   0.0000       0.713119        19.4049 
 172   0.0000       0.716345        19.4927 
 173   0.0000       0.719701        19.5841 
 174   0.0000       0.725344        19.7376 
 175   0.0000       0.735958        20.0264 
 176   0.0000       0.738156        20.0862 
 177   0.0000       0.739726        20.1290 
 178   0.0000       0.754948        20.5432 
 179   0.0000       0.759931        20.6788 
 180   0.0000       0.771801        21.0018 
 181   0.0000       0.777061        21.1449 
 182   0.0000       0.784246        21.3404 
 183   0.0000       0.796101        21.6630 
 184   0.0000       0.806592        21.9485 
 185   0.0000       0.811244        22.0751 
 186   0.0000       0.817606        22.2482 
 187   0.0000       0.827699        22.5228 
 188   0.0000       0.832604        22.6563 
 189   0.0000       0.843177        22.9440 
 190   0.0000       0.847518        23.0621 
 191   0.0000       0.853697        23.2303 
 192   0.0000       0.855608        23.2823 
 193   0.0000       0.862801        23.4780 
 194   0.0000       0.871640        23.7185 
 195   0.0000       0.879142        23.9227 
 196   0.0000       0.885863        24.1056 
 197   0.0000       0.900727        24.5100 
 198   0.0000       0.902597        24.5609 
 199   0.0000       0.910254        24.7693 
 200   0.0000       0.915303        24.9067 
 201   0.0000       0.922411        25.1001 
 202   0.0000       0.927888        25.2491 
 203   0.0000       0.934077        25.4175 
 204   0.0000       0.937398        25.5079 
 205   0.0000       0.952960        25.9314 
 206   0.0000       0.957392        26.0519 
 207   0.0000       0.964383        26.2422 
 208   0.0000       0.968258        26.3476 
 209   0.0000       0.976092        26.5608 
 210   0.0000       0.985496        26.8167 
 211   0.0000       0.992946        27.0194 
 212   0.0000       1.003386        27.3035 
 213   0.0000       1.011645        27.5283 
 214   0.0000       1.015873        27.6433 
 215   0.0000       1.019387        27.7389 
 216   0.0000       1.028374        27.9835 
 217   0.0000       1.030396        28.0385 
 218   0.0000       1.036006        28.1912 
 219   0.0000       1.043439        28.3934 
 220   0.0000       1.053500        28.6672 
 221   0.0000       1.064739        28.9730 
 222   0.0000       1.079100        29.3638 
 223   0.0000       1.080820        29.4106 
 224   0.0000       1.088601        29.6223 
 225   0.0000       1.096964        29.8499 
 226   0.0000       1.102012        29.9873 
 227   0.0000       1.107807        30.1450 
 228   0.0000       1.119107        30.4525 
 229   0.0000       1.133088        30.8329 
 230   0.0000       1.136968        30.9385 
 231   0.0000       1.140638        31.0383 
 232   0.0000       1.145679        31.1755 
 233   0.0000       1.153519        31.3889 
 234   0.0000       1.161878        31.6163 
 235   0.0000       1.164078        31.6762 
 236   0.0000       1.175351        31.9829 
 237   0.0000       1.175890        31.9976 
 238   0.0000       1.183367        32.2010 
 239   0.0000       1.193608        32.4797 
 240   0.0000       1.197798        32.5937 
 241   0.0000       1.198955        32.6252 
 242   0.0000       1.204750        32.7829 
 243   0.0000       1.208203        32.8769 
 244   0.0000       1.213930        33.0327 
 245   0.0000       1.219427        33.1823 
 246   0.0000       1.225800        33.3557 
 247   0.0000       1.229171        33.4474 
 248   0.0000       1.244428        33.8626 
 249   0.0000       1.251429        34.0531 
 250   0.0000       1.267848        34.4999 
 251   0.0000       1.268623        34.5210 
 252   0.0000       1.276486        34.7349 
 253   0.0000       1.280977        34.8572 
 254   0.0000       1.287082        35.0233 
 255   0.0000       1.299107        35.3505 
 256   0.0000       1.315755        35.8035 
 257   0.0000       1.320397        35.9298 
 258   0.0000       1.330304        36.1994 
 259   0.0000       1.346386        36.6370 
 260   0.0000       1.348808        36.7029 
 261   0.0000       1.354935        36.8697 
 262   0.0000       1.375911        37.4404 
 263   0.0000       1.378538        37.5119 
 264   0.0000       1.388372        37.7795 
 265   0.0000       1.400729        38.1158 
 266   0.0000       1.402042        38.1515 
 267   0.0000       1.405680        38.2505 
 268   0.0000       1.409359        38.3506 
 269   0.0000       1.424892        38.7733 
 270   0.0000       1.433629        39.0110 
 271   0.0000       1.437630        39.1199 
 272   0.0000       1.443559        39.2812 
 273   0.0000       1.457279        39.6546 
 274   0.0000       1.461566        39.7712 
 275   0.0000       1.468250        39.9531 
 276   0.0000       1.475226        40.1429 
 277   0.0000       1.480675        40.2912 
 278   0.0000       1.490336        40.5541 
 279   0.0000       1.497879        40.7594 
 280   0.0000       1.502871        40.8952 
 281   0.0000       1.509152        41.0661 
 282   0.0000       1.515929        41.2505 
 283   0.0000       1.522256        41.4227 
 284   0.0000       1.525889        41.5215 
 285   0.0000       1.526440        41.5366 
 286   0.0000       1.535184        41.7745 
 287   0.0000       1.543706        42.0064 
 288   0.0000       1.548832        42.1459 
 289   0.0000       1.557998        42.3953 
 290   0.0000       1.567182        42.6452 
 291   0.0000       1.568886        42.6916 
 292   0.0000       1.574746        42.8510 
 293   0.0000       1.581719        43.0408 
 294   0.0000       1.588407        43.2227 
 295   0.0000       1.590270        43.2735 
 296   0.0000       1.603025        43.6205 
 297   0.0000       1.608213        43.7617 
 298   0.0000       1.622860        44.1603 
 299   0.0000       1.625344        44.2279 
 300   0.0000       1.639638        44.6168 
 301   0.0000       1.646454        44.8023 
 302   0.0000       1.648844        44.8673 
 303   0.0000       1.667758        45.3820 
 304   0.0000       1.676227        45.6124 
 305   0.0000       1.681297        45.7504 
 306   0.0000       1.692254        46.0486 
 307   0.0000       1.701689        46.3053 
 308   0.0000       1.704705        46.3874 
 309   0.0000       1.710126        46.5349 
 310   0.0000       1.720745        46.8239 
 311   0.0000       1.732941        47.1557 
 312   0.0000       1.743710        47.4488 
 313   0.0000       1.760530        47.9065 
 314   0.0000       1.765704        48.0472 
 315   0.0000       1.783487        48.5312 
 316   0.0000       1.786231        48.6058 
 317   0.0000       1.797687        48.9175 
 318   0.0000       1.803243        49.0687 
 319   0.0000       1.809465        49.2380 
 320   0.0000       1.812213        49.3128 
 321   0.0000       1.828649        49.7601 
 322   0.0000       1.833964        49.9047 
 323   0.0000       1.842223        50.1294 
 324   0.0000       1.855085        50.4794 
 325   0.0000       1.879004        51.1303 
 326   0.0000       1.880927        51.1826 
 327   0.0000       1.896059        51.5944 
 328   0.0000       1.904429        51.8221 
 329   0.0000       1.915253        52.1167 
 330   0.0000       1.927818        52.4586 
 331   0.0000       1.939274        52.7703 
 332   0.0000       1.951521        53.1036 
 333   0.0000       1.959395        53.3179 
 334   0.0000       1.975122        53.7458 
 335   0.0000       1.989474        54.1363 
 336   0.0000       2.001889        54.4742 
 337   0.0000       2.006186        54.5911 
 338   0.0000       2.012388        54.7599 
 339   0.0000       2.028933        55.2101 
 340   0.0000       2.036669        55.4206 
 341   0.0000       2.040562        55.5265 
 342   0.0000       2.046304        55.6828 
 343   0.0000       2.060179        56.0603 
 344   0.0000       2.084295        56.7165 
 345   0.0000       2.113016        57.4981 
 346   0.0000       2.120133        57.6917 
 347   0.0000       2.123581        57.7856 
 348   0.0000       2.144016        58.3416 
 349   0.0000       2.157238        58.7014 
 350   0.0000       2.167808        58.9891 
 351   0.0000       2.192934        59.6728 
 352   0.0000       2.213981        60.2455 
 353   0.0000       2.223203        60.4964 
 354   0.0000       2.226051        60.5739 
 355   0.0000       2.258295        61.4513 
 356   0.0000       2.259401        61.4814 
 357   0.0000       2.285536        62.1926 
 358   0.0000       2.290654        62.3319 
 359   0.0000       2.308113        62.8070 
 360   0.0000       2.311394        62.8962 
 361   0.0000       2.329769        63.3962 
 362   0.0000       2.341334        63.7109 
 363   0.0000       2.366362        64.3920 
 364   0.0000       2.367523        64.4236 
 365   0.0000       2.381881        64.8143 
 366   0.0000       2.390301        65.0434 
 367   0.0000       2.411455        65.6190 
 368   0.0000       2.420361        65.8614 
 369   0.0000       2.439006        66.3687 
 370   0.0000       2.453588        66.7655 
 371   0.0000       2.461722        66.9869 
 372   0.0000       2.471164        67.2438 
 373   0.0000       2.485321        67.6290 
 374   0.0000       2.487954        67.7007 
 375   0.0000       2.502599        68.0992 
 376   0.0000       2.508878        68.2701 
 377   0.0000       2.526811        68.7580 
 378   0.0000       2.542784        69.1927 
 379   0.0000       2.563101        69.7455 
 380   0.0000       2.566734        69.8444 
 381   0.0000       2.578118        70.1542 
 382   0.0000       2.588862        70.4465 
 383   0.0000       2.603058        70.8328 
 384   0.0000       2.614970        71.1570 
 385   0.0000       2.625244        71.4365 
 386   0.0000       2.644698        71.9659 
 387   0.0000       2.654944        72.2447 
 388   0.0000       2.663653        72.4817 
 389   0.0000       2.669715        72.6466 
 390   0.0000       2.687562        73.1323 
 391   0.0000       2.697113        73.3922 
 392   0.0000       2.714694        73.8706 
 393   0.0000       2.719892        74.0120 
 394   0.0000       2.729590        74.2759 
 395   0.0000       2.742126        74.6170 
 396   0.0000       2.747192        74.7549 
 397   0.0000       2.752262        74.8928 
 398   0.0000       2.763737        75.2051 
 399   0.0000       2.781657        75.6927 
 400   0.0000       2.783729        75.7491 
 401   0.0000       2.792875        75.9980 
 402   0.0000       2.807171        76.3870 
 403   0.0000       2.820819        76.7584 
 404   0.0000       2.829236        76.9874 
 405   0.0000       2.837031        77.1995 
 406   0.0000       2.838431        77.2376 
 407   0.0000       2.851904        77.6043 
 408   0.0000       2.855897        77.7129 
 409   0.0000       2.865631        77.9778 
 410   0.0000       2.881635        78.4133 
 411   0.0000       2.891748        78.6885 
 412   0.0000       2.896183        78.8092 
 413   0.0000       2.910840        79.2080 
 414   0.0000       2.916696        79.3673 
 415   0.0000       2.927605        79.6642 
 416   0.0000       2.930768        79.7503 
 417   0.0000       2.951045        80.3020 
 418   0.0000       2.955912        80.4344 
 419   0.0000       2.968305        80.7717 
 420   0.0000       2.969251        80.7974 
 421   0.0000       2.977493        81.0217 
 422   0.0000       2.985762        81.2467 
 423   0.0000       2.992524        81.4307 
 424   0.0000       3.002583        81.7044 
 425   0.0000       3.014481        82.0282 
 426   0.0000       3.022682        82.2514 
 427   0.0000       3.029874        82.4471 
 428   0.0000       3.035720        82.6061 
 429   0.0000       3.037812        82.6631 
 430   0.0000       3.047098        82.9158 
 431   0.0000       3.056976        83.1846 
 432   0.0000       3.064291        83.3836 
 433   0.0000       3.069649        83.5294 
 434   0.0000       3.077555        83.7445 
 435   0.0000       3.089170        84.0606 
 436   0.0000       3.093058        84.1664 
 437   0.0000       3.098375        84.3111 
 438   0.0000       3.109801        84.6220 
 439   0.0000       3.114460        84.7488 
 440   0.0000       3.121415        84.9380 
 441   0.0000       3.124511        85.0223 
 442   0.0000       3.128312        85.1257 
 443   0.0000       3.134600        85.2968 
 444   0.0000       3.137997        85.3892 
 445   0.0000       3.152467        85.7830 
 446   0.0000       3.159792        85.9823 
 447   0.0000       3.164532        86.1113 
 448   0.0000       3.170964        86.2863 
 449   0.0000       3.190032        86.8052 
 450   0.0000       3.196628        86.9847 
 451   0.0000       3.208102        87.2969 
 452   0.0000       3.208880        87.3181 
 453   0.0000       3.219426        87.6050 
 454   0.0000       3.228915        87.8632 
 455   0.0000       3.235289        88.0367 
 456   0.0000       3.243951        88.2724 
 457   0.0000       3.249107        88.4127 
 458   0.0000       3.256968        88.6266 
 459   0.0000       3.262203        88.7691 
 460   0.0000       3.275405        89.1283 
 461   0.0000       3.283570        89.3505 
 462   0.0000       3.286510        89.4305 
 463   0.0000       3.293313        89.6156 
 464   0.0000       3.298513        89.7571 
 465   0.0000       3.302136        89.8557 
 466   0.0000       3.308494        90.0287 
 467   0.0000       3.315300        90.2139 
 468   0.0000       3.331997        90.6683 
 469   0.0000       3.335004        90.7501 
 470   0.0000       3.335702        90.7691 
 471   0.0000       3.346689        91.0680 
 472   0.0000       3.350489        91.1714 
 473   0.0000       3.359603        91.4194 
 474   0.0000       3.361624        91.4744 
 475   0.0000       3.367260        91.6278 
 476   0.0000       3.372795        91.7784 
 477   0.0000       3.382186        92.0339 
 478   0.0000       3.388085        92.1945 
 479   0.0000       3.397545        92.4519 
 480   0.0000       3.399690        92.5103 
 481   0.0000       3.402340        92.5824 
 482   0.0000       3.416507        92.9679 
 483   0.0000       3.420798        93.0846 
 484   0.0000       3.422767        93.1382 
 485   0.0000       3.427754        93.2739 
 486   0.0000       3.428426        93.2922 
 487   0.0000       3.434254        93.4508 
 488   0.0000       3.440064        93.6089 
 489   0.0000       3.443820        93.7111 
 490   0.0000       3.448708        93.8441 
 491   0.0000       3.453682        93.9795 
 492   0.0000       3.458154        94.1012 
 493   0.0000       3.477705        94.6332 
 494   0.0000       3.478524        94.6555 
 495   0.0000       3.485802        94.8535 
 496   0.0000       3.492585        95.0381 
 497   0.0000       3.500307        95.2482 
 498   0.0000       3.511057        95.5407 
 499   0.0000       3.524633        95.9102 
 500   0.0000       3.527332        95.9836 
 501   0.0000       3.528984        96.0285 
 502   0.0000       3.538737        96.2939 
 503   0.0000       3.552093        96.6574 
 504   0.0000       3.556119        96.7669 
 505   0.0000       3.558958        96.8442 
 506   0.0000       3.561020        96.9003 
 507   0.0000       3.567876        97.0868 
 508   0.0000       3.575889        97.3049 
 509   0.0000       3.584104        97.5284 
 510   0.0000       3.590298        97.6970 
 511   0.0000       3.601871        98.0119 
 512   0.0000       3.609044        98.2071 
 513   0.0000       3.615721        98.3888 
 514   0.0000       3.623301        98.5950 
 515   0.0000       3.627340        98.7049 
 516   0.0000       3.633126        98.8624 
 517   0.0000       3.634176        98.8910 
 518   0.0000       3.637666        98.9859 
 519   0.0000       3.643274        99.1385 
 520   0.0000       3.650763        99.3423 
 521   0.0000       3.658926        99.5644 
 522   0.0000       3.661658        99.6388 
 523   0.0000       3.666429        99.7686 
 524   0.0000       3.670491        99.8791 
 525   0.0000       3.681684       100.1837 
 526   0.0000       3.684341       100.2560 
 527   0.0000       3.696467       100.5860 
 528   0.0000       3.701484       100.7225 
 529   0.0000       3.711115       100.9846 
 530   0.0000       3.721053       101.2550 
 531   0.0000       3.724997       101.3623 
 532   0.0000       3.729134       101.4749 
 533   0.0000       3.745240       101.9132 
 534   0.0000       3.749404       102.0265 
 535   0.0000       3.752983       102.1238 
 536   0.0000       3.755603       102.1952 
 537   0.0000       3.759234       102.2939 
 538   0.0000       3.768266       102.5397 
 539   0.0000       3.775663       102.7410 
 540   0.0000       3.781867       102.9098 
 541   0.0000       3.789955       103.1299 
 542   0.0000       3.801605       103.4469 
 543   0.0000       3.807900       103.6182 
 544   0.0000       3.810537       103.6900 
 545   0.0000       3.822840       104.0248 
 546   0.0000       3.827701       104.1570 
 547   0.0000       3.831937       104.2723 
 548   0.0000       3.836873       104.4066 
 549   0.0000       3.853287       104.8533 
 550   0.0000       3.859020       105.0093 
 551   0.0000       3.872339       105.3717 
 552   0.0000       3.874301       105.4251 
 553   0.0000       3.886916       105.7683 
 554   0.0000       3.895511       106.0022 
 555   0.0000       3.907054       106.3163 
 556   0.0000       3.914493       106.5188 
 557   0.0000       3.919254       106.6483 
 558   0.0000       3.929983       106.9403 
 559   0.0000       3.933063       107.0241 
 560   0.0000       3.940692       107.2317 
 561   0.0000       3.957146       107.6794 
 562   0.0000       3.967430       107.9592 
 563   0.0000       3.969096       108.0046 
 564   0.0000       3.976832       108.2151 
 565   0.0000       3.990595       108.5896 
 566   0.0000       3.993415       108.6663 
 567   0.0000       4.007553       109.0511 
 568   0.0000       4.015957       109.2798 
 569   0.0000       4.024395       109.5093 
 570   0.0000       4.029144       109.6386 
 571   0.0000       4.032113       109.7194 
 572   0.0000       4.048521       110.1659 
 573   0.0000       4.055299       110.3503 
 574   0.0000       4.062890       110.5569 
 575   0.0000       4.072905       110.8294 
 576   0.0000       4.089694       111.2862 
 577   0.0000       4.092841       111.3719 
 578   0.0000       4.096342       111.4671 
 579   0.0000       4.109670       111.8298 
 580   0.0000       4.122347       112.1748 
 581   0.0000       4.124534       112.2343 
 582   0.0000       4.132944       112.4631 
 583   0.0000       4.142618       112.7264 
 584   0.0000       4.147822       112.8680 
 585   0.0000       4.150539       112.9419 
 586   0.0000       4.157285       113.1255 
 587   0.0000       4.160288       113.2072 
 588   0.0000       4.170752       113.4919 
 589   0.0000       4.180208       113.7492 
 590   0.0000       4.182566       113.8134 
 591   0.0000       4.192544       114.0849 
 592   0.0000       4.200971       114.3142 
 593   0.0000       4.206467       114.4638 
 594   0.0000       4.208279       114.5131 
 595   0.0000       4.216069       114.7251 
 596   0.0000       4.225357       114.9778 
 597   0.0000       4.235177       115.2450 
 598   0.0000       4.237512       115.3086 
 599   0.0000       4.252735       115.7228 
 600   0.0000       4.258301       115.8743 
 601   0.0000       4.263195       116.0074 
 602   0.0000       4.269082       116.1676 
 603   0.0000       4.280861       116.4881 
 604   0.0000       4.296505       116.9139 
 605   0.0000       4.301237       117.0426 
 606   0.0000       4.310199       117.2865 
 607   0.0000       4.317768       117.4924 
 608   0.0000       4.322819       117.6299 
 609   0.0000       4.329418       117.8095 
 610   0.0000       4.337223       118.0218 
 611   0.0000       4.346352       118.2703 
 612   0.0000       4.351148       118.4008 
 613   0.0000       4.359582       118.6303 
 614   0.0000       4.363039       118.7243 
 615   0.0000       4.371262       118.9481 
 616   0.0000       4.378275       119.1389 
 617   0.0000       4.390106       119.4609 
 618   0.0000       4.398312       119.6841 
 619   0.0000       4.402296       119.7926 
 620   0.0000       4.409795       119.9966 
 621   0.0000       4.416799       120.1872 
 622   0.0000       4.423144       120.3599 
 623   0.0000       4.435466       120.6952 
 624   0.0000       4.445543       120.9694 
 625   0.0000       4.450527       121.1050 
 626   0.0000       4.453478       121.1853 
 627   0.0000       4.469713       121.6271 
 628   0.0000       4.475176       121.7757 
 629   0.0000       4.491010       122.2066 
 630   0.0000       4.507411       122.6529 
 631   0.0000       4.509702       122.7152 
 632   0.0000       4.520542       123.0102 
 633   0.0000       4.534444       123.3885 
 634   0.0000       4.539680       123.5310 
 635   0.0000       4.542101       123.5968 
 636   0.0000       4.551822       123.8614 
 637   0.0000       4.564553       124.2078 
 638   0.0000       4.574409       124.4760 
 639   0.0000       4.581129       124.6589 
 640   0.0000       4.594252       125.0159 
 641   0.0000       4.597800       125.1125 
 642   0.0000       4.609662       125.4353 
 643   0.0000       4.612283       125.5066 
 644   0.0000       4.619667       125.7075 
 645   0.0000       4.627675       125.9254 
 646   0.0000       4.632779       126.0643 
 647   0.0000       4.637396       126.1900 
 648   0.0000       4.647881       126.4753 
 649   0.0000       4.649685       126.5244 
 650   0.0000       4.660069       126.8069 
 651   0.0000       4.675613       127.2299 
 652   0.0000       4.686020       127.5131 
 653   0.0000       4.694164       127.7347 
 654   0.0000       4.696306       127.7930 
 655   0.0000       4.706516       128.0708 
 656   0.0000       4.709121       128.1417 
 657   0.0000       4.731141       128.7409 
 658   0.0000       4.744842       129.1137 
 659   0.0000       4.750480       129.2671 
 660   0.0000       4.764768       129.6559 
 661   0.0000       4.773321       129.8887 
 662   0.0000       4.780249       130.0772 
 663   0.0000       4.798151       130.5643 
 664   0.0000       4.824219       131.2737 
 665   0.0000       4.830744       131.4512 
 666   0.0000       4.833592       131.5287 
 667   0.0000       4.860452       132.2596 
 668   0.0000       4.877170       132.7146 
 669   0.0000       4.878491       132.7505 
 670   0.0000       4.913728       133.7093 
 671   0.0000       4.945609       134.5769 
 672   0.0000       4.948832       134.6646 
 673   0.0000       4.956582       134.8755 
 674   0.0000       4.971936       135.2933 
 675   0.0000       4.987441       135.7152 
 676   0.0000       5.013420       136.4221 
 677   0.0000       5.023735       136.7028 
 678   0.0000       5.027998       136.8188 
 679   0.0000       5.047419       137.3472 
 680   0.0000       5.053008       137.4993 
 681   0.0000       5.072024       138.0168 
 682   0.0000       5.077429       138.1639 
 683   0.0000       5.095097       138.6446 
 684   0.0000       5.112302       139.1128 
 685   0.0000       5.122891       139.4010 
 686   0.0000       5.127632       139.5299 
 687   0.0000       5.145399       140.0134 
 688   0.0000       5.152656       140.2109 
 689   0.0000       5.161752       140.4584 
 690   0.0000       5.171099       140.7128 
 691   0.0000       5.179208       140.9334 
 692   0.0000       5.189231       141.2062 
 693   0.0000       5.198327       141.4537 
 694   0.0000       5.209855       141.7674 
 695   0.0000       5.213113       141.8560 
 696   0.0000       5.217267       141.9691 
 697   0.0000       5.227503       142.2476 
 698   0.0000       5.230484       142.3287 
 699   0.0000       5.243784       142.6906 
 700   0.0000       5.269427       143.3884 
 701   0.0000       5.275897       143.5644 
 702   0.0000       5.287805       143.8885 
 703   0.0000       5.306350       144.3931 
 704   0.0000       5.317548       144.6978 
 705   0.0000       5.329313       145.0180 
 706   0.0000       5.346746       145.4923 
 707   0.0000       5.373380       146.2171 
 708   0.0000       5.379345       146.3794 
 709   0.0000       5.389727       146.6619 
 710   0.0000       5.390738       146.6894 
 711   0.0000       5.412872       147.2917 
 712   0.0000       5.423701       147.5864 
 713   0.0000       5.444924       148.1639 
 714   0.0000       5.463560       148.6710 
 715   0.0000       5.477500       149.0504 
 716   0.0000       5.495104       149.5294 
 717   0.0000       5.509248       149.9143 
 718   0.0000       5.513455       150.0287 
 719   0.0000       5.523812       150.3106 
 720   0.0000       5.532883       150.5574 
 721   0.0000       5.544451       150.8722 
 722   0.0000       5.558934       151.2663 
 723   0.0000       5.567052       151.4872 
 724   0.0000       5.581510       151.8806 
 725   0.0000       5.595639       152.2651 
 726   0.0000       5.613079       152.7396 
 727   0.0000       5.619602       152.9172 
 728   0.0000       5.621697       152.9742 
 729   0.0000       5.643377       153.5641 
 730   0.0000       5.654084       153.8554 
 731   0.0000       5.660362       154.0263 
 732   0.0000       5.681411       154.5990 
 733   0.0000       5.692888       154.9114 
 734   0.0000       5.706711       155.2875 
 735   0.0000       5.716497       155.5538 
 736   0.0000       5.723860       155.7542 
 737   0.0000       5.734525       156.0444 
 738   0.0000       5.748801       156.4328 
 739   0.0000       5.760502       156.7512 
 740   0.0000       5.772507       157.0779 
 741   0.0000       5.777163       157.2046 
 742   0.0000       5.797297       157.7525 
 743   0.0000       5.815102       158.2370 
 744   0.0000       5.837794       158.8544 
 745   0.0000       5.844927       159.0485 
 746   0.0000       5.862430       159.5248 
 747   0.0000       5.892999       160.3567 
 748   0.0000       5.907317       160.7463 
 749   0.0000       5.930936       161.3890 
 750   0.0000       5.963825       162.2839 
 751   0.0000       5.969342       162.4341 
 752   0.0000       5.988301       162.9500 
 753   0.0000       6.005464       163.4170 
 754   0.0000       6.021405       163.8508 
 755   0.0000       6.035940       164.2463 
 756   0.0000       6.049455       164.6141 
 757   0.0000       6.061937       164.9537 
 758   0.0000       6.079935       165.4434 
 759   0.0000       6.094332       165.8352 
 760   0.0000       6.120283       166.5414 
 761   0.0000       6.176333       168.0666 
 762   0.0000       6.216304       169.1542 
 763   0.0000       6.228310       169.4809 
 764   0.0000       6.250163       170.0756 
 765   0.0000       6.284406       171.0074 
 766   0.0000       6.296085       171.3252 
 767   0.0000       6.317621       171.9112 
 768   0.0000       6.336981       172.4380 
 769   0.0000       6.346348       172.6929 
 770   0.0000       6.366958       173.2537 
 771   0.0000       6.377728       173.5468 
 772   0.0000       6.400024       174.1535 
 773   0.0000       6.407821       174.3657 
 774   0.0000       6.448186       175.4641 
 775   0.0000       6.459938       175.7839 
 776   0.0000       6.496326       176.7740 
 777   0.0000       6.550219       178.2405 
 778   0.0000       6.582164       179.1098 
 779   0.0000       6.643352       180.7748 
 780   0.0000       6.651076       180.9850 
 781   0.0000       6.693989       182.1527 
 782   0.0000       6.734389       183.2520 
 783   0.0000       6.778289       184.4466 
 784   0.0000       6.817316       185.5086 
 785   0.0000       6.901270       187.7931 
 786   0.0000       6.909498       188.0170 
 787   0.0000       6.920422       188.3142 
 788   0.0000       6.962001       189.4457 
 789   0.0000       7.025975       191.1865 
 790   0.0000       7.047615       191.7754 
 791   0.0000       7.060077       192.1145 
 792   0.0000       7.078293       192.6101 
 793   0.0000       7.133346       194.1082 
 794   0.0000       7.249724       197.2750 
 795   0.0000       7.257210       197.4787 
 796   0.0000       7.279210       198.0774 
 797   0.0000       7.282124       198.1567 
 798   0.0000       7.341862       199.7822 
 799   0.0000       7.384605       200.9453 
 800   0.0000       7.403386       201.4564 
 801   0.0000       7.573225       206.0779 
 802   0.0000       7.584201       206.3766 
 803   0.0000       7.639859       207.8911 
 804   0.0000       7.697404       209.4570 
 805   0.0000       7.814211       212.6355 
 806   0.0000       7.815973       212.6834 
 807   0.0000       7.879655       214.4163 
 808   0.0000       7.931920       215.8385 
 809   0.0000       9.438400       256.8319 
 810   0.0000       9.571567       260.4556 
 811   0.0000      10.789351       293.5932 
 812   0.0000      11.373379       309.4854 
 813   0.0000      11.879300       323.2522 
 814   0.0000      12.689483       345.2984 
 815   0.0000      12.927144       351.7655 
 816   0.0000      13.081250       355.9589 
 817   0.0000      13.159611       358.0912 
 818   0.0000      13.303804       362.0149 
 819   0.0000      13.432434       365.5151 
 820   0.0000      13.534818       368.3011 
 821   0.0000      13.786590       375.1522 
 822   0.0000      13.935365       379.2006 
 823   0.0000      13.977564       380.3488 
 824   0.0000      14.055734       382.4760 
 825   0.0000      14.522146       395.1677 
 826   0.0000      14.781812       402.2336 
 827   0.0000      15.983109       434.9225 

                    ********************************
                    * MULLIKEN POPULATION ANALYSIS *
                    ********************************

-----------------------
MULLIKEN ATOMIC CHARGES
-----------------------
   0 C :   -0.272776
   1 C :    0.028266
   2 O :   -0.385637
   3 C :    0.492101
   4 O :   -0.400236
   5 C :   -0.266847
   6 C :    0.154523
   7 C :   -0.270337
   8 N :   -0.125446
   9 C :    0.210334
  10 S :   -0.435212
  11 N :   -0.197567
  12 C :    0.046118
  13 C :    0.026784
  14 C :   -0.161960
  15 C :   -0.133274
  16 C :   -0.274291
  17 C :    0.306645
  18 O :   -0.356104
  19 C :   -0.253374
  20 H :    0.096059
  21 H :    0.094317
  22 H :    0.108173
  23 H :    0.104588
  24 H :    0.106299
  25 H :    0.127214
  26 H :    0.136900
  27 H :    0.094647
  28 H :    0.198640
  29 H :    0.192438
  30 H :    0.151125
  31 H :    0.150181
  32 H :    0.163837
  33 H :    0.133804
  34 H :    0.241836
  35 H :    0.168231
Sum of atomic charges:    0.0000000

--------------------------------
MULLIKEN REDUCED ORBITAL CHARGES
--------------------------------
  0 C s       :     3.252278  s :     3.252278
      pz      :     0.984027  p :     2.942990
      px      :     0.949049
      py      :     1.009913
      dz2     :     0.022697  d :     0.073084
      dxz     :     0.015788
      dyz     :     0.007000
      dx2y2   :     0.009041
      dxy     :     0.018558
      f0      :     0.000778  f :     0.004424
      f+1     :     0.000892
      f-1     :     0.000258
      f+2     :     0.000734
      f-2     :     0.000414
      f+3     :     0.000783
      f-3     :     0.000565
  1 C s       :     3.176957  s :     3.176957
      pz      :     0.947381  p :     2.625701
      px      :     0.741869
      py      :     0.936451
      dz2     :     0.032934  d :     0.157444
      dxz     :     0.035021
      dyz     :     0.018700
      dx2y2   :     0.035639
      dxy     :     0.035150
      f0      :     0.000993  f :     0.011631
      f+1     :     0.002409
      f-1     :     0.001250
      f+2     :     0.001389
      f-2     :     0.001960
      f+3     :     0.001794
      f-3     :     0.001837
  2 O s       :     3.719376  s :     3.719376
      pz      :     1.791633  p :     4.631831
      px      :     1.565442
      py      :     1.274756
      dz2     :     0.004733  d :     0.032162
      dxz     :     0.004205
      dyz     :     0.003919
      dx2y2   :     0.012912
      dxy     :     0.006393
      f0      :     0.000342  f :     0.002268
      f+1     :     0.000168
      f-1     :     0.000426
      f+2     :     0.000273
      f-2     :     0.000260
      f+3     :     0.000284
      f-3     :     0.000515
  3 C s       :     3.002525  s :     3.002525
      pz      :     0.815964  p :     2.194478
      px      :     0.661112
      py      :     0.717403
      dz2     :     0.075196  d :     0.284483
      dxz     :     0.037000
      dyz     :     0.075556
      dx2y2   :     0.047002
      dxy     :     0.049729
      f0      :     0.005069  f :     0.026413
      f+1     :     0.002365
      f-1     :     0.004263
      f+2     :     0.005760
      f-2     :     0.002844
      f+3     :     0.003624
      f-3     :     0.002489
  4 O s       :     3.778761  s :     3.778761
      pz      :     1.429171  p :     4.583806
      px      :     1.389250
      py      :     1.765384
      dz2     :     0.010892  d :     0.035243
      dxz     :     0.009668
      dyz     :     0.007591
      dx2y2   :     0.003528
      dxy     :     0.003564
      f0      :     0.000451  f :     0.002426
      f+1     :     0.000451
      f-1     :     0.000485
      f+2     :     0.000352
      f-2     :     0.000474
      f+3     :     0.000087
      f-3     :     0.000126
  5 C s       :     3.188236  s :     3.188236
      pz      :     0.954157  p :     2.988869
      px      :     1.122496
      py      :     0.912216
      dz2     :     0.012335  d :     0.079262
      dxz     :     0.006924
      dyz     :     0.029161
      dx2y2   :     0.010397
      dxy     :     0.020445
      f0      :     0.000857  f :     0.010479
      f+1     :     0.001212
      f-1     :     0.001961
      f+2     :     0.001960
      f-2     :     0.001539
      f+3     :     0.001551
      f-3     :     0.001399
  6 C s       :     3.188500  s :     3.188500
      pz      :     0.811772  p :     2.465369
      px      :     0.823721
      py      :     0.829877
      dz2     :     0.037274  d :     0.177218
      dxz     :     0.021441
      dyz     :     0.043043
      dx2y2   :     0.024005
      dxy     :     0.051455
      f0      :     0.002187  f :     0.014391
      f+1     :     0.001342
      f-1     :     0.002345
      f+2     :     0.002241
      f-2     :     0.002305
      f+3     :     0.002217
      f-3     :     0.001755
  7 C s       :     3.272390  s :     3.272390
      pz      :     0.976296  p :     2.923848
      px      :     0.988595
      py      :     0.958957
      dz2     :     0.014468  d :     0.069450
      dxz     :     0.012459
      dyz     :     0.014110
      dx2y2   :     0.016587
      dxy     :     0.011826
      f0      :     0.000508  f :     0.004650
      f+1     :     0.000966
      f-1     :     0.000350
      f+2     :     0.000640
      f-2     :     0.000966
      f+3     :     0.000308
      f-3     :     0.000911
  8 N s       :     3.342493  s :     3.342493
      pz      :     1.276616  p :     3.718691
      px      :     1.320347
      py      :     1.121728
      dz2     :     0.012879  d :     0.059341
      dxz     :     0.011509
      dyz     :     0.011052
      dx2y2   :     0.013423
      dxy     :     0.010477
      f0      :     0.000565  f :     0.004921
      f+1     :     0.001022
      f-1     :     0.000527
      f+2     :     0.000963
      f-2     :     0.000971
      f+3     :     0.000421
      f-3     :     0.000452
  9 C s       :     3.157113  s :     3.157113
      pz      :     0.775031  p :     2.353897
      px      :     0.751087
      py      :     0.827779
      dz2     :     0.053843  d :     0.261064
      dxz     :     0.033805
      dyz     :     0.054424
      dx2y2   :     0.067387
      dxy     :     0.051604
      f0      :     0.002075  f :     0.017592
      f+1     :     0.002504
      f-1     :     0.002086
      f+2     :     0.003208
      f-2     :     0.002237
      f+3     :     0.002683
      f-3     :     0.002799
 10 S s       :     5.855661  s :     5.855661
      pz      :     3.361100  p :    10.484609
      px      :     3.576789
      py      :     3.546720
      dz2     :     0.015400  d :     0.084815
      dxz     :     0.014919
      dyz     :     0.029006
      dx2y2   :     0.005026
      dxy     :     0.020464
      f0      :     0.001062  f :     0.010127
      f+1     :     0.000956
      f-1     :     0.002185
      f+2     :     0.001082
      f-2     :     0.003150
      f+3     :     0.000992
      f-3     :     0.000699
 11 N s       :     3.372317  s :     3.372317
      pz      :     1.409188  p :     3.762916
      px      :     1.316385
      py      :     1.037343
      dz2     :     0.005957  d :     0.057883
      dxz     :     0.009096
      dyz     :     0.013939
      dx2y2   :     0.012935
      dxy     :     0.015957
      f0      :     0.000554  f :     0.004451
      f+1     :     0.000437
      f-1     :     0.000576
      f+2     :     0.000677
      f-2     :     0.000739
      f+3     :     0.000759
      f-3     :     0.000708
 12 C s       :     3.132648  s :     3.132648
      pz      :     0.852231  p :     2.627044
      px      :     0.905517
      py      :     0.869295
      dz2     :     0.032279  d :     0.182897
      dxz     :     0.034071
      dyz     :     0.043337
      dx2y2   :     0.024552
      dxy     :     0.048658
      f0      :     0.001104  f :     0.011292
      f+1     :     0.001448
      f-1     :     0.001780
      f+2     :     0.001730
      f-2     :     0.002930
      f+3     :     0.001159
      f-3     :     0.001141
 13 C s       :     3.122878  s :     3.122878
      pz      :     0.887315  p :     2.729965
      px      :     0.912168
      py      :     0.930482
      dz2     :     0.018757  d :     0.109016
      dxz     :     0.011989
      dyz     :     0.029932
      dx2y2   :     0.021647
      dxy     :     0.026690
      f0      :     0.000975  f :     0.011358
      f+1     :     0.001615
      f-1     :     0.001271
[...]
      f-1     :     0.004906
      f+2     :     0.007694
      f-2     :     0.004954
      f+3     :     0.006821
      f-3     :     0.008171
 15 C s       :     2.705776  s :     2.705776
      pz      :     0.898353  p :     2.793439
      px      :     0.932484
      py      :     0.962602
      dz2     :     0.092494  d :     0.417328
      dxz     :     0.072147
      dyz     :     0.058926
      dx2y2   :     0.108423
      dxy     :     0.085338
      f0      :     0.003417  f :     0.041122
      f+1     :     0.005407
      f-1     :     0.005871
      f+2     :     0.007439
      f-2     :     0.005992
      f+3     :     0.007067
      f-3     :     0.005928
 16 C s       :     2.701577  s :     2.701577
      pz      :     0.936330  p :     2.869124
      px      :     0.960524
      py      :     0.972269
      dz2     :     0.043712  d :     0.389977
      dxz     :     0.059046
      dyz     :     0.085888
      dx2y2   :     0.095272
      dxy     :     0.106059
      f0      :     0.003931  f :     0.040276
      f+1     :     0.004688
      f-1     :     0.004271
      f+2     :     0.006173
      f-2     :     0.004966
      f+3     :     0.009000
      f-3     :     0.007247
 17 C s       :     2.701399  s :     2.701399
      pz      :     0.853336  p :     2.680224
      px      :     0.820644
      py      :     1.006243
      dz2     :     0.126632  d :     0.710064
      dxz     :     0.108332
      dyz     :     0.139393
      dx2y2   :     0.166154
      dxy     :     0.169553
      f0      :     0.009150  f :     0.099353
      f+1     :     0.015719
      f-1     :     0.009658
      f+2     :     0.016467
      f-2     :     0.013879
      f+3     :     0.017943
      f-3     :     0.016537
 18 O s       :     3.177091  s :     3.177091
      pz      :     1.421666  p :     4.345722
      px      :     1.412711
      py      :     1.511345
      dz2     :     0.008212  d :     0.075431
      dxz     :     0.017088
      dyz     :     0.018604
      dx2y2   :     0.014939
      dxy     :     0.016588
      f0      :     0.000585  f :     0.005055
      f+1     :     0.000700
      f-1     :     0.000453
      f+2     :     0.000668
      f-2     :     0.001012
      f+3     :     0.000741
      f-3     :     0.000895
 19 C s       :     2.694900  s :     2.694900
      pz      :     0.932976  p :     2.847022
      px      :     0.951518
      py      :     0.962529
      dz2     :     0.075121  d :     0.387928
      dxz     :     0.070484
      dyz     :     0.061243
      dx2y2   :     0.094427
      dxy     :     0.086654
      f0      :     0.003390  f :     0.040792
      f+1     :     0.005611
      f-1     :     0.005472
      f+2     :     0.007407
      f-2     :     0.006564
      f+3     :     0.006795
      f-3     :     0.005551
 20 H s       :     0.849622  s :     0.849622
      pz      :     0.038729  p :     0.152873
      px      :     0.044472
      py      :     0.069672
      dz2     :     0.002378  d :     0.027630
      dxz     :     0.001580
      dyz     :     0.007616
      dx2y2   :     0.007528
      dxy     :     0.008528
 21 H s       :     0.849436  s :     0.849436
      pz      :     0.042361  p :     0.152001
      px      :     0.056632
      py      :     0.053008
      dz2     :     0.003755  d :     0.027498
      dxz     :     0.005338
      dyz     :     0.003415
      dx2y2   :     0.008660
      dxy     :     0.006329
 22 H s       :     0.845468  s :     0.845468
      pz      :     0.070832  p :     0.149828
      px      :     0.038959
      py      :     0.040036
      dz2     :     0.009396  d :     0.027572
      dxz     :     0.008131
      dyz     :     0.007921
      dx2y2   :     0.000981
      dxy     :     0.001143
 23 H s       :     0.851057  s :     0.851057
      pz      :     0.079265  p :     0.155390
      px      :     0.036201
      py      :     0.039924
      dz2     :     0.010111  d :     0.027632
      dxz     :     0.007792
      dyz     :     0.006646
      dx2y2   :     0.001335
      dxy     :     0.001749
 24 H s       :     0.852493  s :     0.852493
      pz      :     0.038770  p :     0.143475
      px      :     0.030844
      py      :     0.073861
      dz2     :     0.002538  d :     0.026895
      dxz     :     0.001173
      dyz     :     0.008725
      dx2y2   :     0.007698
      dxy     :     0.006761
 25 H s       :     0.828001  s :     0.828001
      pz      :     0.040019  p :     0.150371
      px      :     0.066287
      py      :     0.044065
      dz2     :     0.002368  d :     0.027754
      dxz     :     0.007834
      dyz     :     0.001966
      dx2y2   :     0.008376
      dxy     :     0.007209
 26 H s       :     0.823374  s :     0.823374
      pz      :     0.069349  p :     0.151565
      px      :     0.044487
      py      :     0.037729
      dz2     :     0.009142  d :     0.027745
      dxz     :     0.007581
      dyz     :     0.007621
      dx2y2   :     0.001673
      dxy     :     0.001729
 27 H s       :     0.845058  s :     0.845058
      pz      :     0.041635  p :     0.150357
      px      :     0.040513
      py      :     0.068209
      dz2     :     0.003880  d :     0.027700
      dxz     :     0.001490
      dyz     :     0.007521
      dx2y2   :     0.006399
      dxy     :     0.008410
 28 H s       :     0.742174  s :     0.742174
      pz      :     0.062995  p :     0.253410
      px      :     0.070037
      py      :     0.120378
      dz2     :     0.005685  d :     0.061771
      dxz     :     0.001883
      dyz     :     0.018076
      dx2y2   :     0.017134
      dxy     :     0.018993
 29 H s       :     0.749522  s :     0.749522
      pz      :     0.102953  p :     0.254262
      px      :     0.102950
      py      :     0.048359
      dz2     :     0.016607  d :     0.061369
      dxz     :     0.014094
      dyz     :     0.008626
      dx2y2   :     0.012497
      dxy     :     0.009545
 30 H s       :     0.830929  s :     0.830929
      pz      :     0.046290  p :     0.147364
      px      :     0.052752
      py      :     0.048322
      dz2     :     0.004558  d :     0.028405
      dxz     :     0.006300
      dyz     :     0.005090
      dx2y2   :     0.005608
      dxy     :     0.006849
 31 H s       :     0.843681  s :     0.843681
      pz      :     0.052528  p :     0.157696
      px      :     0.066254
      py      :     0.038914
      dz2     :     0.004939  d :     0.027520
      dxz     :     0.006700
      dyz     :     0.003339
      dx2y2   :     0.006263
      dxy     :     0.006280
 32 H s       :     0.842259  s :     0.842259
      pz      :     0.037384  p :     0.151034
      px      :     0.039000
      py      :     0.074650
      dz2     :     0.002742  d :     0.026413
      dxz     :     0.000828
      dyz     :     0.007256
      dx2y2   :     0.007679
      dxy     :     0.007907
 33 H s       :     0.847715  s :     0.847715
      pz      :     0.059380  p :     0.158785
      px      :     0.049337
      py      :     0.050068
      dz2     :     0.006411  d :     0.027725
      dxz     :     0.005157
      dyz     :     0.005941
      dx2y2   :     0.005321
      dxy     :     0.004895
 34 H s       :     0.705747  s :     0.705747
      pz      :     0.119058  p :     0.347339
      px      :     0.086165
      py      :     0.142116
      dz2     :     0.025410  d :     0.099435
      dxz     :     0.013400
      dyz     :     0.023894
      dx2y2   :     0.018536
      dxy     :     0.018194
 35 H s       :     0.838674  s :     0.838674
      pz      :     0.040107  p :     0.157794
      px      :     0.041303
      py      :     0.076384
      dz2     :     0.002813  d :     0.028091
      dxz     :     0.000880
      dyz     :     0.008032
      dx2y2   :     0.008039
      dxy     :     0.008327


                      *****************************
                      * MAYER POPULATION ANALYSIS *
                      *****************************

  NA   - Mulliken gross atomic population
  ZA   - Total nuclear charge
  QA   - Mulliken gross atomic charge
  VA   - Mayer's total valence
  BVA  - Mayer's bonded valence
  FA   - Mayer's free valence

  ATOM       NA         ZA         QA         VA         BVA        FA
  0 C      6.2728     6.0000    -0.2728     3.8811     3.8811    -0.0000
  1 C      5.9717     6.0000     0.0283     3.8715     3.8715     0.0000
  2 O      8.3856     8.0000    -0.3856     1.9825     1.9825     0.0000
  3 C      5.5079     6.0000     0.4921     4.2289     4.2289    -0.0000
  4 O      8.4002     8.0000    -0.4002     2.1023     2.1023     0.0000
  5 C      6.2668     6.0000    -0.2668     3.6501     3.6501     0.0000
  6 C      5.8455     6.0000     0.1545     3.8875     3.8875     0.0000
  7 C      6.2703     6.0000    -0.2703     3.9094     3.9094    -0.0000
  8 N      7.1254     7.0000    -0.1254     3.3002     3.3002    -0.0000
  9 C      5.7897     6.0000     0.2103     4.1500     4.1500     0.0000
 10 S     16.4352    16.0000    -0.4352     1.7627     1.7627     0.0000
 11 N      7.1976     7.0000    -0.1976     3.2439     3.2439    -0.0000
 12 C      5.9539     6.0000     0.0461     3.9505     3.9505    -0.0000
 13 C      5.9732     6.0000     0.0268     3.7364     3.7364     0.0000
 14 C      6.1620     6.0000    -0.1620     3.8367     3.8367     0.0000
 15 C      6.1333     6.0000    -0.1333     3.8035     3.8035     0.0000
 16 C      6.2743     6.0000    -0.2743     3.7881     3.7881     0.0000
 17 C      5.6934     6.0000     0.3066     3.8913     3.8913     0.0000
 18 O      8.3561     8.0000    -0.3561     2.1210     2.1210     0.0000
 19 C      6.2534     6.0000    -0.2534     3.8290     3.8290    -0.0000
 20 H      0.9039     1.0000     0.0961     0.9879     0.9879     0.0000
 21 H      0.9057     1.0000     0.0943     0.9800     0.9800    -0.0000
 22 H      0.8918     1.0000     0.1082     0.9875     0.9875     0.0000
 23 H      0.8954     1.0000     0.1046     0.9610     0.9610    -0.0000
 24 H      0.8937     1.0000     0.1063     0.9795     0.9795     0.0000
 25 H      0.8728     1.0000     0.1272     0.9796     0.9796     0.0000
 26 H      0.8631     1.0000     0.1369     0.9791     0.9791     0.0000
 27 H      0.9054     1.0000     0.0946     0.9857     0.9857     0.0000
 28 H      0.8014     1.0000     0.1986     1.0218     1.0218     0.0000
 29 H      0.8076     1.0000     0.1924     1.0201     1.0201    -0.0000
 30 H      0.8489     1.0000     0.1511     0.9938     0.9938     0.0000
 31 H      0.8498     1.0000     0.1502     0.9863     0.9863    -0.0000
 32 H      0.8362     1.0000     0.1638     0.9762     0.9762     0.0000
 33 H      0.8662     1.0000     0.1338     0.9905     0.9905     0.0000
 34 H      0.7582     1.0000     0.2418     1.0101     1.0101     0.0000
 35 H      0.8318     1.0000     0.1682     0.9871     0.9871    -0.0000

  Mayer bond orders larger than 0.100000
B(  0-C ,  1-C ) :   0.9819 B(  0-C , 20-H ) :   0.9731 B(  0-C , 21-H ) :   0.9756 
B(  0-C , 22-H ) :   0.9770 B(  1-C ,  2-O ) :   0.8853 B(  1-C , 23-H ) :   0.9654 
B(  1-C , 24-H ) :   0.9807 B(  2-O ,  3-C ) :   1.0954 B(  3-C ,  4-O ) :   2.0280 
B(  3-C ,  5-C ) :   1.0505 B(  5-C ,  6-C ) :   1.6555 B(  5-C , 12-C ) :   0.9681 
B(  6-C ,  7-C ) :   0.9701 B(  6-C ,  8-N ) :   1.1545 B(  7-C , 25-H ) :   0.9647 
B(  7-C , 26-H ) :   0.9561 B(  7-C , 27-H ) :   0.9887 B(  8-N ,  9-C ) :   1.1783 
B(  8-N , 28-H ) :   0.9481 B(  9-C , 10-S ) :   1.6145 B(  9-C , 11-N ) :   1.3021 
B( 11-N , 12-C ) :   0.9753 B( 11-N , 29-H ) :   0.9539 B( 12-C , 13-C ) :   0.9479 
B( 12-C , 30-H ) :   1.0015 B( 13-C , 14-C ) :   1.3571 B( 13-C , 19-C ) :   1.3718 
B( 14-C , 15-C ) :   1.3862 B( 14-C , 31-H ) :   0.9741 B( 15-C , 16-C ) :   1.3671 
B( 15-C , 32-H ) :   0.9697 B( 16-C , 17-C ) :   1.3275 B( 16-C , 33-H ) :   0.9836 
B( 17-C , 18-O ) :   1.1151 B( 17-C , 19-C ) :   1.3761 B( 18-O , 34-H ) :   0.9789 
B( 19-C , 35-H ) :   0.9572 

-------
TIMINGS
-------

Total SCF time: 0 days 1 hours 49 min 45 sec 

Total time                  ....    6585.841 sec
Sum of individual times     ....    6579.454 sec  ( 99.9%)

Fock matrix formation       ....    6562.500 sec  ( 99.6%)
Diagonalization             ....       1.927 sec  (  0.0%)
Density matrix formation    ....       0.261 sec  (  0.0%)
Population analysis         ....       0.496 sec  (  0.0%)
Initial guess               ....       5.490 sec  (  0.1%)
Orbital Transformation      ....       0.000 sec  (  0.0%)
Orbital Orthonormalization  ....       0.000 sec  (  0.0%)
DIIS solution               ....       5.511 sec  (  0.1%)
SOSCF solution              ....       1.730 sec  (  0.0%)

------------------------------------------------------------------------------
                                ORCA  MP2 
------------------------------------------------------------------------------

Freezing NCore=48 chemical core electrons

-------------
RI-MP2 ENERGY
-------------
Dimension of the basis                    ...  828
Memory devoted to MP2                     ...  256 MB   
Data format for buffers                   ... DOUBLE
Compression type for matrix containers    ... UNCOMPRESSED
Overall scaling of the MP2 energy         ...   1.000e+00
Calculating two index integrals           ... done (    0.042 sec)
Cholesky decomposition of V**-1           ... done (    0.455 sec)

-----------------
RI-TRANSFORMATION (AUX index driven)
-----------------

Dimension of the orbital-basis         ... 828
Dimension of the aux-basis             ... 2141
Transformation of internal/external MOs...   24-  76 to   77- 827
Number Format for Storage              ... Double (8 Byte)
Integral mode                          ... Direct

First Phase: integral generation and transformation of MO indices
  Aux angular momentum 0               ... done (    5.608 sec)
  Aux angular momentum 1               ... done (    9.260 sec)
  Aux angular momentum 2               ... done (   12.112 sec)
  Aux angular momentum 3               ... done (    9.756 sec)
  Aux angular momentum 4               ... done (    3.549 sec)
Closing buffer VIA ( 0.63 GB; CompressionRatio= 1.00)
  Phase 1 completed in    40.443 sec
Second Phase: sorting and transformation of aux index

IA-Transformation
Memory available                       ... 167 MB 
Max. # MO pairs treated in a batch     ... 12    
# of internal orbitals                 ... 53
# batches for internal orbitals        ... 5
Closing buffer IAV ( 0.63 GB; CompressionRatio= 1.00)
(ia|v) transformation done in    26.509 sec

  Phase 2 completed in    26.513 sec
RI-Integral transformation completed in    66.967 sec
Opening buffers                              ... done

Starting loop over batches of integrals:

Operator 0  - window                       ... ( 24- 76)x( 77-827)
Operator 0  - Memory available             ...   256 MB
Operator 0  - Memory needed per MO         ...  12.3 MB
Operator 0  - Number of orbitals per batch ... 13
Operator 0  - Number of batches            ... 5

OPERATOR  0   PASS   0:  MOs    24 ...   36
  Reading integrals       ... ok
  Internal MO  26
  Internal MO  29
  Internal MO  32
  Internal MO  35
OPERATOR  0   PASS   1:  MOs    37 ...   49
  Reading integrals       ... ok
  Internal MO  38
  Internal MO  41
  Internal MO  44
  Internal MO  47
OPERATOR  0   PASS   2:  MOs    50 ...   62
  Reading integrals       ... ok
  Internal MO  50
  Internal MO  53
  Internal MO  56
  Internal MO  59
  Internal MO  62
OPERATOR  0   PASS   3:  MOs    63 ...   75
  Reading integrals       ... ok
  Internal MO  65
  Internal MO  68
  Internal MO  71
  Internal MO  74
OPERATOR  0   PASS   4:  MOs    76 ...   76
  Reading integrals       ... ok
Time spent in pair loops =    99.638 sec
Deleting buffer (Ka|jb)[aa] ...done

-----------------------------------------------
 RI-MP2 CORRELATION ENERGY:     -3.534912490 Eh
-----------------------------------------------


-------
TIMINGS
-------

Total time                :  167.213 sec
Integral trafo            :   66.987 sec ( 40.1%)
I/O of integrals          :    3.314 sec (  2.0%)
K(i,j) Operators          :   59.636 sec ( 35.7%)
T(i,j) pair energies      :   10.445 sec (  6.2%)
V-calculation             :    0.042 sec (  0.0%)
V**(-1/2)                 :    0.455 sec (  0.3%)
Gamma(ia|P)               :    0.000 sec (  0.0%)
Gamma-Trafo               :    0.000 sec (  0.0%)
D(virtual)                :    0.000 sec (  0.0%)
D(internal)               :    0.000 sec (  0.0%)
W(virtual)                :    0.000 sec (  0.0%)
W(internal)               :    0.000 sec (  0.0%)
L(virtual)                :    0.000 sec (  0.0%)
L(internal)               :    0.000 sec (  0.0%)
G(D)                      :    0.000 sec (  0.0%)
G(Z)                      :    0.000 sec (  0.0%)
Z-Vector Solution         :    0.000 sec (  0.0%)
3-Index Derivative        :    0.000 sec (  0.0%)
2-Index Derivative        :    0.000 sec (  0.0%)
Separable Gradient        :    0.000 sec (  0.0%)


---------------------------------------
MP2 TOTAL ENERGY:    -1274.330974706 Eh
---------------------------------------

-------------------------   --------------------
FINAL SINGLE POINT ENERGY     -1274.330974706064
-------------------------   --------------------


                            ***************************************
                            *     ORCA property calculations      *
                            ***************************************


  WARNING: The energy has been calculated at the MP2 level but the densities
           used in the property calculations are still SCF densities
           MP2 response densities have not been calculated 
           use %mp2 Density relaxed end
           or  %mp2 Density unrelaxed end

                                    ---------------------
                                    Active property flags
                                    ---------------------
   (+) Dipole Moment


------------------------------------------------------------------------------
                       ORCA ELECTRIC PROPERTIES CALCULATION
------------------------------------------------------------------------------

Dipole Moment Calculation                       ... on
Quadrupole Moment Calculation                   ... off
Polarizability Calculation                      ... off
GBWName                                         ... CONFS/Conf643.orca.gbw
Electron density file                           ... CONFS/Conf643.orca.scfp
The origin for moment calculation is the CENTER OF MASS  = (32.895504, 31.448261 35.243896)

-------------
DIPOLE MOMENT
-------------
                                X             Y             Z
Electronic contribution:     10.65258       8.95468       7.00019
Nuclear contribution   :    -11.74557     -10.51919      -6.70873
                        -----------------------------------------
Total Dipole Moment    :     -1.09298      -1.56451       0.29146
                        -----------------------------------------
Magnitude (a.u.)       :      1.93061
Magnitude (Debye)      :      4.90722



--------------------
Rotational spectrum 
--------------------
 
Rotational constants in cm-1:     0.011709     0.009360     0.006423 
Rotational constants in MHz :   351.029335   280.617503   192.571171 

 Dipole components along the rotational axes: 
x,y,z [a.u.] :    -1.832174    -0.528065     0.302544 
x,y,z [Debye]:    -4.657016    -1.342234     0.769005 

 

Timings for individual modules:

Sum of individual times         ...     6755.513 sec (= 112.592 min)
GTO integral calculation        ...        1.657 sec (=   0.028 min)   0.0 %
SCF iterations                  ...     6585.973 sec (= 109.766 min)  97.5 %
MP2 module                      ...      167.883 sec (=   2.798 min)   2.5 %
                             ****ORCA TERMINATED NORMALLY****
TOTAL RUN TIME: 0 days 1 hours 52 minutes 36 seconds 835 msec
