
                                 *****************
                                 * O   R   C   A *
                                 *****************

           --- An Ab Initio, DFT and Semiempirical electronic structure package ---

                  #######################################################
                  #                        -***-                        #
                  #          Department of theory and spectroscopy      #
                  #               Directorship: Frank Neese             #
                  #        Max Planck Institute fuer Kohlenforschung    #
                  #                Kaiser Wilhelm Platz 1               #
                  #                 D-45470 Muelheim/Ruhr               #
                  #                      Germany                        #
                  #                                                     #
                  #                  All rights reserved                #
                  #                        -***-                        #
                  #######################################################


                         Program Version 4.2.0 -  RELEASE  -


 With contributions from (in alphabetic order):
   Daniel Aravena         : Magnetic Suceptibility
   Michael Atanasov       : Ab Initio Ligand Field Theory (pilot matlab implementation)
   Alexander A. Auer      : GIAO ZORA, VPT2
   Ute Becker             : Parallelization
   Giovanni Bistoni       : ED, misc. LED, open-shell LED, HFLED
   Martin Brehm           : Molecular dynamics
   Dmytro Bykov           : SCF Hessian
   Vijay G. Chilkuri      : MRCI spin determinant printing, contributions to CSF-ICE
   Dipayan Datta          : RHF DLPNO-CCSD density
   Achintya Kumar Dutta   : EOM-CC, STEOM-CC
   Dmitry Ganyushin       : Spin-Orbit,Spin-Spin,Magnetic field MRCI
   Miquel Garcia          : C-PCM Hessian, Gaussian charge scheme
   Yang Guo               : DLPNO-NEVPT2, CIM, IAO-localization
   Andreas Hansen         : Spin unrestricted coupled pair/coupled cluster methods
   Benjamin Helmich-Paris : CASSCF linear response (MC-RPA)
   Lee Huntington         : MR-EOM, pCC
   Robert Izsak           : Overlap fitted RIJCOSX, COSX-SCS-MP3, EOM
   Christian Kollmar      : KDIIS, OOCD, Brueckner-CCSD(T), CCSD density
   Simone Kossmann        : Meta GGA functionals, TD-DFT gradient, OOMP2, MP2 Hessian
   Martin Krupicka        : AUTO-CI
   Lucas Lang             : DCDCAS
   Dagmar Lenk            : GEPOL surface, SMD
   Dimitrios Liakos       : Extrapolation schemes; Compound Job, initial MDCI parallelization
   Dimitrios Manganas     : Further ROCIS development; embedding schemes
   Dimitrios Pantazis     : SARC Basis sets
   Taras Petrenko         : DFT Hessian,TD-DFT gradient, ASA, ECA, R-Raman, ABS, FL, XAS/XES, NRVS
   Peter Pinski           : DLPNO-MP2, DLPNO-MP2 Gradient
   Christoph Reimann      : Effective Core Potentials
   Marius Retegan         : Local ZFS, SOC
   Christoph Riplinger    : Optimizer, TS searches, QM/MM, DLPNO-CCSD(T), (RO)-DLPNO pert. Triples
   Tobias Risthaus        : Range-separated hybrids, TD-DFT gradient, RPA, STAB
   Michael Roemelt        : Original ROCIS implementation
   Masaaki Saitow         : Open-shell DLPNO-CCSD energy and density
   Barbara Sandhoefer     : DKH picture change effects
   Avijit Sen             : IP-ROCIS
   Kantharuban Sivalingam : CASSCF convergence, NEVPT2, FIC-MRCI
   Bernardo de Souza      : ESD, SOC TD-DFT
   Georgi Stoychev        : AutoAux, RI-MP2 NMR
   Willem Van den Heuvel  : Paramagnetic NMR
   Boris Wezisla          : Elementary symmetry handling
   Frank Wennmohs         : Technical directorship


 We gratefully acknowledge several colleagues who have allowed us to
 interface, adapt or use parts of their codes:
   Stefan Grimme, W. Hujo, H. Kruse,             : VdW corrections, initial TS optimization,
                  C. Bannwarth                     DFT functionals, gCP, sTDA/sTD-DF
   Ed Valeev, F. Pavosevic, A. Kumar             : LibInt (2-el integral package), F12 methods
   Garnet Chan, S. Sharma, J. Yang, R. Olivares  : DMRG
   Ulf Ekstrom                                   : XCFun DFT Library
   Mihaly Kallay                                 : mrcc  (arbitrary order and MRCC methods)
   Andreas Klamt, Michael Diedenhofen            : otool_cosmo (COSMO solvation model)
   Jiri Pittner, Ondrej Demel                    : Mk-CCSD
   Frank Weinhold                                : gennbo (NPA and NBO analysis)
   Christopher J. Cramer and Donald G. Truhlar   : smd solvation model
   Lars Goerigk                                  : TD-DFT with DH, B97 family of functionals
   V. Asgeirsson, H. Jonsson                     : NEB implementation
   FAccTs GmbH                                   : IRC, NEB, NEB-TS, Multilevel, MM, QM/MM, CI optimization
   S Lehtola, MJT Oliveira, MAL Marques          : LibXC Library


 Your calculation uses the libint2 library for the computation of 2-el integrals
 For citations please refer to: http://libint.valeyev.net

 Your ORCA version has been built with support for libXC version: 4.2.3
 For citations please refer to: https://tddft.org/programs/libxc/

 This ORCA versions uses:
   CBLAS   interface :  Fast vector & matrix operations
   LAPACKE interface :  Fast linear algebra routines
   SCALAPACK package :  Parallel linear algebra routines


----- Orbital basis set information -----
Your calculation utilizes the basis: cc-pVTZ 
       H, B-Ne : Obtained from the ccRepo (grant-hill.group.shef.ac.uk/ccrepo) Feb. 2017
                 T. H. Dunning, Jr., J. Chem. Phys. 90, 1007 (1989)
            He : Obtained from the ccRepo (grant-hill.group.shef.ac.uk/ccrepo) Feb. 2017
                 D. E. Woon, T. H. Dunning, Jr., J. Chem. Phys. 100, 2975 (1994)
  Li-Be, Na-Mg : Obtained from the ccRepo (grant-hill.group.shef.ac.uk/ccrepo) Feb. 2017
                 B. P. Prascher, D. E. Woon, K. A. Peterson, T. H. Dunning, Jr., A. K. Wilson, Theor. Chem. Acc. 128, 69 (2011)
         Al-Ar : Obtained from the ccRepo (grant-hill.group.shef.ac.uk/ccrepo) Feb. 2017
                 D. E. Woon, T. H. Dunning, Jr., J. Chem. Phys. 98, 1358 (1993)
            Ca : Obtained from the Peterson Research Group Website (tyr0.chem.wsu.edu/~kipeters) Feb. 2017
                 J. Koput, K. A. Peterson, J. Phys. Chem. 106, 9595 (2002)
         Sc-Zn : Obtained from the ccRepo (grant-hill.group.shef.ac.uk/ccrepo) Feb. 2017
                 N. B. Balabanov, K. A. Peterson, J. Chem. Phys. 123, 064107 (2005)
                 N. B. Balabanov, K. A. Peterson, J. Chem. Phys. 125, 074110 (2006)
         Ga-Kr : Obtained from the ccRepo (grant-hill.group.shef.ac.uk/ccrepo) Feb. 2017
                 A. K. Wilson, D. E. Woon, K. A. Peterson, T. H. Dunning, Jr., J. Chem. Phys. 110, 7667 (1999)
             Y : Obtained from the ccRepo (grant-hill.group.shef.ac.uk/ccrepo) Feb. 2017
                 K. A. Peterson, D. Figgen, M. Dolg, H. Stoll, J. Chem. Phys. 126, 124101 (2007)
        Ag, Au : Obtained from the Peterson Research Group Website (tyr0.chem.wsu.edu/~kipeters) Feb. 2017
                 K. A. Peterson, C. Puzzarini, Theor. Chem. Acc. 114, 283 (2005)

----- AuxC basis set information -----
Your calculation utilizes the auxiliary basis: cc-pVTZ/C 
  Obtained from the EMSL Basis Set Exchange (bse.pnl.gov) Feb. 2017
  H-He, B-F, Al-Ar, Ga-Kr : F. Weigend, A. Kohn, C. Hattig, J. Chem. Phys. 116, 3175 (2002)
             Li-Be, Na-Mg : C. Haettig, Phys. Chem. Chem. Phys. 7, 59 (2005)
                       Ne : C. Haettig, Phys. Chem. Chem. Phys. 7, 59 (2005)
                            F. Weigend, A. Kohn, C. Hattig, J. Chem. Phys. 116, 3175 (2002)
                    Sc-Zn : J. G. Hill, J. A. Platts, J. Chem. Phys. 128, 044104 (2008)

================================================================================
                                        WARNINGS
                       Please study these warnings very carefully!
================================================================================


WARNING: No MP2 level density has been requested!
         To caclulate MP2 level properties use
         %mp2 Density relaxed end
         or
         %mp2 Density unrelaxed end

WARNING: Post HF methods need fully converged wavefunctions
  ===> : Setting SCFConvForced true
         You can overwrite this default with %scf ConvForced false 


INFO   : the flag for use of LIBINT has been found!

================================================================================
                                       INPUT FILE
================================================================================
NAME = CONFS/Conf603.orca
|  1> ! ri-mp2 cc-pvtz cc-pvtz/c TightSCF  NoKeepInts
|  2> 
|  3> %scf
|  4>   MaxCore 4096
|  5> end
|  6> *xyz  0  1
|  7>     C       14.9014050   16.2185383   17.3231794
|  8>     C       15.6009162   14.8989867   16.9373763
|  9>     O       16.8271199   15.0110737   16.1668413
| 10>     C       17.9780267   15.7133631   16.4426172
| 11>     O       19.0559348   15.2088900   16.1887937
| 12>     C       17.9043350   16.8764802   17.3660640
| 13>     C       17.4250558   18.0732875   16.9598368
| 14>     C       16.8978117   18.4150571   15.5829274
| 15>     N       17.4643296   19.1677018   17.8259609
| 16>     C       18.0263320   19.1516934   19.0764933
| 17>     S       18.0387238   20.4952832   20.0401733
| 18>     N       18.5763941   17.9636796   19.4938077
| 19>     C       18.5659435   16.6979160   18.7324054
| 20>     C       17.9213815   15.5593024   19.5196505
| 21>     C       18.4244744   14.2510249   19.3938255
| 22>     C       17.8302362   13.1835368   20.0868089
| 23>     C       16.7211719   13.4238540   20.9150888
| 24>     C       16.2155333   14.7241435   21.0439287
| 25>     O       15.1376118   14.9584303   21.8333619
| 26>     C       16.8085272   15.7850825   20.3521352
| 27>     H       15.4182052   16.7496630   18.1271880
| 28>     H       13.8945482   15.9973758   17.6981703
| 29>     H       14.7844868   16.8741585   16.4541851
| 30>     H       15.8101775   14.3363234   17.8569676
| 31>     H       14.8933563   14.2956778   16.3540838
| 32>     H       16.6701995   17.5215969   14.9888667
| 33>     H       17.6406968   18.9959423   15.0216287
| 34>     H       15.9777042   19.0092554   15.6426119
| 35>     H       17.0884703   20.0549067   17.5300247
| 36>     H       18.9706517   17.9801243   20.4260504
| 37>     H       19.6140715   16.4183297   18.5484698
| 38>     H       19.2744249   14.0586035   18.7416688
| 39>     H       18.2284614   12.1760771   19.9763361
| 40>     H       16.2582671   12.6015264   21.4508748
| 41>     H       14.9092552   14.1240878   22.2708073
| 42>     H       16.3927588   16.7810262   20.4647897
| 43> *
| 44> 
| 45>                          ****END OF INPUT****
================================================================================

                       ****************************
                       * Single Point Calculation *
                       ****************************

---------------------------------
CARTESIAN COORDINATES (ANGSTROEM)
---------------------------------
  C     14.901405   16.218538   17.323179
  C     15.600916   14.898987   16.937376
  O     16.827120   15.011074   16.166841
  C     17.978027   15.713363   16.442617
  O     19.055935   15.208890   16.188794
  C     17.904335   16.876480   17.366064
  C     17.425056   18.073287   16.959837
  C     16.897812   18.415057   15.582927
  N     17.464330   19.167702   17.825961
  C     18.026332   19.151693   19.076493
  S     18.038724   20.495283   20.040173
  N     18.576394   17.963680   19.493808
  C     18.565943   16.697916   18.732405
  C     17.921381   15.559302   19.519651
  C     18.424474   14.251025   19.393825
  C     17.830236   13.183537   20.086809
  C     16.721172   13.423854   20.915089
  C     16.215533   14.724143   21.043929
  O     15.137612   14.958430   21.833362
  C     16.808527   15.785082   20.352135
  H     15.418205   16.749663   18.127188
  H     13.894548   15.997376   17.698170
  H     14.784487   16.874159   16.454185
  H     15.810177   14.336323   17.856968
  H     14.893356   14.295678   16.354084
  H     16.670199   17.521597   14.988867
  H     17.640697   18.995942   15.021629
  H     15.977704   19.009255   15.642612
  H     17.088470   20.054907   17.530025
  H     18.970652   17.980124   20.426050
  H     19.614071   16.418330   18.548470
  H     19.274425   14.058604   18.741669
  H     18.228461   12.176077   19.976336
  H     16.258267   12.601526   21.450875
  H     14.909255   14.124088   22.270807
  H     16.392759   16.781026   20.464790

----------------------------
CARTESIAN COORDINATES (A.U.)
----------------------------
  NO LB      ZA    FRAG     MASS         X           Y           Z
   0 C     6.0000    0    12.011   28.159574   30.648596   32.736065
   1 C     6.0000    0    12.011   29.481459   28.155005   32.007003
   2 O     8.0000    0    15.999   31.798648   28.366818   30.550903
   3 C     6.0000    0    12.011   33.973547   29.693953   31.072043
   4 O     8.0000    0    15.999   36.010498   28.740637   30.592387
   5 C     6.0000    0    12.011   33.834290   31.891926   32.817105
   6 C     6.0000    0    12.011   32.928583   34.153564   32.049447
   7 C     6.0000    0    12.011   31.932236   34.799415   29.447465
   8 N     7.0000    0    14.007   33.002800   36.221707   33.686184
   9 C     6.0000    0    12.011   34.064831   36.191456   36.049348
  10 S    16.0000    0    32.060   34.088248   38.730472   37.870439
  11 N     7.0000    0    14.007   35.104297   33.946435   36.837958
  12 C     6.0000    0    12.011   35.084549   31.554488   35.399116
  13 C     6.0000    0    12.011   33.866503   29.402820   36.886794
  14 C     6.0000    0    12.011   34.817211   26.930534   36.649019
  15 C     6.0000    0    12.011   33.694263   24.913274   37.958568
  16 C     6.0000    0    12.011   31.598436   25.367408   39.523790
  17 C     6.0000    0    12.011   30.642917   27.824599   39.767262
  18 O     8.0000    0    15.999   28.605941   28.267337   41.259075
  19 C     6.0000    0    12.011   31.763513   29.829483   38.459962
  20 H     1.0000    0     1.008   29.136185   31.652276   34.255421
  21 H     1.0000    0     1.008   26.256891   30.230659   33.444695
  22 H     1.0000    0     1.008   27.938631   31.887538   31.093904
  23 H     1.0000    0     1.008   29.876906   27.091725   33.744778
  24 H     1.0000    0     1.008   28.144365   27.014916   30.904740
  25 H     1.0000    0     1.008   31.502112   33.111020   28.324853
  26 H     1.0000    0     1.008   33.336086   35.897129   28.386764
  27 H     1.0000    0     1.008   30.193485   35.922287   29.560253
  28 H     1.0000    0     1.008   32.292529   37.898281   33.126946
  29 H     1.0000    0     1.008   35.849336   33.977511   38.599641
  30 H     1.0000    0     1.008   37.065224   31.026147   35.051528
  31 H     1.0000    0     1.008   36.423384   26.566910   35.416621
  32 H     1.0000    0     1.008   34.446800   23.009451   37.749804
  33 H     1.0000    0     1.008   30.723672   23.813434   40.536279
  34 H     1.0000    0     1.008   28.174409   26.690658   42.085727
  35 H     1.0000    0     1.008   30.977825   31.711544   38.672848

--------------------------------
INTERNAL COORDINATES (ANGSTROEM)
--------------------------------
 C      0   0   0     0.000000000000     0.00000000     0.00000000
 C      1   0   0     1.542522731099     0.00000000     0.00000000
 O      2   1   0     1.452536813884   116.71094327     0.00000000
 C      3   2   1     1.376171940805   129.72272503    54.93972974
 O      4   3   2     1.216883457781   119.17247045   140.06050414
 C      4   3   2     1.486951864517   118.82823878   336.74265451
 C      6   4   3     1.351694049297   121.56838909   282.16935370
 C      7   6   4     1.513496711684   126.64606013     0.66662089
 N      7   6   4     1.396229224738   119.84235302   184.77547173
 C      9   7   6     1.371106943286   124.62181608     3.45483309
 S     10   9   7     1.653501209486   121.67795042   179.69439423
 N     10   9   7     1.374080205554   116.81912902   359.51270036
 C     12  10   9     1.477159493274   125.55475167   357.51473436
 C     13  12  10     1.526976080174   112.09821364   236.72812045
 C     14  13  12     1.407311057891   119.74871578   215.67388380
 C     15  14  13     1.404590999066   120.74149368   181.32398398
 C     16  15  14     1.404928315216   119.65935049     0.00000000
 C     17  16  15     1.401079190286   119.85810488     0.02721639
 O     18  17  16     1.356469624459   120.03931652   179.41727136
 C     18  17  16     1.398503333496   120.36701957     0.00000000
 H      1   2   3     1.093437571398   112.64987954   285.44253845
 H      1   2   3     1.096946508356   109.22442727   167.58476068
 H      1   2   3     1.094832775163   111.23407906    49.57693462
 H      2   1   3     1.098193261626   108.37708171   123.23270219
 H      2   1   3     1.097657861751   108.10575383   238.44097766
 H      8   7   6     1.096807438823   112.40130978    16.19343560
 H      8   7   6     1.097434334255   110.42720812   256.61704049
 H      8   7   6     1.096919172419   111.40954803   136.60986288
 H      9   7   6     1.007958819819   119.82246220   181.33830107
 H     12  10   9     1.012317111887   114.93202171   180.87865357
 H     13  12  10     1.100260473015   107.28796459   119.07333380
 H     15  14  13     1.088462313993   119.80582107     0.42410707
 H     16  15  14     1.088927268728   119.89218220   179.76435286
 H     17  16  15     1.085159054416   119.88147759   179.90027176
 H     19  18  17     0.969346492257   107.52806481     4.39816488
 H     20  18  17     1.085107484251   118.84653412   179.59906276

---------------------------
INTERNAL COORDINATES (A.U.)
---------------------------
 C      0   0   0     0.000000000000     0.00000000     0.00000000
 C      1   0   0     2.914945517126     0.00000000     0.00000000
 O      2   1   0     2.744896777679   116.71094327     0.00000000
 C      3   2   1     2.600588081309   129.72272503    54.93972974
 O      4   3   2     2.299576472106   119.17247045   140.06050414
 C      4   3   2     2.809931798261   118.82823878   336.74265451
 C      6   4   3     2.554331570023   121.56838909   282.16935370
 C      7   6   4     2.860094289673   126.64606013     0.66662089
 N      7   6   4     2.638490854932   119.84235302   184.77547173
 C      9   7   6     2.591016623128   124.62181608     3.45483309
 S     10   9   7     3.124664448036   121.67795042   179.69439423
 N     10   9   7     2.596635274539   116.81912902   359.51270036
 C     12  10   9     2.791426898410   125.55475167   357.51473436
 C     13  12  10     2.885566604577   112.09821364   236.72812045
 C     14  13  12     2.659432484653   119.74871578   215.67388380
 C     15  14  13     2.654292318405   120.74149368   181.32398398
 C     16  15  14     2.654929753549   119.65935049     0.00000000
 C     17  16  15     2.647655961577   119.85810488     0.02721639
 O     18  17  16     2.563356099210   120.03931652   179.41727136
 C     18  17  16     2.642788297684   120.36701957     0.00000000
 H      1   2   3     2.066297554482   112.64987954   285.44253845
 H      1   2   3     2.072928484355   109.22442727   167.58476068
 H      1   2   3     2.068934107500   111.23407906    49.57693462
 H      2   1   3     2.075284506590   108.37708171   123.23270219
 H      2   1   3     2.074272747455   108.10575383   238.44097766
 H      8   7   6     2.072665681023   112.40130978    16.19343560
 H      8   7   6     2.073850341705   110.42720812   256.61704049
 H      8   7   6     2.072876826919   111.40954803   136.60986288
 H      9   7   6     1.904766123728   119.82246220   181.33830107
 H     12  10   9     1.913002102148   114.93202171   180.87865357
 H     13  12  10     2.079190969977   107.28796459   119.07333380
 H     15  14  13     2.056895680541   119.80582107     0.42410707
 H     16  15  14     2.057774317654   119.89218220   179.76435286
 H     17  16  15     2.050653424591   119.88147759   179.90027176
 H     19  18  17     1.831799399243   107.52806481     4.39816488
 H     20  18  17     2.050555971103   118.84653412   179.59906276

---------------------
BASIS SET INFORMATION
---------------------
There are 5 groups of distinct atoms

 Group   1 Type C   : 18s5p2d1f contracted to 4s3p2d1f pattern {8811/311/11/1}
 Group   2 Type O   : 18s5p2d1f contracted to 4s3p2d1f pattern {8811/311/11/1}
 Group   3 Type N   : 18s5p2d1f contracted to 4s3p2d1f pattern {8811/311/11/1}
 Group   4 Type S   : 41s16p2d1f contracted to 5s4p2d1f pattern {13131311/7711/11/1}
 Group   5 Type H   : 5s2p1d contracted to 3s2p1d pattern {311/11/1}

Atom   0C    basis set group =>   1
Atom   1C    basis set group =>   1
Atom   2O    basis set group =>   2
Atom   3C    basis set group =>   1
Atom   4O    basis set group =>   2
Atom   5C    basis set group =>   1
Atom   6C    basis set group =>   1
Atom   7C    basis set group =>   1
Atom   8N    basis set group =>   3
Atom   9C    basis set group =>   1
Atom  10S    basis set group =>   4
Atom  11N    basis set group =>   3
Atom  12C    basis set group =>   1
Atom  13C    basis set group =>   1
Atom  14C    basis set group =>   1
Atom  15C    basis set group =>   1
Atom  16C    basis set group =>   1
Atom  17C    basis set group =>   1
Atom  18O    basis set group =>   2
Atom  19C    basis set group =>   1
Atom  20H    basis set group =>   5
Atom  21H    basis set group =>   5
Atom  22H    basis set group =>   5
Atom  23H    basis set group =>   5
Atom  24H    basis set group =>   5
Atom  25H    basis set group =>   5
Atom  26H    basis set group =>   5
Atom  27H    basis set group =>   5
Atom  28H    basis set group =>   5
Atom  29H    basis set group =>   5
Atom  30H    basis set group =>   5
Atom  31H    basis set group =>   5
Atom  32H    basis set group =>   5
Atom  33H    basis set group =>   5
Atom  34H    basis set group =>   5
Atom  35H    basis set group =>   5
---------------------------------
AUXILIARY/C BASIS SET INFORMATION
---------------------------------
There are 5 groups of distinct atoms

 Group   1 Type C   : 8s6p5d3f1g contracted to 8s6p5d3f1g pattern {11111111/111111/11111/111/1}
 Group   2 Type O   : 8s6p5d3f1g contracted to 8s6p5d3f1g pattern {11111111/111111/11111/111/1}
 Group   3 Type N   : 8s6p5d3f1g contracted to 8s6p5d3f1g pattern {11111111/111111/11111/111/1}
 Group   4 Type S   : 10s8p7d5f2g contracted to 10s8p7d5f2g pattern {1111111111/11111111/1111111/11111/11}
 Group   5 Type H   : 4s3p2d1f contracted to 4s3p2d1f pattern {1111/111/11/1}

Atom   0C    basis set group =>   1
Atom   1C    basis set group =>   1
Atom   2O    basis set group =>   2
Atom   3C    basis set group =>   1
Atom   4O    basis set group =>   2
Atom   5C    basis set group =>   1
Atom   6C    basis set group =>   1
Atom   7C    basis set group =>   1
Atom   8N    basis set group =>   3
Atom   9C    basis set group =>   1
Atom  10S    basis set group =>   4
Atom  11N    basis set group =>   3
Atom  12C    basis set group =>   1
Atom  13C    basis set group =>   1
Atom  14C    basis set group =>   1
Atom  15C    basis set group =>   1
Atom  16C    basis set group =>   1
Atom  17C    basis set group =>   1
Atom  18O    basis set group =>   2
Atom  19C    basis set group =>   1
Atom  20H    basis set group =>   5
Atom  21H    basis set group =>   5
Atom  22H    basis set group =>   5
Atom  23H    basis set group =>   5
Atom  24H    basis set group =>   5
Atom  25H    basis set group =>   5
Atom  26H    basis set group =>   5
Atom  27H    basis set group =>   5
Atom  28H    basis set group =>   5
Atom  29H    basis set group =>   5
Atom  30H    basis set group =>   5
Atom  31H    basis set group =>   5
Atom  32H    basis set group =>   5
Atom  33H    basis set group =>   5
Atom  34H    basis set group =>   5
Atom  35H    basis set group =>   5
------------------------------------------------------------------------------
                           ORCA GTO INTEGRAL CALCULATION
------------------------------------------------------------------------------

                         BASIS SET STATISTICS AND STARTUP INFO

 # of primitive gaussian shells          ...  682
 # of primitive gaussian functions       ... 1312
 # of contracted shells                  ...  298
 # of contracted basis functions         ...  828
 Highest angular momentum                ...    3
 Maximum contraction depth               ...   13
 Integral package used                   ... LIBINT
 Integral threshhold            Thresh   ...  2.500e-11
 Primitive cut-off              TCut     ...  2.500e-12


------------------------------ INTEGRAL EVALUATION ----------------------------


 * One electron integrals 
 Pre-screening matrix                    ... done
 Shell pair data                         ... done (   0.015 sec)

-------------------------------------------------------------------------------
                                 ORCA SCF
-------------------------------------------------------------------------------

------------
SCF SETTINGS
------------
Hamiltonian:
 Ab initio Hamiltonian  Method          .... Hartree-Fock(GTOs)


General Settings:
 Integral files         IntName         .... CONFS/Conf603.orca
 Hartree-Fock type      HFTyp           .... RHF
 Total Charge           Charge          ....    0
 Multiplicity           Mult            ....    1
 Number of Electrons    NEL             ....  154
 Basis Dimension        Dim             ....  828
 Nuclear Repulsion      ENuc            ....   1742.7058270360 Eh

Convergence Acceleration:
 DIIS                   CNVDIIS         .... on
   Start iteration      DIISMaxIt       ....    12
   Startup error        DIISStart       ....  0.200000
   # of expansion vecs  DIISMaxEq       ....     5
   Bias factor          DIISBfac        ....   1.050
   Max. coefficient     DIISMaxC        ....  10.000
 Newton-Raphson         CNVNR           .... off
 SOSCF                  CNVSOSCF        .... on
   Start iteration      SOSCFMaxIt      ....   150
   Startup grad/error   SOSCFStart      ....  0.003300
 Level Shifting         CNVShift        .... on
   Level shift para.    LevelShift      ....    0.2500
   Turn off err/grad.   ShiftErr        ....    0.0010
 Zerner damping         CNVZerner       .... off
 Static damping         CNVDamp         .... on
   Fraction old density DampFac         ....    0.7000
   Max. Damping (<1)    DampMax         ....    0.9800
   Min. Damping (>=0)   DampMin         ....    0.0000
   Turn off err/grad.   DampErr         ....    0.1000
 Fernandez-Rico         CNVRico         .... off

SCF Procedure:
 Maximum # iterations   MaxIter         ....   125
 SCF integral mode      SCFMode         .... Direct
   Integral package                     .... LIBINT
 Reset frequency        DirectResetFreq ....    20
 Integral Threshold     Thresh          ....  2.500e-11 Eh
 Primitive CutOff       TCut            ....  2.500e-12 Eh

Convergence Tolerance:
 Convergence Check Mode ConvCheckMode   .... Total+1el-Energy
 Convergence forced     ConvForced      .... 1
 Energy Change          TolE            ....  1.000e-08 Eh
 1-El. energy change                    ....  1.000e-05 Eh
 Orbital Gradient       TolG            ....  1.000e-05
 Orbital Rotation angle TolX            ....  1.000e-05
 DIIS Error             TolErr          ....  5.000e-07


Diagonalization of the overlap matrix:
Smallest eigenvalue                        ... 3.270e-05
Time for diagonalization                   ...    0.135 sec
Threshold for overlap eigenvalues          ... 1.000e-08
Number of eigenvalues below threshold      ... 0
Time for construction of square roots      ...    0.240 sec
Total time needed                          ...    0.379 sec

-------------------
DFT GRID GENERATION
-------------------

General Integration Accuracy     IntAcc      ...  4.340
Radial Grid Type                 RadialGrid  ... Gauss-Chebyshev
Angular Grid (max. acc.)         AngularGrid ... Lebedev-110
Angular grid pruning method      GridPruning ... 3 (G Style)
Weight generation scheme         WeightScheme... Becke
Basis function cutoff            BFCut       ...    1.0000e-11
Integration weight cutoff        WCut        ...    1.0000e-14
Grids for H and He will be reduced by one unit

# of grid points (after initial pruning)     ...  46246 (   0.0 sec)
# of grid points (after weights+screening)   ...  41069 (   0.3 sec)
nearest neighbour list constructed           ...    0.0 sec
Grid point re-assignment to atoms done       ...    0.0 sec
Grid point division into batches done        ...    0.0 sec
Reduced shell lists constructed in    1.3 sec

Total number of grid points                  ...    41069
Total number of batches                      ...      661
Average number of points per batch           ...       62
Average number of grid points per atom       ...     1141
Average number of shells per batch           ...   157.77 (52.94%)
Average number of basis functions per batch  ...   402.50 (48.61%)
Average number of large shells per batch     ...   101.95 (64.62%)
Average number of large basis fcns per batch ...   259.87 (64.56%)
Maximum spatial batch extension              ...  19.89, 20.28, 21.43 au
Average spatial batch extension              ...   3.48,  3.48,  3.35 au

Time for grid setup =    1.657 sec

------------------------------
INITIAL GUESS: MODEL POTENTIAL
------------------------------
Loading Hartree-Fock densities                     ... done
Calculating cut-offs                               ... done
Setting up the integral package                    ... done
Initializing the effective Hamiltonian             ... done
Starting the Coulomb interaction                   ... done (   3.4 sec)
Reading the grid                                   ... done
Mapping shells                                     ... done
Starting the XC term evaluation                    ... done (   1.6 sec)
Transforming the Hamiltonian                       ... done (   0.1 sec)
Diagonalizing the Hamiltonian                      ... done (   0.1 sec)
Back transforming the eigenvectors                 ... done (   0.0 sec)
Now organizing SCF variables                       ... done
                      ------------------
                      INITIAL GUESS DONE (   7.2 sec)
                      ------------------
--------------
SCF ITERATIONS
--------------
ITER       Energy         Delta-E        Max-DP      RMS-DP      [F,P]     Damp
               ***  Starting incremental Fock matrix formation  ***
  0  -1269.9939102907   0.000000000000 0.04929871  0.00045232  0.3112784 0.7000
  1  -1270.2581721673  -0.264261876587 0.03608784  0.00036811  0.1847351 0.7000
                               ***Turning on DIIS***
  2  -1270.4231540431  -0.164981875747 0.02585725  0.00024596  0.1097469 0.7000
  3  -1272.5443861936  -2.121232150496 0.06325682  0.00053034  0.0828969 0.0000
  4  -1270.7326653802   1.811720813419 0.01256855  0.00010346  0.0068783 0.0000
  5  -1270.7864498368  -0.053784456607 0.00596804  0.00005300  0.0039654 0.0000
                      *** Initiating the SOSCF procedure ***
                           *** Shutting down DIIS ***
                      *** Re-Reading the Fockian *** 
                      *** Removing any level shift *** 
ITER      Energy       Delta-E        Grad      Rot      Max-DP    RMS-DP
  6  -1270.76650170   0.0199481404  0.001262  0.001262  0.002770  0.000027
               *** Restarting incremental Fock matrix formation ***
  7  -1270.78202266  -0.0155209622  0.000710  0.001743  0.001484  0.000017
  8  -1270.78206555  -0.0000428958  0.000369  0.001988  0.001577  0.000018
  9  -1270.78208217  -0.0000166204  0.000109  0.000214  0.000408  0.000005
 10  -1270.78208430  -0.0000021211  0.000033  0.000089  0.000142  0.000001
 11  -1270.78208448  -0.0000001859  0.000018  0.000078  0.000094  0.000001
 12  -1270.78208454  -0.0000000552  0.000007  0.000028  0.000030  0.000000
 13  -1270.78208454  -0.0000000079  0.000003  0.000010  0.000007  0.000000
                  ***Gradient check signals convergence***
              ***Rediagonalizing the Fockian in SOSCF/NRSCF***

               *****************************************************
               *                     SUCCESS                       *
               *           SCF CONVERGED AFTER  14 CYCLES          *
               *****************************************************


----------------
TOTAL SCF ENERGY
----------------

Total Energy       :        -1270.78208454 Eh          -34579.73852 eV

Components:
Nuclear Repulsion  :         1742.70582704 Eh           47421.43641 eV
Electronic Energy  :        -3013.48791157 Eh          -82001.17493 eV
One Electron Energy:        -5205.98641426 Eh         -141662.09229 eV
Two Electron Energy:         2192.49850269 Eh           59660.91736 eV

Virial components:
Potential Energy   :        -2539.75342438 Eh          -69110.20417 eV
Kinetic Energy     :         1268.97133984 Eh           34530.46565 eV
Virial Ratio       :            2.00142694


---------------
SCF CONVERGENCE
---------------

  Last Energy change         ...    8.9622e-09  Tolerance :   1.0000e-08
  Last MAX-Density change    ...    3.8165e-06  Tolerance :   1.0000e-07
  Last RMS-Density change    ...    3.9246e-08  Tolerance :   5.0000e-09
  Last Orbital Gradient      ...    1.5202e-06  Tolerance :   1.0000e-05
  Last Orbital Rotation      ...    3.9559e-06  Tolerance :   1.0000e-05

             **** THE GBW FILE WAS UPDATED (CONFS/Conf603.orca.gbw) ****
             **** DENSITY FILE WAS UPDATED (CONFS/Conf603.orca.scfp) ****
             **** ENERGY FILE WAS UPDATED (CONFS/Conf603.orca.en.tmp) ****
             **** THE GBW FILE WAS UPDATED (CONFS/Conf603.orca.gbw) ****
             **** DENSITY FILE WAS UPDATED (CONFS/Conf603.orca.scfp) ****
----------------
ORBITAL ENERGIES
----------------

  NO   OCC          E(Eh)            E(eV) 
   0   2.0000     -91.890160     -2500.4584 
   1   2.0000     -20.602677      -560.6273 
   2   2.0000     -20.593282      -560.3717 
   3   2.0000     -20.550928      -559.2192 
   4   2.0000     -15.626083      -425.2073 
   5   2.0000     -15.612622      -424.8411 
   6   2.0000     -11.398293      -310.1633 
   7   2.0000     -11.387223      -309.8621 
   8   2.0000     -11.325505      -308.1827 
   9   2.0000     -11.320164      -308.0373 
  10   2.0000     -11.316936      -307.9495 
  11   2.0000     -11.306703      -307.6710 
  12   2.0000     -11.267749      -306.6110 
  13   2.0000     -11.265447      -306.5484 
  14   2.0000     -11.261004      -306.4275 
  15   2.0000     -11.260281      -306.4078 
  16   2.0000     -11.249430      -306.1125 
  17   2.0000     -11.245372      -306.0021 
  18   2.0000     -11.242244      -305.9170 
  19   2.0000     -11.234021      -305.6933 
  20   2.0000      -8.895275      -242.0527 
  21   2.0000      -6.576864      -178.9656 
  22   2.0000      -6.574837      -178.9104 
  23   2.0000      -6.574262      -178.8948 
  24   2.0000      -1.442111       -39.2418 
  25   2.0000      -1.422502       -38.7082 
  26   2.0000      -1.354504       -36.8579 
  27   2.0000      -1.339521       -36.4502 
  28   2.0000      -1.240093       -33.7446 
  29   2.0000      -1.164226       -31.6802 
  30   2.0000      -1.125906       -30.6375 
  31   2.0000      -1.050505       -28.5857 
  32   2.0000      -1.038215       -28.2513 
  33   2.0000      -1.022089       -27.8124 
  34   2.0000      -1.005303       -27.3557 
  35   2.0000      -0.990793       -26.9608 
  36   2.0000      -0.928896       -25.2766 
  37   2.0000      -0.897374       -24.4188 
  38   2.0000      -0.852734       -23.2041 
  39   2.0000      -0.842711       -22.9313 
  40   2.0000      -0.839468       -22.8431 
  41   2.0000      -0.831298       -22.6208 
  42   2.0000      -0.749811       -20.4034 
  43   2.0000      -0.735823       -20.0228 
  44   2.0000      -0.729093       -19.8396 
  45   2.0000      -0.700391       -19.0586 
  46   2.0000      -0.689153       -18.7528 
  47   2.0000      -0.677895       -18.4465 
  48   2.0000      -0.675629       -18.3848 
  49   2.0000      -0.662372       -18.0241 
  50   2.0000      -0.655977       -17.8500 
  51   2.0000      -0.648276       -17.6405 
  52   2.0000      -0.640042       -17.4164 
  53   2.0000      -0.614898       -16.7322 
  54   2.0000      -0.608558       -16.5597 
  55   2.0000      -0.606786       -16.5115 
  56   2.0000      -0.603182       -16.4134 
  57   2.0000      -0.591551       -16.0969 
  58   2.0000      -0.581944       -15.8355 
  59   2.0000      -0.578587       -15.7442 
  60   2.0000      -0.567660       -15.4468 
  61   2.0000      -0.556897       -15.1539 
  62   2.0000      -0.540220       -14.7001 
  63   2.0000      -0.533119       -14.5069 
  64   2.0000      -0.522219       -14.2103 
  65   2.0000      -0.514598       -14.0029 
  66   2.0000      -0.504315       -13.7231 
  67   2.0000      -0.497862       -13.5475 
  68   2.0000      -0.488843       -13.3021 
  69   2.0000      -0.465253       -12.6602 
  70   2.0000      -0.454755       -12.3745 
  71   2.0000      -0.447894       -12.1878 
  72   2.0000      -0.355980        -9.6867 
  73   2.0000      -0.352867        -9.6020 
  74   2.0000      -0.329975        -8.9791 
  75   2.0000      -0.328028        -8.9261 
  76   2.0000      -0.318626        -8.6703 
  77   0.0000       0.089514         2.4358 
  78   0.0000       0.102591         2.7916 
  79   0.0000       0.118703         3.2301 
  80   0.0000       0.124178         3.3790 
  81   0.0000       0.127858         3.4792 
  82   0.0000       0.141118         3.8400 
  83   0.0000       0.149580         4.0703 
  84   0.0000       0.154810         4.2126 
  85   0.0000       0.156908         4.2697 
  86   0.0000       0.170076         4.6280 
  87   0.0000       0.172240         4.6869 
  88   0.0000       0.178695         4.8626 
  89   0.0000       0.192702         5.2437 
  90   0.0000       0.200243         5.4489 
  91   0.0000       0.203845         5.5469 
  92   0.0000       0.216214         5.8835 
  93   0.0000       0.218926         5.9573 
  94   0.0000       0.223538         6.0828 
  95   0.0000       0.234235         6.3739 
  96   0.0000       0.242512         6.5991 
  97   0.0000       0.247807         6.7432 
  98   0.0000       0.261810         7.1242 
  99   0.0000       0.276207         7.5160 
 100   0.0000       0.288518         7.8510 
 101   0.0000       0.298120         8.1123 
 102   0.0000       0.307851         8.3770 
 103   0.0000       0.323462         8.8018 
 104   0.0000       0.330107         8.9827 
 105   0.0000       0.337622         9.1872 
 106   0.0000       0.342744         9.3265 
 107   0.0000       0.346270         9.4225 
 108   0.0000       0.347969         9.4687 
 109   0.0000       0.366146         9.9633 
 110   0.0000       0.372019        10.1231 
 111   0.0000       0.378366        10.2959 
 112   0.0000       0.385500        10.4900 
 113   0.0000       0.388250        10.5648 
 114   0.0000       0.400250        10.8914 
 115   0.0000       0.404167        10.9979 
 116   0.0000       0.417441        11.3591 
 117   0.0000       0.419373        11.4117 
 118   0.0000       0.432375        11.7655 
 119   0.0000       0.434563        11.8251 
 120   0.0000       0.446205        12.1418 
 121   0.0000       0.448161        12.1951 
 122   0.0000       0.457228        12.4418 
 123   0.0000       0.461156        12.5487 
 124   0.0000       0.470529        12.8038 
 125   0.0000       0.474366        12.9081 
 126   0.0000       0.477249        12.9866 
 127   0.0000       0.479858        13.0576 
 128   0.0000       0.489329        13.3153 
 129   0.0000       0.499732        13.5984 
 130   0.0000       0.502003        13.6602 
 131   0.0000       0.505046        13.7430 
 132   0.0000       0.509104        13.8534 
 133   0.0000       0.519389        14.1333 
 134   0.0000       0.522930        14.2296 
 135   0.0000       0.531927        14.4745 
 136   0.0000       0.534054        14.5324 
 137   0.0000       0.538336        14.6489 
 138   0.0000       0.548225        14.9180 
 139   0.0000       0.553337        15.0571 
 140   0.0000       0.555556        15.1175 
 141   0.0000       0.559610        15.2278 
 142   0.0000       0.565357        15.3841 
 143   0.0000       0.573889        15.6163 
 144   0.0000       0.576201        15.6792 
 145   0.0000       0.578349        15.7377 
 146   0.0000       0.582323        15.8458 
 147   0.0000       0.586174        15.9506 
 148   0.0000       0.588957        16.0263 
 149   0.0000       0.595691        16.2096 
 150   0.0000       0.599688        16.3183 
 151   0.0000       0.603553        16.4235 
 152   0.0000       0.606477        16.5031 
 153   0.0000       0.612236        16.6598 
 154   0.0000       0.616064        16.7639 
 155   0.0000       0.624603        16.9963 
 156   0.0000       0.632384        17.2080 
 157   0.0000       0.635125        17.2826 
 158   0.0000       0.638937        17.3864 
 159   0.0000       0.647381        17.6161 
 160   0.0000       0.650920        17.7124 
 161   0.0000       0.659095        17.9349 
 162   0.0000       0.665708        18.1148 
 163   0.0000       0.667520        18.1641 
 164   0.0000       0.676781        18.4161 
 165   0.0000       0.682700        18.5772 
 166   0.0000       0.688507        18.7352 
 167   0.0000       0.694457        18.8971 
 168   0.0000       0.699395        19.0315 
 169   0.0000       0.703622        19.1465 
 170   0.0000       0.706989        19.2382 
 171   0.0000       0.718535        19.5523 
 172   0.0000       0.724001        19.7011 
 173   0.0000       0.728257        19.8169 
 174   0.0000       0.731483        19.9047 
 175   0.0000       0.747358        20.3366 
 176   0.0000       0.748728        20.3739 
 177   0.0000       0.751395        20.4465 
 178   0.0000       0.759999        20.6806 
 179   0.0000       0.771536        20.9946 
 180   0.0000       0.772780        21.0284 
 181   0.0000       0.779873        21.2214 
 182   0.0000       0.795577        21.6487 
 183   0.0000       0.798761        21.7354 
 184   0.0000       0.809946        22.0397 
 185   0.0000       0.813938        22.1484 
 186   0.0000       0.823676        22.4134 
 187   0.0000       0.830036        22.5864 
 188   0.0000       0.843469        22.9520 
 189   0.0000       0.848387        23.0858 
 190   0.0000       0.852928        23.2094 
 191   0.0000       0.861674        23.4473 
 192   0.0000       0.863842        23.5063 
 193   0.0000       0.871635        23.7184 
 194   0.0000       0.879939        23.9444 
 195   0.0000       0.883505        24.0414 
 196   0.0000       0.886490        24.1226 
 197   0.0000       0.898340        24.4451 
 198   0.0000       0.900400        24.5011 
 199   0.0000       0.907632        24.6979 
 200   0.0000       0.916378        24.9359 
 201   0.0000       0.920856        25.0578 
 202   0.0000       0.927651        25.2427 
 203   0.0000       0.938164        25.5288 
 204   0.0000       0.947173        25.7739 
 205   0.0000       0.949301        25.8318 
 206   0.0000       0.959026        26.0964 
 207   0.0000       0.973235        26.4831 
 208   0.0000       0.978551        26.6277 
 209   0.0000       0.984891        26.8002 
 210   0.0000       0.991309        26.9749 
 211   0.0000       0.991700        26.9855 
 212   0.0000       0.998278        27.1645 
 213   0.0000       1.007730        27.4217 
 214   0.0000       1.010613        27.5002 
 215   0.0000       1.022034        27.8110 
 216   0.0000       1.025133        27.8953 
 217   0.0000       1.034713        28.1560 
 218   0.0000       1.038713        28.2648 
 219   0.0000       1.044663        28.4267 
 220   0.0000       1.052764        28.6472 
 221   0.0000       1.064560        28.9681 
 222   0.0000       1.069931        29.1143 
 223   0.0000       1.082288        29.4506 
 224   0.0000       1.085000        29.5243 
 225   0.0000       1.090396        29.6712 
 226   0.0000       1.099549        29.9202 
 227   0.0000       1.111102        30.2346 
 228   0.0000       1.116830        30.3905 
 229   0.0000       1.125855        30.6361 
 230   0.0000       1.131029        30.7769 
 231   0.0000       1.138632        30.9838 
 232   0.0000       1.146723        31.2039 
 233   0.0000       1.154015        31.4024 
 234   0.0000       1.158977        31.5374 
 235   0.0000       1.168885        31.8070 
 236   0.0000       1.174588        31.9622 
 237   0.0000       1.190476        32.3945 
 238   0.0000       1.192357        32.4457 
 239   0.0000       1.204865        32.7860 
 240   0.0000       1.205631        32.8069 
 241   0.0000       1.212173        32.9849 
 242   0.0000       1.215065        33.0636 
 243   0.0000       1.227159        33.3927 
 244   0.0000       1.237999        33.6877 
 245   0.0000       1.239488        33.7282 
 246   0.0000       1.247305        33.9409 
 247   0.0000       1.252853        34.0919 
 248   0.0000       1.260266        34.2936 
 249   0.0000       1.266294        34.4576 
 250   0.0000       1.275650        34.7122 
 251   0.0000       1.286337        35.0030 
 252   0.0000       1.294379        35.2218 
 253   0.0000       1.301894        35.4263 
 254   0.0000       1.309084        35.6220 
 255   0.0000       1.318817        35.8868 
 256   0.0000       1.323050        36.0020 
 257   0.0000       1.328292        36.1447 
 258   0.0000       1.338282        36.4165 
 259   0.0000       1.345320        36.6080 
 260   0.0000       1.349203        36.7137 
 261   0.0000       1.353771        36.8380 
 262   0.0000       1.365346        37.1529 
 263   0.0000       1.370268        37.2869 
 264   0.0000       1.380582        37.5675 
 265   0.0000       1.393406        37.9165 
 266   0.0000       1.403036        38.1786 
 267   0.0000       1.410591        38.3841 
 268   0.0000       1.418358        38.5955 
 269   0.0000       1.426916        38.8283 
 270   0.0000       1.433165        38.9984 
 271   0.0000       1.445749        39.3408 
 272   0.0000       1.452111        39.5139 
 273   0.0000       1.454868        39.5890 
 274   0.0000       1.464909        39.8622 
 275   0.0000       1.468451        39.9586 
 276   0.0000       1.481905        40.3247 
 277   0.0000       1.483752        40.3750 
 278   0.0000       1.485249        40.4157 
 279   0.0000       1.494085        40.6561 
 280   0.0000       1.500731        40.8370 
 281   0.0000       1.507466        41.0202 
 282   0.0000       1.518315        41.3155 
 283   0.0000       1.528880        41.6029 
 284   0.0000       1.532858        41.7112 
 285   0.0000       1.536044        41.7979 
 286   0.0000       1.542506        41.9737 
 287   0.0000       1.551190        42.2100 
 288   0.0000       1.560800        42.4715 
 289   0.0000       1.562943        42.5298 
 290   0.0000       1.571645        42.7666 
 291   0.0000       1.578465        42.9522 
 292   0.0000       1.583863        43.0991 
 293   0.0000       1.588801        43.2335 
 294   0.0000       1.607218        43.7346 
 295   0.0000       1.612205        43.8703 
 296   0.0000       1.616743        43.9938 
 297   0.0000       1.622967        44.1632 
 298   0.0000       1.628124        44.3035 
 299   0.0000       1.639849        44.6225 
 300   0.0000       1.640230        44.6329 
 301   0.0000       1.656528        45.0764 
 302   0.0000       1.658012        45.1168 
 303   0.0000       1.663060        45.2542 
 304   0.0000       1.677843        45.6564 
 305   0.0000       1.688512        45.9467 
 306   0.0000       1.695029        46.1241 
 307   0.0000       1.696462        46.1631 
 308   0.0000       1.702008        46.3140 
 309   0.0000       1.722282        46.8657 
 310   0.0000       1.729010        47.0487 
 311   0.0000       1.743740        47.4496 
 312   0.0000       1.751566        47.6625 
 313   0.0000       1.754349        47.7383 
 314   0.0000       1.758293        47.8456 
 315   0.0000       1.772938        48.2441 
 316   0.0000       1.775835        48.3229 
 317   0.0000       1.794192        48.8225 
 318   0.0000       1.811205        49.2854 
 319   0.0000       1.814993        49.3885 
 320   0.0000       1.835092        49.9354 
 321   0.0000       1.841559        50.1114 
 322   0.0000       1.844458        50.1902 
 323   0.0000       1.858788        50.5802 
 324   0.0000       1.867962        50.8298 
 325   0.0000       1.879704        51.1493 
 326   0.0000       1.891579        51.4725 
 327   0.0000       1.907062        51.8938 
 328   0.0000       1.911047        52.0022 
 329   0.0000       1.917950        52.1901 
 330   0.0000       1.933241        52.6062 
 331   0.0000       1.942187        52.8496 
 332   0.0000       1.948462        53.0204 
 333   0.0000       1.954742        53.1912 
 334   0.0000       1.976275        53.7772 
 335   0.0000       1.981910        53.9305 
 336   0.0000       1.993584        54.2482 
 337   0.0000       2.009271        54.6751 
 338   0.0000       2.014150        54.8078 
 339   0.0000       2.024769        55.0968 
 340   0.0000       2.035375        55.3854 
 341   0.0000       2.045239        55.6538 
 342   0.0000       2.057393        55.9845 
 343   0.0000       2.082468        56.6668 
 344   0.0000       2.092794        56.9478 
 345   0.0000       2.111222        57.4493 
 346   0.0000       2.123119        57.7730 
 347   0.0000       2.145699        58.3874 
 348   0.0000       2.156576        58.6834 
 349   0.0000       2.165822        58.9350 
 350   0.0000       2.187125        59.5147 
 351   0.0000       2.195497        59.7425 
 352   0.0000       2.210614        60.1539 
 353   0.0000       2.220799        60.4310 
 354   0.0000       2.238439        60.9110 
 355   0.0000       2.263638        61.5967 
 356   0.0000       2.278193        61.9928 
 357   0.0000       2.288894        62.2840 
 358   0.0000       2.300474        62.5991 
 359   0.0000       2.303643        62.6853 
 360   0.0000       2.317256        63.0557 
 361   0.0000       2.333147        63.4882 
 362   0.0000       2.342621        63.7460 
 363   0.0000       2.355991        64.1098 
 364   0.0000       2.374441        64.6118 
 365   0.0000       2.378546        64.7235 
 366   0.0000       2.385255        64.9061 
 367   0.0000       2.396222        65.2045 
 368   0.0000       2.410804        65.6013 
 369   0.0000       2.432429        66.1898 
 370   0.0000       2.449756        66.6613 
 371   0.0000       2.460692        66.9588 
 372   0.0000       2.464825        67.0713 
 373   0.0000       2.479906        67.4817 
 374   0.0000       2.494307        67.8735 
 375   0.0000       2.503049        68.1114 
 376   0.0000       2.522169        68.6317 
 377   0.0000       2.539292        69.0976 
 378   0.0000       2.548515        69.3486 
 379   0.0000       2.564293        69.7780 
 380   0.0000       2.580405        70.2164 
 381   0.0000       2.584719        70.3338 
 382   0.0000       2.600053        70.7510 
 383   0.0000       2.602538        70.8187 
 384   0.0000       2.625039        71.4309 
 385   0.0000       2.635111        71.7050 
 386   0.0000       2.645154        71.9783 
 387   0.0000       2.655334        72.2553 
 388   0.0000       2.661684        72.4281 
 389   0.0000       2.682280        72.9885 
 390   0.0000       2.689695        73.1903 
 391   0.0000       2.708520        73.7026 
 392   0.0000       2.717073        73.9353 
 393   0.0000       2.734058        74.3975 
 394   0.0000       2.740047        74.5605 
 395   0.0000       2.748193        74.7821 
 396   0.0000       2.752339        74.8950 
 397   0.0000       2.763237        75.1915 
 398   0.0000       2.771697        75.4217 
 399   0.0000       2.788345        75.8747 
 400   0.0000       2.799926        76.1899 
 401   0.0000       2.808146        76.4135 
 402   0.0000       2.818422        76.6932 
 403   0.0000       2.819482        76.7220 
 404   0.0000       2.830847        77.0313 
 405   0.0000       2.844687        77.4079 
 406   0.0000       2.852417        77.6182 
 407   0.0000       2.865862        77.9841 
 408   0.0000       2.875356        78.2424 
 409   0.0000       2.877833        78.3098 
 410   0.0000       2.887880        78.5832 
 411   0.0000       2.899116        78.8889 
 412   0.0000       2.904294        79.0299 
 413   0.0000       2.910647        79.2027 
 414   0.0000       2.918535        79.4174 
 415   0.0000       2.931267        79.7638 
 416   0.0000       2.943396        80.0939 
 417   0.0000       2.950222        80.2796 
 418   0.0000       2.960024        80.5463 
 419   0.0000       2.963583        80.6432 
 420   0.0000       2.976149        80.9851 
 421   0.0000       2.982589        81.1604 
 422   0.0000       2.993467        81.4564 
 423   0.0000       2.999081        81.6092 
 424   0.0000       3.013227        81.9941 
 425   0.0000       3.018869        82.1476 
 426   0.0000       3.021190        82.2108 
 427   0.0000       3.026533        82.3561 
 428   0.0000       3.030229        82.4567 
 429   0.0000       3.038386        82.6787 
 430   0.0000       3.049726        82.9873 
 431   0.0000       3.056993        83.1850 
 432   0.0000       3.063906        83.3731 
 433   0.0000       3.078451        83.7689 
 434   0.0000       3.081418        83.8496 
 435   0.0000       3.086250        83.9811 
 436   0.0000       3.092319        84.1463 
 437   0.0000       3.101917        84.4075 
 438   0.0000       3.104304        84.4724 
 439   0.0000       3.117699        84.8369 
 440   0.0000       3.122371        84.9640 
 441   0.0000       3.124610        85.0250 
 442   0.0000       3.135392        85.3183 
 443   0.0000       3.140127        85.4472 
 444   0.0000       3.155905        85.8766 
 445   0.0000       3.162967        86.0687 
 446   0.0000       3.166364        86.1611 
 447   0.0000       3.179502        86.5186 
 448   0.0000       3.187616        86.7394 
 449   0.0000       3.192065        86.8605 
 450   0.0000       3.204129        87.1888 
 451   0.0000       3.214001        87.4574 
 452   0.0000       3.219968        87.6198 
 453   0.0000       3.224456        87.7419 
 454   0.0000       3.231078        87.9221 
 455   0.0000       3.241149        88.1961 
 456   0.0000       3.246133        88.3318 
 457   0.0000       3.254986        88.5727 
 458   0.0000       3.258779        88.6759 
 459   0.0000       3.266830        88.8950 
 460   0.0000       3.275155        89.1215 
 461   0.0000       3.278179        89.2038 
 462   0.0000       3.290248        89.5322 
 463   0.0000       3.293773        89.6281 
 464   0.0000       3.306277        89.9684 
 465   0.0000       3.312066        90.1259 
 466   0.0000       3.319702        90.3337 
 467   0.0000       3.332611        90.6850 
 468   0.0000       3.332863        90.6918 
 469   0.0000       3.340403        90.8970 
 470   0.0000       3.347378        91.0868 
 471   0.0000       3.349235        91.1373 
 472   0.0000       3.355410        91.3054 
 473   0.0000       3.357749        91.3690 
 474   0.0000       3.364178        91.5439 
 475   0.0000       3.371595        91.7458 
 476   0.0000       3.376889        91.8898 
 477   0.0000       3.381174        92.0064 
 478   0.0000       3.384402        92.0943 
 479   0.0000       3.391904        92.2984 
 480   0.0000       3.393597        92.3445 
 481   0.0000       3.397679        92.4556 
 482   0.0000       3.402690        92.5919 
 483   0.0000       3.406103        92.6848 
 484   0.0000       3.406867        92.7056 
 485   0.0000       3.419803        93.0576 
 486   0.0000       3.433129        93.4202 
 487   0.0000       3.435184        93.4761 
 488   0.0000       3.440651        93.6249 
 489   0.0000       3.447993        93.8247 
 490   0.0000       3.451698        93.9255 
 491   0.0000       3.454921        94.0132 
 492   0.0000       3.460430        94.1631 
 493   0.0000       3.464965        94.2865 
 494   0.0000       3.477468        94.6267 
 495   0.0000       3.486392        94.8696 
 496   0.0000       3.490048        94.9690 
 497   0.0000       3.504769        95.3696 
 498   0.0000       3.507013        95.4307 
 499   0.0000       3.519877        95.7807 
 500   0.0000       3.522500        95.8521 
 501   0.0000       3.527534        95.9891 
 502   0.0000       3.539243        96.3077 
 503   0.0000       3.545404        96.4753 
 504   0.0000       3.550115        96.6035 
 505   0.0000       3.555603        96.7529 
 506   0.0000       3.558589        96.8341 
 507   0.0000       3.571140        97.1756 
 508   0.0000       3.579243        97.3962 
 509   0.0000       3.588948        97.6602 
 510   0.0000       3.596978        97.8788 
 511   0.0000       3.602671        98.0337 
 512   0.0000       3.612824        98.3099 
 513   0.0000       3.615464        98.3818 
 514   0.0000       3.617797        98.4453 
 515   0.0000       3.632617        98.8485 
 516   0.0000       3.633082        98.8612 
 517   0.0000       3.639665        99.0403 
 518   0.0000       3.646775        99.2338 
 519   0.0000       3.648962        99.2933 
 520   0.0000       3.662630        99.6652 
 521   0.0000       3.664330        99.7115 
 522   0.0000       3.673802        99.9692 
 523   0.0000       3.678987       100.1103 
 524   0.0000       3.680802       100.1597 
 525   0.0000       3.690690       100.4288 
 526   0.0000       3.693882       100.5156 
 527   0.0000       3.698836       100.6504 
 528   0.0000       3.708985       100.9266 
 529   0.0000       3.712750       101.0291 
 530   0.0000       3.720592       101.2425 
 531   0.0000       3.733024       101.5808 
 532   0.0000       3.737553       101.7040 
 533   0.0000       3.740307       101.7789 
 534   0.0000       3.746508       101.9477 
 535   0.0000       3.749523       102.0297 
 536   0.0000       3.766727       102.4978 
 537   0.0000       3.769991       102.5867 
 538   0.0000       3.776853       102.7734 
 539   0.0000       3.781239       102.8928 
 540   0.0000       3.790103       103.1340 
 541   0.0000       3.802674       103.4760 
 542   0.0000       3.806374       103.5767 
 543   0.0000       3.810905       103.7000 
 544   0.0000       3.822106       104.0048 
 545   0.0000       3.835600       104.3720 
 546   0.0000       3.842532       104.5606 
 547   0.0000       3.844803       104.6224 
 548   0.0000       3.853543       104.8602 
 549   0.0000       3.862427       105.1020 
 550   0.0000       3.873804       105.4116 
 551   0.0000       3.875182       105.4491 
 552   0.0000       3.888385       105.8083 
 553   0.0000       3.895195       105.9936 
 554   0.0000       3.902928       106.2041 
 555   0.0000       3.909431       106.3810 
 556   0.0000       3.912892       106.4752 
 557   0.0000       3.925593       106.8208 
 558   0.0000       3.933737       107.0424 
 559   0.0000       3.941145       107.2440 
 560   0.0000       3.945923       107.3740 
 561   0.0000       3.961253       107.7912 
 562   0.0000       3.961849       107.8074 
 563   0.0000       3.971075       108.0584 
 564   0.0000       3.981361       108.3384 
 565   0.0000       3.987147       108.4958 
 566   0.0000       3.997873       108.7877 
 567   0.0000       4.009561       109.1057 
 568   0.0000       4.013563       109.2146 
 569   0.0000       4.027480       109.5933 
 570   0.0000       4.031147       109.6931 
 571   0.0000       4.039044       109.9080 
 572   0.0000       4.053885       110.3118 
 573   0.0000       4.059158       110.4553 
 574   0.0000       4.069869       110.7468 
 575   0.0000       4.074006       110.8593 
 576   0.0000       4.078658       110.9859 
 577   0.0000       4.088506       111.2539 
 578   0.0000       4.099712       111.5588 
 579   0.0000       4.108793       111.8059 
 580   0.0000       4.115512       111.9888 
 581   0.0000       4.124096       112.2224 
 582   0.0000       4.136412       112.5575 
 583   0.0000       4.139796       112.6496 
 584   0.0000       4.144959       112.7901 
 585   0.0000       4.151822       112.9768 
 586   0.0000       4.161229       113.2328 
 587   0.0000       4.169456       113.4567 
 588   0.0000       4.177310       113.6704 
 589   0.0000       4.182771       113.8190 
 590   0.0000       4.187671       113.9523 
 591   0.0000       4.196876       114.2028 
 592   0.0000       4.201325       114.3239 
 593   0.0000       4.210297       114.5680 
 594   0.0000       4.218925       114.8028 
 595   0.0000       4.227870       115.0462 
 596   0.0000       4.232826       115.1811 
 597   0.0000       4.241762       115.4242 
 598   0.0000       4.250738       115.6684 
 599   0.0000       4.264075       116.0314 
 600   0.0000       4.267065       116.1127 
 601   0.0000       4.272395       116.2578 
 602   0.0000       4.283047       116.5476 
 603   0.0000       4.290443       116.7489 
 604   0.0000       4.296628       116.9172 
 605   0.0000       4.309141       117.2577 
 606   0.0000       4.315957       117.4432 
 607   0.0000       4.317582       117.4874 
 608   0.0000       4.334008       117.9344 
 609   0.0000       4.342003       118.1519 
 610   0.0000       4.345665       118.2516 
 611   0.0000       4.359772       118.6354 
 612   0.0000       4.364346       118.7599 
 613   0.0000       4.372562       118.9835 
 614   0.0000       4.382256       119.2473 
 615   0.0000       4.389570       119.4463 
 616   0.0000       4.398846       119.6987 
 617   0.0000       4.408892       119.9720 
 618   0.0000       4.415187       120.1433 
 619   0.0000       4.420025       120.2750 
 620   0.0000       4.424199       120.3886 
 621   0.0000       4.443008       120.9004 
 622   0.0000       4.449342       121.0727 
 623   0.0000       4.452981       121.1718 
 624   0.0000       4.465226       121.5050 
 625   0.0000       4.470849       121.6580 
 626   0.0000       4.474095       121.7463 
 627   0.0000       4.486570       122.0858 
 628   0.0000       4.497932       122.3950 
 629   0.0000       4.507004       122.6418 
 630   0.0000       4.511279       122.7581 
 631   0.0000       4.523989       123.1040 
 632   0.0000       4.528669       123.2314 
 633   0.0000       4.535469       123.4164 
 634   0.0000       4.537747       123.4784 
 635   0.0000       4.551904       123.8636 
 636   0.0000       4.563324       124.1743 
 637   0.0000       4.572409       124.4216 
 638   0.0000       4.586670       124.8096 
 639   0.0000       4.596269       125.0708 
 640   0.0000       4.602148       125.2308 
 641   0.0000       4.609602       125.4336 
 642   0.0000       4.620912       125.7414 
 643   0.0000       4.627897       125.9315 
 644   0.0000       4.631318       126.0246 
 645   0.0000       4.636310       126.1604 
 646   0.0000       4.637645       126.1967 
 647   0.0000       4.644793       126.3912 
 648   0.0000       4.652471       126.6002 
 649   0.0000       4.664231       126.9202 
 650   0.0000       4.675921       127.2383 
 651   0.0000       4.683761       127.4516 
 652   0.0000       4.687074       127.5418 
 653   0.0000       4.691391       127.6592 
 654   0.0000       4.703773       127.9962 
 655   0.0000       4.705084       128.0318 
 656   0.0000       4.713373       128.2574 
 657   0.0000       4.722483       128.5053 
 658   0.0000       4.735888       128.8701 
 659   0.0000       4.757373       129.4547 
 660   0.0000       4.761528       129.5678 
 661   0.0000       4.786240       130.2402 
 662   0.0000       4.791549       130.3847 
 663   0.0000       4.808387       130.8429 
 664   0.0000       4.824517       131.2818 
 665   0.0000       4.839629       131.6930 
 666   0.0000       4.860826       132.2698 
 667   0.0000       4.876184       132.6877 
 668   0.0000       4.886016       132.9553 
 669   0.0000       4.895258       133.2067 
 670   0.0000       4.906673       133.5174 
 671   0.0000       4.925897       134.0405 
 672   0.0000       4.941723       134.4711 
 673   0.0000       4.947569       134.6302 
 674   0.0000       4.973276       135.3297 
 675   0.0000       4.997685       135.9939 
 676   0.0000       5.007679       136.2659 
 677   0.0000       5.021106       136.6312 
 678   0.0000       5.029921       136.8711 
 679   0.0000       5.043041       137.2281 
 680   0.0000       5.048089       137.3655 
 681   0.0000       5.066399       137.8637 
 682   0.0000       5.067859       137.9035 
 683   0.0000       5.082439       138.3002 
 684   0.0000       5.099039       138.7519 
 685   0.0000       5.115560       139.2015 
 686   0.0000       5.121901       139.3740 
 687   0.0000       5.129350       139.5767 
 688   0.0000       5.130831       139.6170 
 689   0.0000       5.151661       140.1838 
 690   0.0000       5.178183       140.9055 
 691   0.0000       5.183029       141.0374 
 692   0.0000       5.195680       141.3816 
 693   0.0000       5.205264       141.6424 
 694   0.0000       5.214119       141.8834 
 695   0.0000       5.219239       142.0227 
 696   0.0000       5.224542       142.1670 
 697   0.0000       5.233219       142.4031 
 698   0.0000       5.248776       142.8265 
 699   0.0000       5.260835       143.1546 
 700   0.0000       5.269424       143.3883 
 701   0.0000       5.269886       143.4009 
 702   0.0000       5.295518       144.0984 
 703   0.0000       5.303192       144.3072 
 704   0.0000       5.323248       144.8529 
 705   0.0000       5.330545       145.0515 
 706   0.0000       5.341119       145.3392 
 707   0.0000       5.357412       145.7826 
 708   0.0000       5.360457       145.8654 
 709   0.0000       5.390485       146.6826 
 710   0.0000       5.395402       146.8164 
 711   0.0000       5.417166       147.4086 
 712   0.0000       5.430416       147.7691 
 713   0.0000       5.452783       148.3778 
 714   0.0000       5.468856       148.8151 
 715   0.0000       5.483396       149.2108 
 716   0.0000       5.496685       149.5724 
 717   0.0000       5.503478       149.7573 
 718   0.0000       5.511142       149.9658 
 719   0.0000       5.529967       150.4781 
 720   0.0000       5.531334       150.5153 
 721   0.0000       5.552265       151.0848 
 722   0.0000       5.562971       151.3761 
 723   0.0000       5.571672       151.6129 
 724   0.0000       5.581178       151.8716 
 725   0.0000       5.601201       152.4164 
 726   0.0000       5.611789       152.7045 
 727   0.0000       5.631960       153.2534 
 728   0.0000       5.642931       153.5520 
 729   0.0000       5.653227       153.8321 
 730   0.0000       5.653888       153.8501 
 731   0.0000       5.675961       154.4507 
 732   0.0000       5.681681       154.6064 
 733   0.0000       5.690225       154.8389 
 734   0.0000       5.695141       154.9727 
 735   0.0000       5.717422       155.5790 
 736   0.0000       5.729517       155.9081 
 737   0.0000       5.734256       156.0370 
 738   0.0000       5.741110       156.2236 
 739   0.0000       5.751378       156.5029 
 740   0.0000       5.764375       156.8566 
 741   0.0000       5.774613       157.1352 
 742   0.0000       5.786878       157.4689 
 743   0.0000       5.797703       157.7635 
 744   0.0000       5.815199       158.2396 
 745   0.0000       5.837165       158.8373 
 746   0.0000       5.863771       159.5613 
 747   0.0000       5.867430       159.6609 
 748   0.0000       5.881293       160.0381 
 749   0.0000       5.924237       161.2067 
 750   0.0000       5.933869       161.4688 
 751   0.0000       5.966064       162.3449 
 752   0.0000       5.969925       162.4499 
 753   0.0000       5.993790       163.0993 
 754   0.0000       6.000743       163.2885 
 755   0.0000       6.021639       163.8571 
 756   0.0000       6.046019       164.5205 
 757   0.0000       6.051303       164.6643 
 758   0.0000       6.062208       164.9611 
 759   0.0000       6.075373       165.3193 
 760   0.0000       6.099114       165.9653 
 761   0.0000       6.174555       168.0182 
 762   0.0000       6.218134       169.2040 
 763   0.0000       6.226780       169.4393 
 764   0.0000       6.253284       170.1605 
 765   0.0000       6.285420       171.0350 
 766   0.0000       6.341181       172.5523 
 767   0.0000       6.342846       172.5976 
 768   0.0000       6.370204       173.3421 
 769   0.0000       6.372306       173.3993 
 770   0.0000       6.384838       173.7403 
 771   0.0000       6.401557       174.1952 
 772   0.0000       6.423470       174.7915 
 773   0.0000       6.444741       175.3703 
 774   0.0000       6.464638       175.9117 
 775   0.0000       6.499759       176.8674 
 776   0.0000       6.511785       177.1947 
 777   0.0000       6.522984       177.4994 
 778   0.0000       6.550773       178.2556 
 779   0.0000       6.625631       180.2926 
 780   0.0000       6.655435       181.1036 
 781   0.0000       6.684853       181.9041 
 782   0.0000       6.751457       183.7165 
 783   0.0000       6.773579       184.3185 
 784   0.0000       6.843514       186.2215 
 785   0.0000       6.855738       186.5541 
 786   0.0000       6.903101       187.8429 
 787   0.0000       6.917607       188.2376 
 788   0.0000       6.965140       189.5311 
 789   0.0000       6.991238       190.2412 
 790   0.0000       7.047010       191.7589 
 791   0.0000       7.072755       192.4594 
 792   0.0000       7.078212       192.6080 
 793   0.0000       7.144554       194.4132 
 794   0.0000       7.177450       195.3083 
 795   0.0000       7.241327       197.0465 
 796   0.0000       7.254192       197.3966 
 797   0.0000       7.277681       198.0358 
 798   0.0000       7.337010       199.6502 
 799   0.0000       7.369972       200.5471 
 800   0.0000       7.400523       201.3785 
 801   0.0000       7.491656       203.8583 
 802   0.0000       7.573016       206.0722 
 803   0.0000       7.581013       206.2899 
 804   0.0000       7.611417       207.1172 
 805   0.0000       7.760421       211.1718 
 806   0.0000       7.816203       212.6897 
 807   0.0000       7.929724       215.7787 
 808   0.0000       8.061695       219.3699 
 809   0.0000       9.468465       257.6500 
 810   0.0000       9.754954       265.4458 
 811   0.0000      10.867970       295.7325 
 812   0.0000      11.274041       306.7822 
 813   0.0000      12.022516       327.1493 
 814   0.0000      12.576771       342.2313 
 815   0.0000      12.895462       350.9034 
 816   0.0000      12.974524       353.0548 
 817   0.0000      13.086324       356.0970 
 818   0.0000      13.291574       361.6821 
 819   0.0000      13.417435       365.1070 
 820   0.0000      13.522568       367.9678 
 821   0.0000      13.823553       376.1580 
 822   0.0000      13.969776       380.1369 
 823   0.0000      14.061177       382.6241 
 824   0.0000      14.263196       388.1213 
 825   0.0000      14.463632       393.5754 
 826   0.0000      14.748739       401.3336 
 827   0.0000      15.978608       434.8000 

                    ********************************
                    * MULLIKEN POPULATION ANALYSIS *
                    ********************************

-----------------------
MULLIKEN ATOMIC CHARGES
-----------------------
   0 C :   -0.343866
   1 C :    0.043483
   2 O :   -0.343549
   3 C :    0.395512
   4 O :   -0.376589
   5 C :   -0.181255
   6 C :    0.135742
   7 C :   -0.327905
   8 N :   -0.137626
   9 C :    0.211894
  10 S :   -0.441924
  11 N :   -0.230663
  12 C :    0.106321
  13 C :    0.000225
  14 C :   -0.208735
  15 C :   -0.131650
  16 C :   -0.278098
  17 C :    0.322075
  18 O :   -0.356306
  19 C :   -0.280937
  20 H :    0.115700
  21 H :    0.127104
  22 H :    0.103625
  23 H :    0.103023
  24 H :    0.125688
  25 H :    0.121258
  26 H :    0.150572
  27 H :    0.111610
  28 H :    0.196385
  29 H :    0.202950
  30 H :    0.165278
  31 H :    0.172571
  32 H :    0.165889
  33 H :    0.133858
  34 H :    0.242126
  35 H :    0.186217
Sum of atomic charges:    0.0000000

--------------------------------
MULLIKEN REDUCED ORBITAL CHARGES
--------------------------------
  0 C s       :     3.267234  s :     3.267234
      pz      :     1.013293  p :     2.991658
      px      :     1.028088
      py      :     0.950278
      dz2     :     0.010746  d :     0.080497
      dxz     :     0.011205
      dyz     :     0.027726
      dx2y2   :     0.015341
      dxy     :     0.015479
      f0      :     0.000396  f :     0.004477
      f+1     :     0.000196
      f-1     :     0.001001
      f+2     :     0.000734
      f-2     :     0.000871
      f+3     :     0.000973
      f-3     :     0.000306
  1 C s       :     3.172482  s :     3.172482
      pz      :     0.916743  p :     2.620870
      px      :     0.738751
      py      :     0.965376
      dz2     :     0.021696  d :     0.151858
      dxz     :     0.034821
      dyz     :     0.031363
      dx2y2   :     0.029559
      dxy     :     0.034419
      f0      :     0.001044  f :     0.011307
      f+1     :     0.002020
      f-1     :     0.000753
      f+2     :     0.001858
      f-2     :     0.002181
      f+3     :     0.001649
      f-3     :     0.001802
  2 O s       :     3.719691  s :     3.719691
      pz      :     1.653980  p :     4.590645
      px      :     1.249694
      py      :     1.686970
      dz2     :     0.004159  d :     0.030932
      dxz     :     0.010152
      dyz     :     0.003114
      dx2y2   :     0.004851
      dxy     :     0.008657
      f0      :     0.000196  f :     0.002281
      f+1     :     0.000275
      f-1     :     0.000073
      f+2     :     0.000365
      f-2     :     0.000283
      f+3     :     0.000452
      f-3     :     0.000637
  3 C s       :     3.079802  s :     3.079802
      pz      :     0.709094  p :     2.208259
      px      :     0.705587
      py      :     0.793578
      dz2     :     0.026944  d :     0.290357
      dxz     :     0.081224
      dyz     :     0.018822
      dx2y2   :     0.084550
      dxy     :     0.078817
      f0      :     0.002085  f :     0.026069
      f+1     :     0.002423
      f-1     :     0.001827
      f+2     :     0.002710
      f-2     :     0.003971
      f+3     :     0.008790
      f-3     :     0.004264
  4 O s       :     3.767780  s :     3.767780
      pz      :     1.475883  p :     4.570256
      px      :     1.456112
      py      :     1.638261
      dz2     :     0.004450  d :     0.036055
      dxz     :     0.009941
      dyz     :     0.002150
      dx2y2   :     0.009177
      dxy     :     0.010337
      f0      :     0.000198  f :     0.002498
      f+1     :     0.000359
      f-1     :     0.000073
      f+2     :     0.000268
      f-2     :     0.000312
      f+3     :     0.000562
      f-3     :     0.000727
  5 C s       :     3.169816  s :     3.169816
      pz      :     0.930602  p :     2.912135
      px      :     1.069890
      py      :     0.911643
      dz2     :     0.017298  d :     0.088523
      dxz     :     0.011503
      dyz     :     0.027584
      dx2y2   :     0.015922
      dxy     :     0.016217
      f0      :     0.001182  f :     0.010781
      f+1     :     0.001235
      f-1     :     0.001931
      f+2     :     0.002106
      f-2     :     0.001068
      f+3     :     0.001350
      f-3     :     0.001909
  6 C s       :     3.191116  s :     3.191116
      pz      :     0.863541  p :     2.485017
      px      :     0.853366
      py      :     0.768110
      dz2     :     0.031801  d :     0.173790
      dxz     :     0.021998
      dyz     :     0.044797
      dx2y2   :     0.029767
      dxy     :     0.045428
      f0      :     0.001777  f :     0.014334
      f+1     :     0.001176
      f-1     :     0.003051
      f+2     :     0.002402
      f-2     :     0.002347
      f+3     :     0.001677
      f-3     :     0.001904
  7 C s       :     3.299225  s :     3.299225
      pz      :     0.895348  p :     2.950131
      px      :     1.016889
      py      :     1.037894
      dz2     :     0.016357  d :     0.073836
      dxz     :     0.016449
      dyz     :     0.016085
      dx2y2   :     0.007015
      dxy     :     0.017930
      f0      :     0.001024  f :     0.004713
      f+1     :     0.000922
      f-1     :     0.000690
      f+2     :     0.000391
      f-2     :     0.000780
      f+3     :     0.000044
      f-3     :     0.000861
  8 N s       :     3.352600  s :     3.352600
      pz      :     1.098104  p :     3.721236
      px      :     1.518962
      py      :     1.104170
      dz2     :     0.015790  d :     0.058821
      dxz     :     0.009469
      dyz     :     0.017503
      dx2y2   :     0.007360
      dxy     :     0.008699
      f0      :     0.000855  f :     0.004968
      f+1     :     0.000929
      f-1     :     0.000901
      f+2     :     0.000809
      f-2     :     0.000632
      f+3     :     0.000457
      f-3     :     0.000386
  9 C s       :     3.160620  s :     3.160620
      pz      :     0.790234  p :     2.347721
      px      :     0.686569
      py      :     0.870917
      dz2     :     0.069033  d :     0.262198
      dxz     :     0.040766
      dyz     :     0.051300
      dx2y2   :     0.043496
      dxy     :     0.057603
      f0      :     0.003360  f :     0.017567
      f+1     :     0.002160
      f-1     :     0.003060
      f+2     :     0.002476
      f-2     :     0.001916
      f+3     :     0.002072
      f-3     :     0.002523
 10 S s       :     5.855702  s :     5.855702
      pz      :     3.540835  p :    10.491449
      px      :     3.688713
      py      :     3.261901
      dz2     :     0.006741  d :     0.084643
      dxz     :     0.006339
      dyz     :     0.040541
      dx2y2   :     0.019129
      dxy     :     0.011892
      f0      :     0.001210  f :     0.010130
      f+1     :     0.000097
      f-1     :     0.001959
      f+2     :     0.003422
      f-2     :     0.001282
      f+3     :     0.000947
      f-3     :     0.001213
 11 N s       :     3.391639  s :     3.391639
      pz      :     1.190007  p :     3.777253
      px      :     1.524912
      py      :     1.062334
      dz2     :     0.012837  d :     0.057336
      dxz     :     0.005662
      dyz     :     0.015990
      dx2y2   :     0.011378
      dxy     :     0.011468
      f0      :     0.000403  f :     0.004435
      f+1     :     0.000458
      f-1     :     0.000600
      f+2     :     0.000753
      f-2     :     0.000553
      f+3     :     0.000823
      f-3     :     0.000845
 12 C s       :     3.098150  s :     3.098150
      pz      :     0.819029  p :     2.600922
      px      :     1.017319
      py      :     0.764575
      dz2     :     0.037104  d :     0.183481
      dxz     :     0.027252
      dyz     :     0.039512
      dx2y2   :     0.042547
      dxy     :     0.037065
      f0      :     0.001373  f :     0.011125
      f+1     :     0.001180
      f-1     :     0.001934
      f+2     :     0.002057
      f-2     :     0.001690
      f+3     :     0.001573
      f-3     :     0.001317
 13 C s       :     3.126904  s :     3.126904
      pz      :     0.925574  p :     2.755692
      px      :     0.900625
      py      :     0.929493
      dz2     :     0.018750  d :     0.106027
      dxz     :     0.008742
      dyz     :     0.030448
      dx2y2   :     0.021202
      dxy     :     0.026885
      f0      :     0.001156  f :     0.011151
      f+1     :     0.001602
      f-1     :     0.001019
[...]
      f-1     :     0.006278
      f+2     :     0.005571
      f-2     :     0.005893
      f+3     :     0.006565
      f-3     :     0.010435
 15 C s       :     2.705567  s :     2.705567
      pz      :     0.888636  p :     2.792414
      px      :     0.927670
      py      :     0.976108
      dz2     :     0.088351  d :     0.416354
      dxz     :     0.063242
      dyz     :     0.062493
      dx2y2   :     0.104213
      dxy     :     0.098055
      f0      :     0.003055  f :     0.041112
      f+1     :     0.004851
      f-1     :     0.006075
      f+2     :     0.006120
      f-2     :     0.007171
      f+3     :     0.006456
      f-3     :     0.007384
 16 C s       :     2.701671  s :     2.701671
      pz      :     0.937848  p :     2.868137
      px      :     0.961110
      py      :     0.969179
      dz2     :     0.047430  d :     0.390851
      dxz     :     0.053461
      dyz     :     0.087459
      dx2y2   :     0.092687
      dxy     :     0.109814
      f0      :     0.004848  f :     0.040358
      f+1     :     0.004453
      f-1     :     0.003084
      f+2     :     0.005476
      f-2     :     0.006713
      f+3     :     0.007495
      f-3     :     0.008288
 17 C s       :     2.701324  s :     2.701324
      pz      :     0.823947  p :     2.683675
      px      :     0.818829
      py      :     1.040900
      dz2     :     0.126693  d :     0.709757
      dxz     :     0.111606
      dyz     :     0.137212
      dx2y2   :     0.169457
      dxy     :     0.164789
      f0      :     0.009874  f :     0.099363
      f+1     :     0.016194
      f-1     :     0.009044
      f+2     :     0.013943
      f-2     :     0.017051
      f+3     :     0.013858
      f-3     :     0.019398
 18 O s       :     3.177108  s :     3.177108
      pz      :     1.456983  p :     4.346089
      px      :     1.429545
      py      :     1.459561
      dz2     :     0.009402  d :     0.075544
      dxz     :     0.018142
      dyz     :     0.015310
      dx2y2   :     0.019345
      dxy     :     0.013345
      f0      :     0.000576  f :     0.005065
      f+1     :     0.000837
      f-1     :     0.000278
      f+2     :     0.000916
      f-2     :     0.000841
      f+3     :     0.000699
      f-3     :     0.000918
 19 C s       :     2.695768  s :     2.695768
      pz      :     0.929492  p :     2.848199
      px      :     0.947623
      py      :     0.971085
      dz2     :     0.070812  d :     0.388371
      dxz     :     0.060046
      dyz     :     0.065474
      dx2y2   :     0.092289
      dxy     :     0.099750
      f0      :     0.003211  f :     0.040694
      f+1     :     0.004758
      f-1     :     0.005487
      f+2     :     0.006314
      f-2     :     0.007616
      f+3     :     0.006573
      f-3     :     0.006736
 20 H s       :     0.845485  s :     0.845485
      pz      :     0.060509  p :     0.161463
      px      :     0.052804
      py      :     0.048149
      dz2     :     0.008121  d :     0.028450
      dxz     :     0.005523
      dyz     :     0.006542
      dx2y2   :     0.004306
      dxy     :     0.003957
 21 H s       :     0.840398  s :     0.840398
      pz      :     0.044182  p :     0.151975
      px      :     0.067832
      py      :     0.039960
      dz2     :     0.003684  d :     0.027645
      dxz     :     0.008051
      dyz     :     0.001781
      dx2y2   :     0.006518
      dxy     :     0.007611
 22 H s       :     0.849564  s :     0.849564
      pz      :     0.060280  p :     0.153497
      px      :     0.040655
      py      :     0.052563
      dz2     :     0.007793  d :     0.027890
      dxz     :     0.006288
      dyz     :     0.007110
      dx2y2   :     0.003067
      dxy     :     0.003631
 23 H s       :     0.850144  s :     0.850144
      pz      :     0.068469  p :     0.150158
      px      :     0.029094
      py      :     0.052595
      dz2     :     0.008592  d :     0.027291
      dxz     :     0.005472
      dyz     :     0.008247
      dx2y2   :     0.002814
      dxy     :     0.002166
 24 H s       :     0.848341  s :     0.848341
      pz      :     0.044421  p :     0.143968
      px      :     0.045857
      py      :     0.053689
      dz2     :     0.004565  d :     0.027046
      dxz     :     0.005937
      dyz     :     0.004400
      dx2y2   :     0.006299
      dxy     :     0.005845
 25 H s       :     0.832400  s :     0.832400
      pz      :     0.046489  p :     0.150474
      px      :     0.040750
      py      :     0.063235
      dz2     :     0.005666  d :     0.027590
      dxz     :     0.002857
      dyz     :     0.007177
      dx2y2   :     0.004897
      dxy     :     0.006992
 26 H s       :     0.828965  s :     0.828965
      pz      :     0.046984  p :     0.151415
      px      :     0.054315
      py      :     0.050116
      dz2     :     0.005426  d :     0.027564
      dxz     :     0.005505
      dyz     :     0.004375
      dx2y2   :     0.006560
      dxy     :     0.005698
 27 H s       :     0.838962  s :     0.838962
      pz      :     0.036211  p :     0.151284
      px      :     0.064477
      py      :     0.050596
      dz2     :     0.002337  d :     0.027694
      dxz     :     0.006142
      dyz     :     0.002810
      dx2y2   :     0.009037
      dxy     :     0.007369
 28 H s       :     0.742576  s :     0.742576
      pz      :     0.053474  p :     0.253635
      px      :     0.092565
      py      :     0.107596
      dz2     :     0.007256  d :     0.061627
      dxz     :     0.003596
      dyz     :     0.015379
      dx2y2   :     0.016807
      dxy     :     0.018590
 29 H s       :     0.747875  s :     0.747875
      pz      :     0.118681  p :     0.255039
      px      :     0.091845
      py      :     0.044513
      dz2     :     0.022071  d :     0.061467
      dxz     :     0.019490
      dyz     :     0.013615
      dx2y2   :     0.003851
      dxy     :     0.002439
 30 H s       :     0.824810  s :     0.824810
      pz      :     0.037684  p :     0.149788
      px      :     0.077936
      py      :     0.034167
      dz2     :     0.002731  d :     0.028452
      dxz     :     0.008607
      dyz     :     0.001223
      dx2y2   :     0.008180
      dxy     :     0.007711
 31 H s       :     0.836426  s :     0.836426
      pz      :     0.058451  p :     0.157265
      px      :     0.066021
      py      :     0.032792
      dz2     :     0.005822  d :     0.027421
      dxz     :     0.007348
      dyz     :     0.003445
      dx2y2   :     0.005228
      dxy     :     0.005578
 32 H s       :     0.840534  s :     0.840534
      pz      :     0.037084  p :     0.150698
      px      :     0.041229
      py      :     0.072385
      dz2     :     0.002671  d :     0.026397
      dxz     :     0.001197
      dyz     :     0.006751
      dx2y2   :     0.007948
      dxy     :     0.007829
 33 H s       :     0.847638  s :     0.847638
      pz      :     0.052705  p :     0.158670
      px      :     0.046234
      py      :     0.059731
      dz2     :     0.004999  d :     0.027714
      dxz     :     0.003483
      dyz     :     0.006475
      dx2y2   :     0.006594
      dxy     :     0.006163
 34 H s       :     0.705740  s :     0.705740
      pz      :     0.102776  p :     0.347275
      px      :     0.083419
      py      :     0.161080
      dz2     :     0.018441  d :     0.099427
      dxz     :     0.007646
      dyz     :     0.026244
      dx2y2   :     0.023425
      dxy     :     0.023671
 35 H s       :     0.837133  s :     0.837133
      pz      :     0.041519  p :     0.159801
      px      :     0.043838
      py      :     0.074444
      dz2     :     0.002696  d :     0.028122
      dxz     :     0.001406
      dyz     :     0.007446
      dx2y2   :     0.008184
      dxy     :     0.008389


                      *****************************
                      * MAYER POPULATION ANALYSIS *
                      *****************************

  NA   - Mulliken gross atomic population
  ZA   - Total nuclear charge
  QA   - Mulliken gross atomic charge
  VA   - Mayer's total valence
  BVA  - Mayer's bonded valence
  FA   - Mayer's free valence

  ATOM       NA         ZA         QA         VA         BVA        FA
  0 C      6.3439     6.0000    -0.3439     3.8787     3.8787     0.0000
  1 C      5.9565     6.0000     0.0435     3.8602     3.8602     0.0000
  2 O      8.3435     8.0000    -0.3435     2.0398     2.0398    -0.0000
  3 C      5.6045     6.0000     0.3955     4.2710     4.2710     0.0000
  4 O      8.3766     8.0000    -0.3766     2.1317     2.1317     0.0000
  5 C      6.1813     6.0000    -0.1813     3.5391     3.5391     0.0000
  6 C      5.8643     6.0000     0.1357     3.8015     3.8015     0.0000
  7 C      6.3279     6.0000    -0.3279     3.8736     3.8736     0.0000
  8 N      7.1376     7.0000    -0.1376     3.2708     3.2708     0.0000
  9 C      5.7881     6.0000     0.2119     4.1427     4.1427     0.0000
 10 S     16.4419    16.0000    -0.4419     1.7495     1.7495    -0.0000
 11 N      7.2307     7.0000    -0.2307     3.2564     3.2564    -0.0000
 12 C      5.8937     6.0000     0.1063     3.9111     3.9111     0.0000
 13 C      5.9998     6.0000     0.0002     3.7156     3.7156     0.0000
 14 C      6.2087     6.0000    -0.2087     3.8755     3.8755     0.0000
 15 C      6.1317     6.0000    -0.1317     3.8090     3.8090    -0.0000
 16 C      6.2781     6.0000    -0.2781     3.7893     3.7893     0.0000
 17 C      5.6779     6.0000     0.3221     3.8656     3.8656     0.0000
 18 O      8.3563     8.0000    -0.3563     2.1191     2.1191    -0.0000
 19 C      6.2809     6.0000    -0.2809     3.8067     3.8067     0.0000
 20 H      0.8843     1.0000     0.1157     0.9623     0.9623     0.0000
 21 H      0.8729     1.0000     0.1271     0.9825     0.9825    -0.0000
 22 H      0.8964     1.0000     0.1036     0.9754     0.9754     0.0000
 23 H      0.8970     1.0000     0.1030     0.9641     0.9641    -0.0000
 24 H      0.8743     1.0000     0.1257     0.9730     0.9730     0.0000
 25 H      0.8787     1.0000     0.1213     0.9911     0.9911     0.0000
 26 H      0.8494     1.0000     0.1506     0.9709     0.9709     0.0000
 27 H      0.8884     1.0000     0.1116     0.9760     0.9760     0.0000
 28 H      0.8036     1.0000     0.1964     1.0217     1.0217    -0.0000
 29 H      0.7971     1.0000     0.2029     1.0130     1.0130    -0.0000
 30 H      0.8347     1.0000     0.1653     0.9866     0.9866     0.0000
 31 H      0.8274     1.0000     0.1726     0.9878     0.9878     0.0000
 32 H      0.8341     1.0000     0.1659     0.9761     0.9761    -0.0000
 33 H      0.8661     1.0000     0.1339     0.9907     0.9907     0.0000
 34 H      0.7579     1.0000     0.2421     1.0097     1.0097    -0.0000
 35 H      0.8138     1.0000     0.1862     0.9810     0.9810     0.0000

  Mayer bond orders larger than 0.100000
B(  0-C ,  1-C ) :   0.9577 B(  0-C , 20-H ) :   0.9685 B(  0-C , 21-H ) :   0.9777 
B(  0-C , 22-H ) :   0.9768 B(  1-C ,  2-O ) :   0.9033 B(  1-C , 23-H ) :   0.9710 
B(  1-C , 24-H ) :   0.9826 B(  2-O ,  3-C ) :   1.1711 B(  3-C ,  4-O ) :   2.1028 
B(  3-C ,  5-C ) :   0.9223 B(  5-C ,  6-C ) :   1.6963 B(  5-C , 12-C ) :   0.9465 
B(  6-C ,  7-C ) :   0.9499 B(  6-C ,  8-N ) :   1.1147 B(  7-C , 25-H ) :   0.9786 
B(  7-C , 26-H ) :   0.9649 B(  7-C , 27-H ) :   0.9720 B(  8-N ,  9-C ) :   1.2004 
B(  8-N , 28-H ) :   0.9519 B(  9-C , 10-S ) :   1.6079 B(  9-C , 11-N ) :   1.2836 
B( 11-N , 12-C ) :   0.9950 B( 11-N , 29-H ) :   0.9465 B( 12-C , 13-C ) :   0.9419 
B( 12-C , 30-H ) :   0.9976 B( 13-C , 14-C ) :   1.3889 B( 13-C , 19-C ) :   1.3386 
B( 14-C , 15-C ) :   1.4025 B( 14-C , 31-H ) :   0.9608 B( 15-C , 16-C ) :   1.3570 
B( 15-C , 32-H ) :   0.9695 B( 16-C , 17-C ) :   1.3313 B( 16-C , 33-H ) :   0.9843 
B( 17-C , 18-O ) :   1.1117 B( 17-C , 19-C ) :   1.3639 B( 18-O , 34-H ) :   0.9787 
B( 19-C , 35-H ) :   0.9506 

-------
TIMINGS
-------

Total SCF time: 0 days 1 hours 54 min 28 sec 

Total time                  ....    6868.478 sec
Sum of individual times     ....    6857.296 sec  ( 99.8%)

Fock matrix formation       ....    6840.138 sec  ( 99.6%)
Diagonalization             ....       2.102 sec  (  0.0%)
Density matrix formation    ....       0.289 sec  (  0.0%)
Population analysis         ....       0.288 sec  (  0.0%)
Initial guess               ....       5.541 sec  (  0.1%)
Orbital Transformation      ....       0.000 sec  (  0.0%)
Orbital Orthonormalization  ....       0.000 sec  (  0.0%)
DIIS solution               ....       3.835 sec  (  0.1%)
SOSCF solution              ....       3.445 sec  (  0.1%)

------------------------------------------------------------------------------
                                ORCA  MP2 
------------------------------------------------------------------------------

Freezing NCore=48 chemical core electrons

-------------
RI-MP2 ENERGY
-------------
Dimension of the basis                    ...  828
Memory devoted to MP2                     ...  256 MB   
Data format for buffers                   ... DOUBLE
Compression type for matrix containers    ... UNCOMPRESSED
Overall scaling of the MP2 energy         ...   1.000e+00
Calculating two index integrals           ... done (    0.046 sec)
Cholesky decomposition of V**-1           ... done (    0.478 sec)

-----------------
RI-TRANSFORMATION (AUX index driven)
-----------------

Dimension of the orbital-basis         ... 828
Dimension of the aux-basis             ... 2141
Transformation of internal/external MOs...   24-  76 to   77- 827
Number Format for Storage              ... Double (8 Byte)
Integral mode                          ... Direct

First Phase: integral generation and transformation of MO indices
  Aux angular momentum 0               ... done (    5.922 sec)
  Aux angular momentum 1               ... done (   10.049 sec)
  Aux angular momentum 2               ... done (   12.159 sec)
  Aux angular momentum 3               ... done (    9.528 sec)
  Aux angular momentum 4               ... done (    3.317 sec)
Closing buffer VIA ( 0.63 GB; CompressionRatio= 1.00)
  Phase 1 completed in    41.266 sec
Second Phase: sorting and transformation of aux index

IA-Transformation
Memory available                       ... 167 MB 
Max. # MO pairs treated in a batch     ... 12    
# of internal orbitals                 ... 53
# batches for internal orbitals        ... 5
Closing buffer IAV ( 0.63 GB; CompressionRatio= 1.00)
(ia|v) transformation done in    37.718 sec

  Phase 2 completed in    37.723 sec
RI-Integral transformation completed in    79.000 sec
Opening buffers                              ... done

Starting loop over batches of integrals:

Operator 0  - window                       ... ( 24- 76)x( 77-827)
Operator 0  - Memory available             ...   256 MB
Operator 0  - Memory needed per MO         ...  12.3 MB
Operator 0  - Number of orbitals per batch ... 13
Operator 0  - Number of batches            ... 5

OPERATOR  0   PASS   0:  MOs    24 ...   36
  Reading integrals       ... ok
  Internal MO  26
  Internal MO  29
  Internal MO  32
  Internal MO  35
OPERATOR  0   PASS   1:  MOs    37 ...   49
  Reading integrals       ... ok
  Internal MO  38
  Internal MO  41
  Internal MO  44
  Internal MO  47
OPERATOR  0   PASS   2:  MOs    50 ...   62
  Reading integrals       ... ok
  Internal MO  50
  Internal MO  53
  Internal MO  56
  Internal MO  59
  Internal MO  62
OPERATOR  0   PASS   3:  MOs    63 ...   75
  Reading integrals       ... ok
  Internal MO  65
  Internal MO  68
  Internal MO  71
  Internal MO  74
OPERATOR  0   PASS   4:  MOs    76 ...   76
  Reading integrals       ... ok
Time spent in pair loops =   141.592 sec
Deleting buffer (Ka|jb)[aa] ...done

-----------------------------------------------
 RI-MP2 CORRELATION ENERGY:     -3.542485001 Eh
-----------------------------------------------


-------
TIMINGS
-------

Total time                :  221.268 sec
Integral trafo            :   79.043 sec ( 35.7%)
I/O of integrals          :    7.921 sec (  3.6%)
K(i,j) Operators          :   60.317 sec ( 27.3%)
T(i,j) pair energies      :   10.566 sec (  4.8%)
V-calculation             :    0.046 sec (  0.0%)
V**(-1/2)                 :    0.478 sec (  0.2%)
Gamma(ia|P)               :    0.000 sec (  0.0%)
Gamma-Trafo               :    0.000 sec (  0.0%)
D(virtual)                :    0.000 sec (  0.0%)
D(internal)               :    0.000 sec (  0.0%)
W(virtual)                :    0.000 sec (  0.0%)
W(internal)               :    0.000 sec (  0.0%)
L(virtual)                :    0.000 sec (  0.0%)
L(internal)               :    0.000 sec (  0.0%)
G(D)                      :    0.000 sec (  0.0%)
G(Z)                      :    0.000 sec (  0.0%)
Z-Vector Solution         :    0.000 sec (  0.0%)
3-Index Derivative        :    0.000 sec (  0.0%)
2-Index Derivative        :    0.000 sec (  0.0%)
Separable Gradient        :    0.000 sec (  0.0%)


---------------------------------------
MP2 TOTAL ENERGY:    -1274.324569537 Eh
---------------------------------------

-------------------------   --------------------
FINAL SINGLE POINT ENERGY     -1274.324569537044
-------------------------   --------------------


                            ***************************************
                            *     ORCA property calculations      *
                            ***************************************


  WARNING: The energy has been calculated at the MP2 level but the densities
           used in the property calculations are still SCF densities
           MP2 response densities have not been calculated 
           use %mp2 Density relaxed end
           or  %mp2 Density unrelaxed end

                                    ---------------------
                                    Active property flags
                                    ---------------------
   (+) Dipole Moment


------------------------------------------------------------------------------
                       ORCA ELECTRIC PROPERTIES CALCULATION
------------------------------------------------------------------------------

Dipole Moment Calculation                       ... on
Quadrupole Moment Calculation                   ... off
Polarizability Calculation                      ... off
GBWName                                         ... CONFS/Conf603.orca.gbw
Electron density file                           ... CONFS/Conf603.orca.scfp
The origin for moment calculation is the CENTER OF MASS  = (32.737355, 31.273050 35.200359)

-------------
DIPOLE MOMENT
-------------
                                X             Y             Z
Electronic contribution:      9.23522       5.25388       5.88249
Nuclear contribution   :    -10.68108      -6.54625      -6.14770
                        -----------------------------------------
Total Dipole Moment    :     -1.44586      -1.29237      -0.26521
                        -----------------------------------------
Magnitude (a.u.)       :      1.95731
Magnitude (Debye)      :      4.97509



--------------------
Rotational spectrum 
--------------------
 
Rotational constants in cm-1:     0.012627     0.009232     0.006909 
Rotational constants in MHz :   378.549532   276.762018   207.125710 

 Dipole components along the rotational axes: 
x,y,z [a.u.] :    -1.438441    -0.595871     1.186124 
x,y,z [Debye]:    -3.656227    -1.514583     3.014888 

 

Timings for individual modules:

Sum of individual times         ...     7092.108 sec (= 118.202 min)
GTO integral calculation        ...        1.748 sec (=   0.029 min)   0.0 %
SCF iterations                  ...     6868.555 sec (= 114.476 min)  96.8 %
MP2 module                      ...      221.805 sec (=   3.697 min)   3.1 %
                             ****ORCA TERMINATED NORMALLY****
TOTAL RUN TIME: 0 days 1 hours 58 minutes 13 seconds 565 msec
