
                                 *****************
                                 * O   R   C   A *
                                 *****************

           --- An Ab Initio, DFT and Semiempirical electronic structure package ---

                  #######################################################
                  #                        -***-                        #
                  #          Department of theory and spectroscopy      #
                  #               Directorship: Frank Neese             #
                  #        Max Planck Institute fuer Kohlenforschung    #
                  #                Kaiser Wilhelm Platz 1               #
                  #                 D-45470 Muelheim/Ruhr               #
                  #                      Germany                        #
                  #                                                     #
                  #                  All rights reserved                #
                  #                        -***-                        #
                  #######################################################


                         Program Version 4.2.0 -  RELEASE  -


 With contributions from (in alphabetic order):
   Daniel Aravena         : Magnetic Suceptibility
   Michael Atanasov       : Ab Initio Ligand Field Theory (pilot matlab implementation)
   Alexander A. Auer      : GIAO ZORA, VPT2
   Ute Becker             : Parallelization
   Giovanni Bistoni       : ED, misc. LED, open-shell LED, HFLED
   Martin Brehm           : Molecular dynamics
   Dmytro Bykov           : SCF Hessian
   Vijay G. Chilkuri      : MRCI spin determinant printing, contributions to CSF-ICE
   Dipayan Datta          : RHF DLPNO-CCSD density
   Achintya Kumar Dutta   : EOM-CC, STEOM-CC
   Dmitry Ganyushin       : Spin-Orbit,Spin-Spin,Magnetic field MRCI
   Miquel Garcia          : C-PCM Hessian, Gaussian charge scheme
   Yang Guo               : DLPNO-NEVPT2, CIM, IAO-localization
   Andreas Hansen         : Spin unrestricted coupled pair/coupled cluster methods
   Benjamin Helmich-Paris : CASSCF linear response (MC-RPA)
   Lee Huntington         : MR-EOM, pCC
   Robert Izsak           : Overlap fitted RIJCOSX, COSX-SCS-MP3, EOM
   Christian Kollmar      : KDIIS, OOCD, Brueckner-CCSD(T), CCSD density
   Simone Kossmann        : Meta GGA functionals, TD-DFT gradient, OOMP2, MP2 Hessian
   Martin Krupicka        : AUTO-CI
   Lucas Lang             : DCDCAS
   Dagmar Lenk            : GEPOL surface, SMD
   Dimitrios Liakos       : Extrapolation schemes; Compound Job, initial MDCI parallelization
   Dimitrios Manganas     : Further ROCIS development; embedding schemes
   Dimitrios Pantazis     : SARC Basis sets
   Taras Petrenko         : DFT Hessian,TD-DFT gradient, ASA, ECA, R-Raman, ABS, FL, XAS/XES, NRVS
   Peter Pinski           : DLPNO-MP2, DLPNO-MP2 Gradient
   Christoph Reimann      : Effective Core Potentials
   Marius Retegan         : Local ZFS, SOC
   Christoph Riplinger    : Optimizer, TS searches, QM/MM, DLPNO-CCSD(T), (RO)-DLPNO pert. Triples
   Tobias Risthaus        : Range-separated hybrids, TD-DFT gradient, RPA, STAB
   Michael Roemelt        : Original ROCIS implementation
   Masaaki Saitow         : Open-shell DLPNO-CCSD energy and density
   Barbara Sandhoefer     : DKH picture change effects
   Avijit Sen             : IP-ROCIS
   Kantharuban Sivalingam : CASSCF convergence, NEVPT2, FIC-MRCI
   Bernardo de Souza      : ESD, SOC TD-DFT
   Georgi Stoychev        : AutoAux, RI-MP2 NMR
   Willem Van den Heuvel  : Paramagnetic NMR
   Boris Wezisla          : Elementary symmetry handling
   Frank Wennmohs         : Technical directorship


 We gratefully acknowledge several colleagues who have allowed us to
 interface, adapt or use parts of their codes:
   Stefan Grimme, W. Hujo, H. Kruse,             : VdW corrections, initial TS optimization,
                  C. Bannwarth                     DFT functionals, gCP, sTDA/sTD-DF
   Ed Valeev, F. Pavosevic, A. Kumar             : LibInt (2-el integral package), F12 methods
   Garnet Chan, S. Sharma, J. Yang, R. Olivares  : DMRG
   Ulf Ekstrom                                   : XCFun DFT Library
   Mihaly Kallay                                 : mrcc  (arbitrary order and MRCC methods)
   Andreas Klamt, Michael Diedenhofen            : otool_cosmo (COSMO solvation model)
   Jiri Pittner, Ondrej Demel                    : Mk-CCSD
   Frank Weinhold                                : gennbo (NPA and NBO analysis)
   Christopher J. Cramer and Donald G. Truhlar   : smd solvation model
   Lars Goerigk                                  : TD-DFT with DH, B97 family of functionals
   V. Asgeirsson, H. Jonsson                     : NEB implementation
   FAccTs GmbH                                   : IRC, NEB, NEB-TS, Multilevel, MM, QM/MM, CI optimization
   S Lehtola, MJT Oliveira, MAL Marques          : LibXC Library


 Your calculation uses the libint2 library for the computation of 2-el integrals
 For citations please refer to: http://libint.valeyev.net

 Your ORCA version has been built with support for libXC version: 4.2.3
 For citations please refer to: https://tddft.org/programs/libxc/

 This ORCA versions uses:
   CBLAS   interface :  Fast vector & matrix operations
   LAPACKE interface :  Fast linear algebra routines
   SCALAPACK package :  Parallel linear algebra routines


----- Orbital basis set information -----
Your calculation utilizes the basis: cc-pVTZ 
       H, B-Ne : Obtained from the ccRepo (grant-hill.group.shef.ac.uk/ccrepo) Feb. 2017
                 T. H. Dunning, Jr., J. Chem. Phys. 90, 1007 (1989)
            He : Obtained from the ccRepo (grant-hill.group.shef.ac.uk/ccrepo) Feb. 2017
                 D. E. Woon, T. H. Dunning, Jr., J. Chem. Phys. 100, 2975 (1994)
  Li-Be, Na-Mg : Obtained from the ccRepo (grant-hill.group.shef.ac.uk/ccrepo) Feb. 2017
                 B. P. Prascher, D. E. Woon, K. A. Peterson, T. H. Dunning, Jr., A. K. Wilson, Theor. Chem. Acc. 128, 69 (2011)
         Al-Ar : Obtained from the ccRepo (grant-hill.group.shef.ac.uk/ccrepo) Feb. 2017
                 D. E. Woon, T. H. Dunning, Jr., J. Chem. Phys. 98, 1358 (1993)
            Ca : Obtained from the Peterson Research Group Website (tyr0.chem.wsu.edu/~kipeters) Feb. 2017
                 J. Koput, K. A. Peterson, J. Phys. Chem. 106, 9595 (2002)
         Sc-Zn : Obtained from the ccRepo (grant-hill.group.shef.ac.uk/ccrepo) Feb. 2017
                 N. B. Balabanov, K. A. Peterson, J. Chem. Phys. 123, 064107 (2005)
                 N. B. Balabanov, K. A. Peterson, J. Chem. Phys. 125, 074110 (2006)
         Ga-Kr : Obtained from the ccRepo (grant-hill.group.shef.ac.uk/ccrepo) Feb. 2017
                 A. K. Wilson, D. E. Woon, K. A. Peterson, T. H. Dunning, Jr., J. Chem. Phys. 110, 7667 (1999)
             Y : Obtained from the ccRepo (grant-hill.group.shef.ac.uk/ccrepo) Feb. 2017
                 K. A. Peterson, D. Figgen, M. Dolg, H. Stoll, J. Chem. Phys. 126, 124101 (2007)
        Ag, Au : Obtained from the Peterson Research Group Website (tyr0.chem.wsu.edu/~kipeters) Feb. 2017
                 K. A. Peterson, C. Puzzarini, Theor. Chem. Acc. 114, 283 (2005)

----- AuxC basis set information -----
Your calculation utilizes the auxiliary basis: cc-pVTZ/C 
  Obtained from the EMSL Basis Set Exchange (bse.pnl.gov) Feb. 2017
  H-He, B-F, Al-Ar, Ga-Kr : F. Weigend, A. Kohn, C. Hattig, J. Chem. Phys. 116, 3175 (2002)
             Li-Be, Na-Mg : C. Haettig, Phys. Chem. Chem. Phys. 7, 59 (2005)
                       Ne : C. Haettig, Phys. Chem. Chem. Phys. 7, 59 (2005)
                            F. Weigend, A. Kohn, C. Hattig, J. Chem. Phys. 116, 3175 (2002)
                    Sc-Zn : J. G. Hill, J. A. Platts, J. Chem. Phys. 128, 044104 (2008)

================================================================================
                                        WARNINGS
                       Please study these warnings very carefully!
================================================================================


WARNING: No MP2 level density has been requested!
         To caclulate MP2 level properties use
         %mp2 Density relaxed end
         or
         %mp2 Density unrelaxed end

WARNING: Post HF methods need fully converged wavefunctions
  ===> : Setting SCFConvForced true
         You can overwrite this default with %scf ConvForced false 


INFO   : the flag for use of LIBINT has been found!

================================================================================
                                       INPUT FILE
================================================================================
NAME = CONFS/Conf754.orca
|  1> ! ri-mp2 cc-pvtz cc-pvtz/c TightSCF  NoKeepInts
|  2> 
|  3> %scf
|  4>   MaxCore 4096
|  5> end
|  6> *xyz  0  1
|  7>     C       14.7439182   15.7586506   17.2370096
|  8>     C       15.8145663   14.8253209   16.6415633
|  9>     O       16.7300778   15.5816802   15.8231931
| 10>     C       17.9679444   15.8507385   16.3332451
| 11>     O       18.7840975   14.9498585   16.4162764
| 12>     C       17.9474221   16.9561565   17.3414659
| 13>     C       17.3249107   18.1375099   17.1146800
| 14>     C       16.6023580   18.5577715   15.8520883
| 15>     N       17.3876533   19.1518060   18.0737430
| 16>     C       18.1660049   19.1105027   19.2013212
| 17>     S       18.2668908   20.3964927   20.2359880
| 18>     N       18.8564504   17.9455813   19.4301459
| 19>     C       18.7091567   16.7037605   18.6454214
| 20>     C       18.0235931   15.6162522   19.4691581
| 21>     C       18.5537342   14.3134573   19.5073433
| 22>     C       17.9130440   13.2993316   20.2384527
| 23>     C       16.7295450   13.5883852   20.9384563
| 24>     C       16.1970174   14.8839136   20.9029245
| 25>     O       15.0476015   15.1642935   21.5667489
| 26>     C       16.8378268   15.8913436   20.1753038
| 27>     H       15.1870717   16.5039260   17.9056557
| 28>     H       14.0199694   15.1775677   17.8213497
| 29>     H       14.1972403   16.2785486   16.4411899
| 30>     H       16.3456904   14.2931587   17.4435741
| 31>     H       15.3174569   14.0722088   16.0167217
| 32>     H       15.5482296   18.2598588   15.8855706
| 33>     H       17.0504474   18.0978582   14.9624805
| 34>     H       16.6408897   19.6433837   15.6991741
| 35>     H       16.8927850   20.0163124   17.9207615
| 36>     H       19.4034108   17.9349302   20.2816603
| 37>     H       19.7177606   16.3522826   18.3830673
| 38>     H       19.4583045   14.0816501   18.9493128
| 39>     H       18.3317120   12.2944326   20.2539979
| 40>     H       16.2297305   12.8070361   21.5014727
| 41>     H       14.7958445   14.3694154   22.0608925
| 42>     H       16.4066434   16.8866238   20.1625897
| 43> *
| 44> 
| 45>                          ****END OF INPUT****
================================================================================

                       ****************************
                       * Single Point Calculation *
                       ****************************

---------------------------------
CARTESIAN COORDINATES (ANGSTROEM)
---------------------------------
  C     14.743918   15.758651   17.237010
  C     15.814566   14.825321   16.641563
  O     16.730078   15.581680   15.823193
  C     17.967944   15.850738   16.333245
  O     18.784097   14.949858   16.416276
  C     17.947422   16.956156   17.341466
  C     17.324911   18.137510   17.114680
  C     16.602358   18.557772   15.852088
  N     17.387653   19.151806   18.073743
  C     18.166005   19.110503   19.201321
  S     18.266891   20.396493   20.235988
  N     18.856450   17.945581   19.430146
  C     18.709157   16.703761   18.645421
  C     18.023593   15.616252   19.469158
  C     18.553734   14.313457   19.507343
  C     17.913044   13.299332   20.238453
  C     16.729545   13.588385   20.938456
  C     16.197017   14.883914   20.902924
  O     15.047601   15.164293   21.566749
  C     16.837827   15.891344   20.175304
  H     15.187072   16.503926   17.905656
  H     14.019969   15.177568   17.821350
  H     14.197240   16.278549   16.441190
  H     16.345690   14.293159   17.443574
  H     15.317457   14.072209   16.016722
  H     15.548230   18.259859   15.885571
  H     17.050447   18.097858   14.962480
  H     16.640890   19.643384   15.699174
  H     16.892785   20.016312   17.920762
  H     19.403411   17.934930   20.281660
  H     19.717761   16.352283   18.383067
  H     19.458305   14.081650   18.949313
  H     18.331712   12.294433   20.253998
  H     16.229730   12.807036   21.501473
  H     14.795844   14.369415   22.060892
  H     16.406643   16.886624   20.162590

----------------------------
CARTESIAN COORDINATES (A.U.)
----------------------------
  NO LB      ZA    FRAG     MASS         X           Y           Z
   0 C     6.0000    0    12.011   27.861968   29.779534   32.573228
   1 C     6.0000    0    12.011   29.885199   28.015796   31.447997
   2 O     8.0000    0    15.999   31.615265   29.445108   29.901502
   3 C     6.0000    0    12.011   33.954494   29.953555   30.865360
   4 O     8.0000    0    15.999   35.496800   28.251138   31.022267
   5 C     6.0000    0    12.011   33.915713   32.042492   32.770621
   6 C     6.0000    0    12.011   32.739337   34.274926   32.342058
   7 C     6.0000    0    12.011   31.373910   35.069106   29.956106
   8 N     7.0000    0    14.007   32.857903   36.191668   34.154424
   9 C     6.0000    0    12.011   34.328774   36.113616   36.285238
  10 S    16.0000    0    32.060   34.519421   38.543785   38.240475
  11 N     7.0000    0    14.007   35.633527   33.912234   36.717654
  12 C     6.0000    0    12.011   35.355182   31.565533   35.234740
  13 C     6.0000    0    12.011   34.059655   29.510440   36.791377
  14 C     6.0000    0    12.011   35.061476   27.048514   36.863536
  15 C     6.0000    0    12.011   33.850747   25.132094   38.245133
  16 C     6.0000    0    12.011   31.614258   25.678327   39.567948
  17 C     6.0000    0    12.011   30.607927   28.126521   39.500803
  18 O     8.0000    0    15.999   28.435846   28.656362   40.755249
  19 C     6.0000    0    12.011   31.818881   30.030287   38.125799
  20 H     1.0000    0     1.008   28.699406   31.187900   33.836786
  21 H     1.0000    0     1.008   26.493903   28.681446   33.677470
  22 H     1.0000    0     1.008   26.828896   30.761999   31.069346
  23 H     1.0000    0     1.008   30.888878   27.010156   32.963578
  24 H     1.0000    0     1.008   28.945799   26.592621   30.267218
  25 H     1.0000    0     1.008   29.381896   34.506132   30.019378
  26 H     1.0000    0     1.008   32.220676   34.199996   28.274990
  27 H     1.0000    0     1.008   31.446724   37.120616   29.667140
  28 H     1.0000    0     1.008   31.922737   37.825349   33.865331
  29 H     1.0000    0     1.008   36.667132   33.892106   38.326784
  30 H     1.0000    0     1.008   37.261168   30.901336   34.738963
  31 H     1.0000    0     1.008   36.770867   26.610462   35.809012
  32 H     1.0000    0     1.008   34.641915   23.233111   38.274509
  33 H     1.0000    0     1.008   30.669746   24.201791   40.631895
  34 H     1.0000    0     1.008   27.960094   27.154260   41.689045
  35 H     1.0000    0     1.008   31.004063   31.911094   38.101773

--------------------------------
INTERNAL COORDINATES (ANGSTROEM)
--------------------------------
 C      0   0   0     0.000000000000     0.00000000     0.00000000
 C      1   0   0     1.540112976090     0.00000000     0.00000000
 O      2   1   0     1.442210276477   110.05133550     0.00000000
 C      3   2   1     1.365598451558   117.82747395   104.37827937
 O      4   3   2     1.218435412248   119.14097091    72.79017792
 C      4   3   2     1.496288508635   112.63101928   282.97251521
 C      6   4   3     1.354454924780   122.53665558   311.36801525
 C      7   6   4     1.514212672520   126.94162573   358.27619331
 N      7   6   4     1.397331403175   119.83831771   182.63114297
 C      9   7   6     1.370755183440   124.62591729     7.48706679
 S     10   9   7     1.653627416301   121.72913640   175.63176718
 N     10   9   7     1.373359967371   116.62102649   355.51218859
 C     12  10   9     1.476349170851   125.08287079   352.97817917
 C     13  12  10     1.526831327665   110.92523044   249.87086845
 C     14  13  12     1.407047350616   120.32844073   227.32752846
 C     15  14  13     1.404797431143   120.71050449   181.42953276
 C     16  15  14     1.405071851076   119.66464853     0.04699074
 C     17  16  15     1.401157374737   119.84846360     0.00000000
 O     18  17  16     1.356625458088   120.04616447   179.36446831
 C     18  17  16     1.398207343385   120.34522370   359.94457448
 H      1   2   3     1.094946598448   111.54466186   296.74989868
 H      1   2   3     1.096910458589   110.10464501   177.36331775
 H      1   2   3     1.096576331890   110.68917483    58.04423168
 H      2   1   3     1.099322855228   110.31389715   123.02948167
 H      2   1   3     1.097598567704   108.72719048   240.77271195
 H      8   7   6     1.095928704306   110.98103003    88.82284139
 H      8   7   6     1.097135539362   111.39965851   328.85010047
 H      8   7   6     1.097005603110   111.97058421   209.44150617
 H      9   7   6     1.007804191958   119.76439186   182.50401038
 H     12  10   9     1.012104687523   114.88493590   181.51714976
 H     13  12  10     1.099840086135   107.70422931   131.60020351
 H     15  14  13     1.087832728201   119.78077567     0.18849687
 H     16  15  14     1.088736215834   119.89173239   179.63640661
 H     17  16  15     1.085038440402   119.89214226   179.78397805
 H     19  18  17     0.969221686886   107.46075460     4.88596229
 H     20  18  17     1.084741190002   119.01349386   179.99689367

---------------------------
INTERNAL COORDINATES (A.U.)
---------------------------
 C      0   0   0     0.000000000000     0.00000000     0.00000000
 C      1   0   0     2.910391740108     0.00000000     0.00000000
 O      2   1   0     2.725382450069   110.05133550     0.00000000
 C      3   2   1     2.580607082352   117.82747395   104.37827937
 O      4   3   2     2.302509241020   119.14097091    72.79017792
 C      4   3   2     2.827575498654   112.63101928   282.97251521
 C      6   4   3     2.559548868575   122.53665558   311.36801525
 C      7   6   4     2.861447259576   126.94162573   358.27619331
 N      7   6   4     2.640573670329   119.83831771   182.63114297
 C      9   7   6     2.590351893355   124.62591729     7.48706679
 S     10   9   7     3.124902944352   121.72913640   175.63176718
 N     10   9   7     2.595274221623   116.62102649   355.51218859
 C     12  10   9     2.789895610950   125.08287079   352.97817917
 C     13  12  10     2.885293061979   110.92523044   249.87086845
 C     14  13  12     2.658934150123   120.32844073   227.32752846
 C     15  14  13     2.654682418496   120.71050449   181.42953276
 C     16  15  14     2.655200997016   119.66464853     0.04699074
 C     17  16  15     2.647803708777   119.84846360     0.00000000
 O     18  17  16     2.563650582092   120.04616447   179.36446831
 C     18  17  16     2.642228957436   120.34522370   359.94457448
 H      1   2   3     2.069149202335   111.54466186   296.74989868
 H      1   2   3     2.072860360167   110.10464501   177.36331775
 H      1   2   3     2.072228952211   110.68917483    58.04423168
 H      2   1   3     2.077419129141   110.31389715   123.02948167
 H      2   1   3     2.074160697944   108.72719048   240.77271195
 H      8   7   6     2.071005113441   110.98103003    88.82284139
 H      8   7   6     2.073285701185   111.39965851   328.85010047
 H      8   7   6     2.073040157256   111.97058421   209.44150617
 H      9   7   6     1.904473919418   119.76439186   182.50401038
 H     12  10   9     1.912600678277   114.88493590   181.51714976
 H     13  12  10     2.078396553904   107.70422931   131.60020351
 H     15  14  13     2.055705935815   119.78077567     0.18849687
 H     16  15  14     2.057413280008   119.89173239   179.63640661
 H     17  16  15     2.050425497137   119.89214226   179.78397805
 H     19  18  17     1.831563551271   107.46075460     4.88596229
 H     20  18  17     2.049863775287   119.01349386   179.99689367

---------------------
BASIS SET INFORMATION
---------------------
There are 5 groups of distinct atoms

 Group   1 Type C   : 18s5p2d1f contracted to 4s3p2d1f pattern {8811/311/11/1}
 Group   2 Type O   : 18s5p2d1f contracted to 4s3p2d1f pattern {8811/311/11/1}
 Group   3 Type N   : 18s5p2d1f contracted to 4s3p2d1f pattern {8811/311/11/1}
 Group   4 Type S   : 41s16p2d1f contracted to 5s4p2d1f pattern {13131311/7711/11/1}
 Group   5 Type H   : 5s2p1d contracted to 3s2p1d pattern {311/11/1}

Atom   0C    basis set group =>   1
Atom   1C    basis set group =>   1
Atom   2O    basis set group =>   2
Atom   3C    basis set group =>   1
Atom   4O    basis set group =>   2
Atom   5C    basis set group =>   1
Atom   6C    basis set group =>   1
Atom   7C    basis set group =>   1
Atom   8N    basis set group =>   3
Atom   9C    basis set group =>   1
Atom  10S    basis set group =>   4
Atom  11N    basis set group =>   3
Atom  12C    basis set group =>   1
Atom  13C    basis set group =>   1
Atom  14C    basis set group =>   1
Atom  15C    basis set group =>   1
Atom  16C    basis set group =>   1
Atom  17C    basis set group =>   1
Atom  18O    basis set group =>   2
Atom  19C    basis set group =>   1
Atom  20H    basis set group =>   5
Atom  21H    basis set group =>   5
Atom  22H    basis set group =>   5
Atom  23H    basis set group =>   5
Atom  24H    basis set group =>   5
Atom  25H    basis set group =>   5
Atom  26H    basis set group =>   5
Atom  27H    basis set group =>   5
Atom  28H    basis set group =>   5
Atom  29H    basis set group =>   5
Atom  30H    basis set group =>   5
Atom  31H    basis set group =>   5
Atom  32H    basis set group =>   5
Atom  33H    basis set group =>   5
Atom  34H    basis set group =>   5
Atom  35H    basis set group =>   5
---------------------------------
AUXILIARY/C BASIS SET INFORMATION
---------------------------------
There are 5 groups of distinct atoms

 Group   1 Type C   : 8s6p5d3f1g contracted to 8s6p5d3f1g pattern {11111111/111111/11111/111/1}
 Group   2 Type O   : 8s6p5d3f1g contracted to 8s6p5d3f1g pattern {11111111/111111/11111/111/1}
 Group   3 Type N   : 8s6p5d3f1g contracted to 8s6p5d3f1g pattern {11111111/111111/11111/111/1}
 Group   4 Type S   : 10s8p7d5f2g contracted to 10s8p7d5f2g pattern {1111111111/11111111/1111111/11111/11}
 Group   5 Type H   : 4s3p2d1f contracted to 4s3p2d1f pattern {1111/111/11/1}

Atom   0C    basis set group =>   1
Atom   1C    basis set group =>   1
Atom   2O    basis set group =>   2
Atom   3C    basis set group =>   1
Atom   4O    basis set group =>   2
Atom   5C    basis set group =>   1
Atom   6C    basis set group =>   1
Atom   7C    basis set group =>   1
Atom   8N    basis set group =>   3
Atom   9C    basis set group =>   1
Atom  10S    basis set group =>   4
Atom  11N    basis set group =>   3
Atom  12C    basis set group =>   1
Atom  13C    basis set group =>   1
Atom  14C    basis set group =>   1
Atom  15C    basis set group =>   1
Atom  16C    basis set group =>   1
Atom  17C    basis set group =>   1
Atom  18O    basis set group =>   2
Atom  19C    basis set group =>   1
Atom  20H    basis set group =>   5
Atom  21H    basis set group =>   5
Atom  22H    basis set group =>   5
Atom  23H    basis set group =>   5
Atom  24H    basis set group =>   5
Atom  25H    basis set group =>   5
Atom  26H    basis set group =>   5
Atom  27H    basis set group =>   5
Atom  28H    basis set group =>   5
Atom  29H    basis set group =>   5
Atom  30H    basis set group =>   5
Atom  31H    basis set group =>   5
Atom  32H    basis set group =>   5
Atom  33H    basis set group =>   5
Atom  34H    basis set group =>   5
Atom  35H    basis set group =>   5
------------------------------------------------------------------------------
                           ORCA GTO INTEGRAL CALCULATION
------------------------------------------------------------------------------

                         BASIS SET STATISTICS AND STARTUP INFO

 # of primitive gaussian shells          ...  682
 # of primitive gaussian functions       ... 1312
 # of contracted shells                  ...  298
 # of contracted basis functions         ...  828
 Highest angular momentum                ...    3
 Maximum contraction depth               ...   13
 Integral package used                   ... LIBINT
 Integral threshhold            Thresh   ...  2.500e-11
 Primitive cut-off              TCut     ...  2.500e-12


------------------------------ INTEGRAL EVALUATION ----------------------------


 * One electron integrals 
 Pre-screening matrix                    ... done
 Shell pair data                         ... done (   0.013 sec)

-------------------------------------------------------------------------------
                                 ORCA SCF
-------------------------------------------------------------------------------

------------
SCF SETTINGS
------------
Hamiltonian:
 Ab initio Hamiltonian  Method          .... Hartree-Fock(GTOs)


General Settings:
 Integral files         IntName         .... CONFS/Conf754.orca
 Hartree-Fock type      HFTyp           .... RHF
 Total Charge           Charge          ....    0
 Multiplicity           Mult            ....    1
 Number of Electrons    NEL             ....  154
 Basis Dimension        Dim             ....  828
 Nuclear Repulsion      ENuc            ....   1747.1642956320 Eh

Convergence Acceleration:
 DIIS                   CNVDIIS         .... on
   Start iteration      DIISMaxIt       ....    12
   Startup error        DIISStart       ....  0.200000
   # of expansion vecs  DIISMaxEq       ....     5
   Bias factor          DIISBfac        ....   1.050
   Max. coefficient     DIISMaxC        ....  10.000
 Newton-Raphson         CNVNR           .... off
 SOSCF                  CNVSOSCF        .... on
   Start iteration      SOSCFMaxIt      ....   150
   Startup grad/error   SOSCFStart      ....  0.003300
 Level Shifting         CNVShift        .... on
   Level shift para.    LevelShift      ....    0.2500
   Turn off err/grad.   ShiftErr        ....    0.0010
 Zerner damping         CNVZerner       .... off
 Static damping         CNVDamp         .... on
   Fraction old density DampFac         ....    0.7000
   Max. Damping (<1)    DampMax         ....    0.9800
   Min. Damping (>=0)   DampMin         ....    0.0000
   Turn off err/grad.   DampErr         ....    0.1000
 Fernandez-Rico         CNVRico         .... off

SCF Procedure:
 Maximum # iterations   MaxIter         ....   125
 SCF integral mode      SCFMode         .... Direct
   Integral package                     .... LIBINT
 Reset frequency        DirectResetFreq ....    20
 Integral Threshold     Thresh          ....  2.500e-11 Eh
 Primitive CutOff       TCut            ....  2.500e-12 Eh

Convergence Tolerance:
 Convergence Check Mode ConvCheckMode   .... Total+1el-Energy
 Convergence forced     ConvForced      .... 1
 Energy Change          TolE            ....  1.000e-08 Eh
 1-El. energy change                    ....  1.000e-05 Eh
 Orbital Gradient       TolG            ....  1.000e-05
 Orbital Rotation angle TolX            ....  1.000e-05
 DIIS Error             TolErr          ....  5.000e-07


Diagonalization of the overlap matrix:
Smallest eigenvalue                        ... 3.233e-05
Time for diagonalization                   ...    0.283 sec
Threshold for overlap eigenvalues          ... 1.000e-08
Number of eigenvalues below threshold      ... 0
Time for construction of square roots      ...    0.249 sec
Total time needed                          ...    0.533 sec

-------------------
DFT GRID GENERATION
-------------------

General Integration Accuracy     IntAcc      ...  4.340
Radial Grid Type                 RadialGrid  ... Gauss-Chebyshev
Angular Grid (max. acc.)         AngularGrid ... Lebedev-110
Angular grid pruning method      GridPruning ... 3 (G Style)
Weight generation scheme         WeightScheme... Becke
Basis function cutoff            BFCut       ...    1.0000e-11
Integration weight cutoff        WCut        ...    1.0000e-14
Grids for H and He will be reduced by one unit

# of grid points (after initial pruning)     ...  46246 (   0.0 sec)
# of grid points (after weights+screening)   ...  41075 (   0.3 sec)
nearest neighbour list constructed           ...    0.0 sec
Grid point re-assignment to atoms done       ...    0.0 sec
Grid point division into batches done        ...    0.0 sec
Reduced shell lists constructed in    0.8 sec

Total number of grid points                  ...    41075
Total number of batches                      ...      659
Average number of points per batch           ...       62
Average number of grid points per atom       ...     1141
Average number of shells per batch           ...   157.72 (52.93%)
Average number of basis functions per batch  ...   402.07 (48.56%)
Average number of large shells per batch     ...   101.48 (64.34%)
Average number of large basis fcns per batch ...   258.82 (64.37%)
Maximum spatial batch extension              ...  25.32, 20.64, 20.05 au
Average spatial batch extension              ...   3.53,  3.45,  3.40 au

Time for grid setup =    1.148 sec

------------------------------
INITIAL GUESS: MODEL POTENTIAL
------------------------------
Loading Hartree-Fock densities                     ... done
Calculating cut-offs                               ... done
Setting up the integral package                    ... done
Initializing the effective Hamiltonian             ... done
Starting the Coulomb interaction                   ... done (   3.0 sec)
Reading the grid                                   ... done
Mapping shells                                     ... done
Starting the XC term evaluation                    ... done (   1.1 sec)
Transforming the Hamiltonian                       ... done (   0.2 sec)
Diagonalizing the Hamiltonian                      ... done (   0.3 sec)
Back transforming the eigenvectors                 ... done (   0.1 sec)
Now organizing SCF variables                       ... done
                      ------------------
                      INITIAL GUESS DONE (   6.3 sec)
                      ------------------
--------------
SCF ITERATIONS
--------------
ITER       Energy         Delta-E        Max-DP      RMS-DP      [F,P]     Damp
               ***  Starting incremental Fock matrix formation  ***
  0  -1269.9835217178   0.000000000000 0.04933830  0.00045082  0.3075590 0.7000
  1  -1270.2514301480  -0.267908430201 0.03610047  0.00036451  0.1814421 0.7000
                               ***Turning on DIIS***
  2  -1270.4180564741  -0.166626326045 0.02585420  0.00024214  0.1097243 0.7000
  3  -1272.5627360501  -2.144679575964 0.06318198  0.00051985  0.0828203 0.0000
  4  -1270.7262054100   1.836530640086 0.01422207  0.00010644  0.0068361 0.0000
  5  -1270.7873076813  -0.061102271320 0.00620286  0.00005612  0.0038134 0.0000
                      *** Initiating the SOSCF procedure ***
                           *** Shutting down DIIS ***
                      *** Re-Reading the Fockian *** 
                      *** Removing any level shift *** 
ITER      Energy       Delta-E        Grad      Rot      Max-DP    RMS-DP
  6  -1270.76512546   0.0221822180  0.002090  0.002090  0.003301  0.000029
               *** Restarting incremental Fock matrix formation ***
  7  -1270.78000058  -0.0148751209  0.001183  0.003058  0.002234  0.000019
  8  -1270.78005608  -0.0000554945  0.000560  0.003821  0.002716  0.000022
  9  -1270.78007839  -0.0000223149  0.000156  0.000390  0.000392  0.000005
 10  -1270.78008145  -0.0000030574  0.000054  0.000133  0.000133  0.000002
 11  -1270.78008174  -0.0000002889  0.000024  0.000149  0.000093  0.000001
 12  -1270.78008182  -0.0000000830  0.000012  0.000047  0.000029  0.000000
 13  -1270.78008183  -0.0000000076  0.000004  0.000009  0.000007  0.000000
                 **** Energy Check signals convergence ****
              ***Rediagonalizing the Fockian in SOSCF/NRSCF***

               *****************************************************
               *                     SUCCESS                       *
               *           SCF CONVERGED AFTER  14 CYCLES          *
               *****************************************************


----------------
TOTAL SCF ENERGY
----------------

Total Energy       :        -1270.78008183 Eh          -34579.68402 eV

Components:
Nuclear Repulsion  :         1747.16429563 Eh           47542.75751 eV
Electronic Energy  :        -3017.94437746 Eh          -82122.44153 eV
One Electron Energy:        -5215.24063981 Eh         -141913.91257 eV
Two Electron Energy:         2197.29626235 Eh           59791.47104 eV

Virial components:
Potential Energy   :        -2539.84072691 Eh          -69112.57979 eV
Kinetic Energy     :         1269.06064508 Eh           34532.89577 eV
Virial Ratio       :            2.00135489


---------------
SCF CONVERGENCE
---------------

  Last Energy change         ...    1.9918e-09  Tolerance :   1.0000e-08
  Last MAX-Density change    ...    4.1626e-06  Tolerance :   1.0000e-07
  Last RMS-Density change    ...    4.5378e-08  Tolerance :   5.0000e-09
  Last Orbital Gradient      ...    1.5800e-06  Tolerance :   1.0000e-05
  Last Orbital Rotation      ...    4.5282e-06  Tolerance :   1.0000e-05

             **** THE GBW FILE WAS UPDATED (CONFS/Conf754.orca.gbw) ****
             **** DENSITY FILE WAS UPDATED (CONFS/Conf754.orca.scfp) ****
             **** ENERGY FILE WAS UPDATED (CONFS/Conf754.orca.en.tmp) ****
             **** THE GBW FILE WAS UPDATED (CONFS/Conf754.orca.gbw) ****
             **** DENSITY FILE WAS UPDATED (CONFS/Conf754.orca.scfp) ****
----------------
ORBITAL ENERGIES
----------------

  NO   OCC          E(Eh)            E(eV) 
   0   2.0000     -91.890725     -2500.4738 
   1   2.0000     -20.598985      -560.5269 
   2   2.0000     -20.578500      -559.9694 
   3   2.0000     -20.557745      -559.4047 
   4   2.0000     -15.629776      -425.3078 
   5   2.0000     -15.610632      -424.7869 
   6   2.0000     -11.394175      -310.0513 
   7   2.0000     -11.386557      -309.8440 
   8   2.0000     -11.333005      -308.3868 
   9   2.0000     -11.315432      -307.9086 
  10   2.0000     -11.312056      -307.8167 
  11   2.0000     -11.299836      -307.4842 
  12   2.0000     -11.261968      -306.4537 
  13   2.0000     -11.261324      -306.4362 
  14   2.0000     -11.260780      -306.4214 
  15   2.0000     -11.255453      -306.2764 
  16   2.0000     -11.245328      -306.0009 
  17   2.0000     -11.241101      -305.8859 
  18   2.0000     -11.237772      -305.7953 
  19   2.0000     -11.228770      -305.5504 
  20   2.0000      -8.895795      -242.0669 
  21   2.0000      -6.577372      -178.9794 
  22   2.0000      -6.575362      -178.9247 
  23   2.0000      -6.574776      -178.9087 
  24   2.0000      -1.450144       -39.4604 
  25   2.0000      -1.418760       -38.6064 
  26   2.0000      -1.354845       -36.8672 
  27   2.0000      -1.341255       -36.4974 
  28   2.0000      -1.239829       -33.7375 
  29   2.0000      -1.159619       -31.5548 
  30   2.0000      -1.123582       -30.5742 
  31   2.0000      -1.046980       -28.4898 
  32   2.0000      -1.032867       -28.1057 
  33   2.0000      -1.017204       -27.6795 
  34   2.0000      -1.001851       -27.2617 
  35   2.0000      -0.988673       -26.9032 
  36   2.0000      -0.926216       -25.2036 
  37   2.0000      -0.885603       -24.0985 
  38   2.0000      -0.850176       -23.1345 
  39   2.0000      -0.841121       -22.8881 
  40   2.0000      -0.835836       -22.7443 
  41   2.0000      -0.826867       -22.5002 
  42   2.0000      -0.755236       -20.5510 
  43   2.0000      -0.735786       -20.0218 
  44   2.0000      -0.730268       -19.8716 
  45   2.0000      -0.697432       -18.9781 
  46   2.0000      -0.687623       -18.7112 
  47   2.0000      -0.679250       -18.4833 
  48   2.0000      -0.675359       -18.3774 
  49   2.0000      -0.659484       -17.9455 
  50   2.0000      -0.655394       -17.8342 
  51   2.0000      -0.645460       -17.5639 
  52   2.0000      -0.638118       -17.3641 
  53   2.0000      -0.609231       -16.5780 
  54   2.0000      -0.606369       -16.5001 
  55   2.0000      -0.602967       -16.4076 
  56   2.0000      -0.595515       -16.2048 
  57   2.0000      -0.583462       -15.8768 
  58   2.0000      -0.578000       -15.7282 
  59   2.0000      -0.574735       -15.6393 
  60   2.0000      -0.564047       -15.3485 
  61   2.0000      -0.552608       -15.0372 
  62   2.0000      -0.543544       -14.7906 
  63   2.0000      -0.524462       -14.2713 
  64   2.0000      -0.517177       -14.0731 
  65   2.0000      -0.510708       -13.8971 
  66   2.0000      -0.503109       -13.6903 
  67   2.0000      -0.498537       -13.5659 
  68   2.0000      -0.484009       -13.1706 
  69   2.0000      -0.466620       -12.6974 
  70   2.0000      -0.454733       -12.3739 
  71   2.0000      -0.452184       -12.3046 
  72   2.0000      -0.355612        -9.6767 
  73   2.0000      -0.351071        -9.5531 
  74   2.0000      -0.330029        -8.9805 
  75   2.0000      -0.323072        -8.7912 
  76   2.0000      -0.318187        -8.6583 
  77   0.0000       0.069631         1.8948 
  78   0.0000       0.101993         2.7754 
  79   0.0000       0.119183         3.2431 
  80   0.0000       0.128478         3.4961 
  81   0.0000       0.132928         3.6172 
  82   0.0000       0.145139         3.9494 
  83   0.0000       0.149712         4.0739 
  84   0.0000       0.152432         4.1479 
  85   0.0000       0.158639         4.3168 
  86   0.0000       0.170347         4.6354 
  87   0.0000       0.174561         4.7500 
  88   0.0000       0.191747         5.2177 
  89   0.0000       0.195886         5.3303 
  90   0.0000       0.199793         5.4366 
  91   0.0000       0.208011         5.6603 
  92   0.0000       0.211492         5.7550 
  93   0.0000       0.218891         5.9563 
  94   0.0000       0.232447         6.3252 
  95   0.0000       0.234520         6.3816 
  96   0.0000       0.244411         6.6508 
  97   0.0000       0.254193         6.9169 
  98   0.0000       0.268714         7.3121 
  99   0.0000       0.287198         7.8151 
 100   0.0000       0.291642         7.9360 
 101   0.0000       0.304216         8.2781 
 102   0.0000       0.312200         8.4954 
 103   0.0000       0.323387         8.7998 
 104   0.0000       0.328721         8.9449 
 105   0.0000       0.332484         9.0474 
 106   0.0000       0.339959         9.2508 
 107   0.0000       0.346692         9.4340 
 108   0.0000       0.351992         9.5782 
 109   0.0000       0.358522         9.7559 
 110   0.0000       0.374055        10.1786 
 111   0.0000       0.379326        10.3220 
 112   0.0000       0.389663        10.6033 
 113   0.0000       0.392310        10.6753 
 114   0.0000       0.397271        10.8103 
 115   0.0000       0.402257        10.9460 
 116   0.0000       0.420670        11.4470 
 117   0.0000       0.423215        11.5163 
 118   0.0000       0.434027        11.8105 
 119   0.0000       0.445463        12.1217 
 120   0.0000       0.450711        12.2645 
 121   0.0000       0.451866        12.2959 
 122   0.0000       0.457638        12.4530 
 123   0.0000       0.463470        12.6117 
 124   0.0000       0.468914        12.7598 
 125   0.0000       0.472263        12.8509 
 126   0.0000       0.481527        13.1030 
 127   0.0000       0.485728        13.2173 
 128   0.0000       0.493039        13.4163 
 129   0.0000       0.501998        13.6600 
 130   0.0000       0.502624        13.6771 
 131   0.0000       0.511113        13.9081 
 132   0.0000       0.513973        13.9859 
 133   0.0000       0.517867        14.0919 
 134   0.0000       0.520995        14.1770 
 135   0.0000       0.528827        14.3901 
 136   0.0000       0.537279        14.6201 
 137   0.0000       0.541948        14.7472 
 138   0.0000       0.550102        14.9690 
 139   0.0000       0.555109        15.1053 
 140   0.0000       0.558597        15.2002 
 141   0.0000       0.564072        15.3492 
 142   0.0000       0.566263        15.4088 
 143   0.0000       0.572406        15.5760 
 144   0.0000       0.574936        15.6448 
 145   0.0000       0.580320        15.7913 
 146   0.0000       0.587168        15.9777 
 147   0.0000       0.591816        16.1041 
 148   0.0000       0.597655        16.2630 
 149   0.0000       0.606229        16.4963 
 150   0.0000       0.608661        16.5625 
 151   0.0000       0.611582        16.6420 
 152   0.0000       0.616666        16.7803 
 153   0.0000       0.622356        16.9352 
 154   0.0000       0.625416        17.0184 
 155   0.0000       0.626040        17.0354 
 156   0.0000       0.631322        17.1791 
 157   0.0000       0.639814        17.4102 
 158   0.0000       0.640978        17.4419 
 159   0.0000       0.649919        17.6852 
 160   0.0000       0.653235        17.7754 
 161   0.0000       0.659449        17.9445 
 162   0.0000       0.666337        18.1320 
 163   0.0000       0.669711        18.2238 
 164   0.0000       0.670357        18.2414 
 165   0.0000       0.679504        18.4903 
 166   0.0000       0.683204        18.5909 
 167   0.0000       0.689098        18.7513 
 168   0.0000       0.694832        18.9073 
 169   0.0000       0.702727        19.1222 
 170   0.0000       0.706020        19.2118 
 171   0.0000       0.717707        19.5298 
 172   0.0000       0.726608        19.7720 
 173   0.0000       0.729948        19.8629 
 174   0.0000       0.731286        19.8993 
 175   0.0000       0.741387        20.1742 
 176   0.0000       0.746125        20.3031 
 177   0.0000       0.750504        20.4223 
 178   0.0000       0.755903        20.5692 
 179   0.0000       0.761257        20.7149 
 180   0.0000       0.771181        20.9849 
 181   0.0000       0.777948        21.1691 
 182   0.0000       0.782517        21.2934 
 183   0.0000       0.788081        21.4448 
 184   0.0000       0.800057        21.7707 
 185   0.0000       0.810751        22.0617 
 186   0.0000       0.818888        22.2831 
 187   0.0000       0.828588        22.5470 
 188   0.0000       0.830676        22.6038 
 189   0.0000       0.842399        22.9228 
 190   0.0000       0.848584        23.0911 
 191   0.0000       0.860191        23.4070 
 192   0.0000       0.862400        23.4671 
 193   0.0000       0.868290        23.6274 
 194   0.0000       0.880480        23.9591 
 195   0.0000       0.883649        24.0453 
 196   0.0000       0.891512        24.2593 
 197   0.0000       0.896227        24.3876 
 198   0.0000       0.900723        24.5099 
 199   0.0000       0.916247        24.9323 
 200   0.0000       0.919788        25.0287 
 201   0.0000       0.926368        25.2077 
 202   0.0000       0.934516        25.4295 
 203   0.0000       0.951305        25.8863 
 204   0.0000       0.952256        25.9122 
 205   0.0000       0.955732        26.0068 
 206   0.0000       0.966157        26.2905 
 207   0.0000       0.967656        26.3313 
 208   0.0000       0.973927        26.5019 
 209   0.0000       0.977814        26.6077 
 210   0.0000       0.990044        26.9405 
 211   0.0000       0.996839        27.1254 
 212   0.0000       0.998314        27.1655 
 213   0.0000       1.006313        27.3832 
 214   0.0000       1.016969        27.6731 
 215   0.0000       1.023165        27.8417 
 216   0.0000       1.027395        27.9569 
 217   0.0000       1.038577        28.2611 
 218   0.0000       1.040986        28.3267 
 219   0.0000       1.042689        28.3730 
 220   0.0000       1.055453        28.7203 
 221   0.0000       1.060000        28.8441 
 222   0.0000       1.076618        29.2963 
 223   0.0000       1.080157        29.3926 
 224   0.0000       1.088011        29.6063 
 225   0.0000       1.093207        29.7477 
 226   0.0000       1.101991        29.9867 
 227   0.0000       1.112913        30.2839 
 228   0.0000       1.118703        30.4414 
 229   0.0000       1.127929        30.6925 
 230   0.0000       1.132741        30.8235 
 231   0.0000       1.136488        30.9254 
 232   0.0000       1.149538        31.2805 
 233   0.0000       1.161497        31.6059 
 234   0.0000       1.166175        31.7332 
 235   0.0000       1.169089        31.8125 
 236   0.0000       1.176456        32.0130 
 237   0.0000       1.180302        32.1176 
 238   0.0000       1.187373        32.3101 
 239   0.0000       1.201188        32.6860 
 240   0.0000       1.210194        32.9311 
 241   0.0000       1.213812        33.0295 
 242   0.0000       1.224157        33.3110 
 243   0.0000       1.226918        33.3861 
 244   0.0000       1.237009        33.6607 
 245   0.0000       1.239677        33.7333 
 246   0.0000       1.247073        33.9346 
 247   0.0000       1.258320        34.2406 
 248   0.0000       1.265144        34.4263 
 249   0.0000       1.269589        34.5473 
 250   0.0000       1.274020        34.6678 
 251   0.0000       1.287079        35.0232 
 252   0.0000       1.294135        35.2152 
 253   0.0000       1.297741        35.3133 
 254   0.0000       1.303781        35.4777 
 255   0.0000       1.309011        35.6200 
 256   0.0000       1.313999        35.7557 
 257   0.0000       1.323469        36.0134 
 258   0.0000       1.334783        36.3213 
 259   0.0000       1.335755        36.3477 
 260   0.0000       1.350701        36.7544 
 261   0.0000       1.362580        37.0777 
 262   0.0000       1.365803        37.1654 
 263   0.0000       1.370312        37.2881 
 264   0.0000       1.387106        37.7451 
 265   0.0000       1.394603        37.9491 
 266   0.0000       1.399355        38.0784 
 267   0.0000       1.408687        38.3323 
 268   0.0000       1.419644        38.6305 
 269   0.0000       1.420939        38.6657 
 270   0.0000       1.430253        38.9192 
 271   0.0000       1.436006        39.0757 
 272   0.0000       1.441474        39.2245 
 273   0.0000       1.444197        39.2986 
 274   0.0000       1.457515        39.6610 
 275   0.0000       1.459592        39.7175 
 276   0.0000       1.475756        40.1574 
 277   0.0000       1.481716        40.3195 
 278   0.0000       1.492322        40.6081 
 279   0.0000       1.498498        40.7762 
 280   0.0000       1.503254        40.9056 
 281   0.0000       1.507408        41.0187 
 282   0.0000       1.515519        41.2394 
 283   0.0000       1.521837        41.4113 
 284   0.0000       1.528494        41.5924 
 285   0.0000       1.531493        41.6741 
 286   0.0000       1.536180        41.8016 
 287   0.0000       1.548937        42.1487 
 288   0.0000       1.560387        42.4603 
 289   0.0000       1.564106        42.5615 
 290   0.0000       1.570924        42.7470 
 291   0.0000       1.575781        42.8792 
 292   0.0000       1.587460        43.1970 
 293   0.0000       1.590874        43.2899 
 294   0.0000       1.597029        43.4574 
 295   0.0000       1.605966        43.7006 
 296   0.0000       1.610275        43.8178 
 297   0.0000       1.625669        44.2367 
 298   0.0000       1.629080        44.3295 
 299   0.0000       1.632177        44.4138 
 300   0.0000       1.649195        44.8769 
 301   0.0000       1.649688        44.8903 
 302   0.0000       1.664195        45.2850 
 303   0.0000       1.671889        45.4944 
 304   0.0000       1.686028        45.8792 
 305   0.0000       1.690536        46.0018 
 306   0.0000       1.695958        46.1494 
 307   0.0000       1.702046        46.3150 
 308   0.0000       1.707251        46.4567 
 309   0.0000       1.716357        46.7045 
 310   0.0000       1.720497        46.8171 
 311   0.0000       1.732733        47.1501 
 312   0.0000       1.748885        47.5896 
 313   0.0000       1.757890        47.8346 
 314   0.0000       1.762391        47.9571 
 315   0.0000       1.773418        48.2571 
 316   0.0000       1.784423        48.5566 
 317   0.0000       1.788572        48.6695 
 318   0.0000       1.810063        49.2543 
 319   0.0000       1.817492        49.4565 
 320   0.0000       1.828391        49.7530 
 321   0.0000       1.843040        50.1517 
 322   0.0000       1.846958        50.2583 
 323   0.0000       1.856896        50.5287 
 324   0.0000       1.866927        50.8017 
 325   0.0000       1.873628        50.9840 
 326   0.0000       1.880383        51.1678 
 327   0.0000       1.903860        51.8067 
 328   0.0000       1.917004        52.1643 
 329   0.0000       1.922350        52.3098 
 330   0.0000       1.929251        52.4976 
 331   0.0000       1.940583        52.8060 
 332   0.0000       1.947657        52.9985 
 333   0.0000       1.970027        53.6072 
 334   0.0000       1.977040        53.7980 
 335   0.0000       1.987288        54.0769 
 336   0.0000       2.003497        54.5179 
 337   0.0000       2.011172        54.7268 
 338   0.0000       2.017903        54.9099 
 339   0.0000       2.024991        55.1028 
 340   0.0000       2.037124        55.4330 
 341   0.0000       2.045404        55.6583 
 342   0.0000       2.069669        56.3186 
 343   0.0000       2.073025        56.4099 
 344   0.0000       2.097410        57.0734 
 345   0.0000       2.100034        57.1448 
 346   0.0000       2.132280        58.0223 
 347   0.0000       2.144401        58.3521 
 348   0.0000       2.155334        58.6496 
 349   0.0000       2.163729        58.8781 
 350   0.0000       2.182003        59.3753 
 351   0.0000       2.202677        59.9379 
 352   0.0000       2.215384        60.2837 
 353   0.0000       2.234349        60.7997 
 354   0.0000       2.242902        61.0325 
 355   0.0000       2.253390        61.3179 
 356   0.0000       2.282815        62.1185 
 357   0.0000       2.290080        62.3162 
 358   0.0000       2.291087        62.3436 
 359   0.0000       2.312611        62.9293 
 360   0.0000       2.323878        63.2359 
 361   0.0000       2.334425        63.5229 
 362   0.0000       2.347810        63.8872 
 363   0.0000       2.360235        64.2253 
 364   0.0000       2.366443        64.3942 
 365   0.0000       2.370940        64.5166 
 366   0.0000       2.380119        64.7663 
 367   0.0000       2.404539        65.4308 
 368   0.0000       2.414222        65.6943 
 369   0.0000       2.423080        65.9353 
 370   0.0000       2.450968        66.6942 
 371   0.0000       2.470544        67.2269 
 372   0.0000       2.475294        67.3562 
 373   0.0000       2.487201        67.6802 
 374   0.0000       2.501119        68.0589 
 375   0.0000       2.509967        68.2997 
 376   0.0000       2.517689        68.5098 
 377   0.0000       2.546196        69.2855 
 378   0.0000       2.550971        69.4155 
 379   0.0000       2.570725        69.9530 
 380   0.0000       2.580235        70.2118 
 381   0.0000       2.583884        70.3111 
 382   0.0000       2.603268        70.8385 
 383   0.0000       2.618701        71.2585 
 384   0.0000       2.627197        71.4897 
 385   0.0000       2.636692        71.7480 
 386   0.0000       2.647124        72.0319 
 387   0.0000       2.648274        72.0632 
 388   0.0000       2.655570        72.2617 
 389   0.0000       2.676229        72.8239 
 390   0.0000       2.687007        73.1172 
 391   0.0000       2.689582        73.1873 
 392   0.0000       2.720091        74.0174 
 393   0.0000       2.734086        74.3983 
 394   0.0000       2.744526        74.6823 
 395   0.0000       2.752661        74.9037 
 396   0.0000       2.760625        75.1204 
 397   0.0000       2.768526        75.3354 
 398   0.0000       2.775869        75.5352 
 399   0.0000       2.788185        75.8704 
 400   0.0000       2.791858        75.9703 
 401   0.0000       2.796181        76.0879 
 402   0.0000       2.806877        76.3790 
 403   0.0000       2.829366        76.9910 
 404   0.0000       2.834041        77.1182 
 405   0.0000       2.841015        77.3079 
 406   0.0000       2.852721        77.6265 
 407   0.0000       2.863865        77.9297 
 408   0.0000       2.871380        78.1342 
 409   0.0000       2.880391        78.3794 
 410   0.0000       2.885860        78.5282 
 411   0.0000       2.890275        78.6484 
 412   0.0000       2.890899        78.6654 
 413   0.0000       2.908410        79.1419 
 414   0.0000       2.919761        79.4507 
 415   0.0000       2.928516        79.6890 
 416   0.0000       2.935366        79.8754 
 417   0.0000       2.942489        80.0692 
 418   0.0000       2.955392        80.4203 
 419   0.0000       2.963511        80.6412 
 420   0.0000       2.978475        81.0484 
 421   0.0000       2.985033        81.2269 
 422   0.0000       2.996015        81.5257 
 423   0.0000       3.002502        81.7022 
 424   0.0000       3.005709        81.7895 
 425   0.0000       3.014182        82.0201 
 426   0.0000       3.022176        82.2376 
 427   0.0000       3.027325        82.3777 
 428   0.0000       3.032409        82.5160 
 429   0.0000       3.042423        82.7885 
 430   0.0000       3.049412        82.9787 
 431   0.0000       3.051285        83.0297 
 432   0.0000       3.066646        83.4477 
 433   0.0000       3.072820        83.6157 
 434   0.0000       3.076482        83.7153 
 435   0.0000       3.093231        84.1711 
 436   0.0000       3.098018        84.3014 
 437   0.0000       3.099804        84.3500 
 438   0.0000       3.107912        84.5706 
 439   0.0000       3.119116        84.8755 
 440   0.0000       3.123882        85.0052 
 441   0.0000       3.127014        85.0904 
 442   0.0000       3.133501        85.2669 
 443   0.0000       3.144829        85.5751 
 444   0.0000       3.154038        85.8257 
 445   0.0000       3.163729        86.0895 
 446   0.0000       3.178006        86.4779 
 447   0.0000       3.180862        86.5557 
 448   0.0000       3.189906        86.8018 
 449   0.0000       3.193683        86.9045 
 450   0.0000       3.202001        87.1309 
 451   0.0000       3.213167        87.4347 
 452   0.0000       3.217763        87.5598 
 453   0.0000       3.224422        87.7410 
 454   0.0000       3.229846        87.8886 
 455   0.0000       3.241304        88.2004 
 456   0.0000       3.242184        88.2243 
 457   0.0000       3.250638        88.4544 
 458   0.0000       3.257115        88.6306 
 459   0.0000       3.265667        88.8633 
 460   0.0000       3.268928        88.9521 
 461   0.0000       3.277040        89.1728 
 462   0.0000       3.284350        89.3717 
 463   0.0000       3.295549        89.6764 
 464   0.0000       3.303585        89.8951 
 465   0.0000       3.309810        90.0645 
 466   0.0000       3.315289        90.2136 
 467   0.0000       3.320239        90.3483 
 468   0.0000       3.329963        90.6129 
 469   0.0000       3.331211        90.6469 
 470   0.0000       3.337683        90.8230 
 471   0.0000       3.348540        91.1184 
 472   0.0000       3.353259        91.2468 
 473   0.0000       3.364814        91.5613 
 474   0.0000       3.365261        91.5734 
 475   0.0000       3.370627        91.7194 
 476   0.0000       3.376226        91.8718 
 477   0.0000       3.385000        92.1105 
 478   0.0000       3.388994        92.2192 
 479   0.0000       3.397567        92.4525 
 480   0.0000       3.399714        92.5109 
 481   0.0000       3.402271        92.5805 
 482   0.0000       3.414521        92.9138 
 483   0.0000       3.420892        93.0872 
 484   0.0000       3.427284        93.2611 
 485   0.0000       3.429896        93.3322 
 486   0.0000       3.436299        93.5065 
 487   0.0000       3.443212        93.6946 
 488   0.0000       3.447190        93.8028 
 489   0.0000       3.449396        93.8628 
 490   0.0000       3.453673        93.9792 
 491   0.0000       3.466152        94.3188 
 492   0.0000       3.471600        94.4670 
 493   0.0000       3.473674        94.5235 
 494   0.0000       3.479097        94.6710 
 495   0.0000       3.487703        94.9052 
 496   0.0000       3.494045        95.0778 
 497   0.0000       3.497364        95.1681 
 498   0.0000       3.512705        95.5856 
 499   0.0000       3.515096        95.6506 
 500   0.0000       3.521317        95.8199 
 501   0.0000       3.533276        96.1453 
 502   0.0000       3.537259        96.2537 
 503   0.0000       3.543635        96.4272 
 504   0.0000       3.546999        96.5188 
 505   0.0000       3.560020        96.8731 
 506   0.0000       3.566603        97.0522 
 507   0.0000       3.577318        97.3438 
 508   0.0000       3.582264        97.4784 
 509   0.0000       3.592628        97.7604 
 510   0.0000       3.597651        97.8971 
 511   0.0000       3.599950        97.9596 
 512   0.0000       3.612485        98.3007 
 513   0.0000       3.622563        98.5750 
 514   0.0000       3.625446        98.6534 
 515   0.0000       3.627776        98.7168 
 516   0.0000       3.635010        98.9136 
 517   0.0000       3.643242        99.1377 
 518   0.0000       3.645574        99.2011 
 519   0.0000       3.649928        99.3196 
 520   0.0000       3.655317        99.4662 
 521   0.0000       3.665890        99.7540 
 522   0.0000       3.672665        99.9383 
 523   0.0000       3.685193       100.2792 
 524   0.0000       3.690498       100.4236 
 525   0.0000       3.693575       100.5073 
 526   0.0000       3.697340       100.6097 
 527   0.0000       3.703686       100.7824 
 528   0.0000       3.714383       101.0735 
 529   0.0000       3.723727       101.3277 
 530   0.0000       3.727073       101.4188 
 531   0.0000       3.734057       101.6088 
 532   0.0000       3.739889       101.7676 
 533   0.0000       3.742952       101.8509 
 534   0.0000       3.751571       102.0854 
 535   0.0000       3.757750       102.2536 
 536   0.0000       3.763181       102.4014 
 537   0.0000       3.769646       102.5773 
 538   0.0000       3.776995       102.7773 
 539   0.0000       3.783805       102.9626 
 540   0.0000       3.789174       103.1087 
 541   0.0000       3.794128       103.2435 
 542   0.0000       3.800111       103.4063 
 543   0.0000       3.802893       103.4820 
 544   0.0000       3.814124       103.7876 
 545   0.0000       3.822478       104.0149 
 546   0.0000       3.830519       104.2337 
 547   0.0000       3.833789       104.3227 
 548   0.0000       3.850567       104.7793 
 549   0.0000       3.852996       104.8454 
 550   0.0000       3.867704       105.2456 
 551   0.0000       3.877723       105.5182 
 552   0.0000       3.888942       105.8235 
 553   0.0000       3.894352       105.9707 
 554   0.0000       3.897010       106.0430 
 555   0.0000       3.910762       106.4172 
 556   0.0000       3.918456       106.6266 
 557   0.0000       3.920241       106.6752 
 558   0.0000       3.930899       106.9652 
 559   0.0000       3.935174       107.0815 
 560   0.0000       3.947550       107.4183 
 561   0.0000       3.957924       107.7006 
 562   0.0000       3.965447       107.9053 
 563   0.0000       3.970100       108.0319 
 564   0.0000       3.988788       108.5404 
 565   0.0000       3.991934       108.6261 
 566   0.0000       3.993357       108.6648 
 567   0.0000       4.001618       108.8896 
 568   0.0000       4.011274       109.1523 
 569   0.0000       4.023078       109.4735 
 570   0.0000       4.032824       109.7387 
 571   0.0000       4.037192       109.8576 
 572   0.0000       4.050408       110.2172 
 573   0.0000       4.059626       110.4680 
 574   0.0000       4.071058       110.7791 
 575   0.0000       4.075558       110.9016 
 576   0.0000       4.088874       111.2639 
 577   0.0000       4.092379       111.3593 
 578   0.0000       4.100874       111.5905 
 579   0.0000       4.106616       111.7467 
 580   0.0000       4.112783       111.9145 
 581   0.0000       4.129102       112.3586 
 582   0.0000       4.137346       112.5829 
 583   0.0000       4.140585       112.6710 
 584   0.0000       4.148079       112.8750 
 585   0.0000       4.151781       112.9757 
 586   0.0000       4.155420       113.0747 
 587   0.0000       4.170474       113.4844 
 588   0.0000       4.172130       113.5294 
 589   0.0000       4.181819       113.7931 
 590   0.0000       4.185474       113.8925 
 591   0.0000       4.193650       114.1150 
 592   0.0000       4.195256       114.1587 
 593   0.0000       4.199911       114.2854 
 594   0.0000       4.213181       114.6465 
 595   0.0000       4.225891       114.9923 
 596   0.0000       4.226313       115.0038 
 597   0.0000       4.236983       115.2942 
 598   0.0000       4.254064       115.7590 
 599   0.0000       4.261020       115.9482 
 600   0.0000       4.268709       116.1575 
 601   0.0000       4.274070       116.3033 
 602   0.0000       4.276708       116.3751 
 603   0.0000       4.281605       116.5084 
 604   0.0000       4.294031       116.8465 
 605   0.0000       4.303274       117.0981 
 606   0.0000       4.313106       117.3656 
 607   0.0000       4.316276       117.4519 
 608   0.0000       4.323649       117.6525 
 609   0.0000       4.329160       117.8024 
 610   0.0000       4.341514       118.1386 
 611   0.0000       4.342902       118.1764 
 612   0.0000       4.349990       118.3693 
 613   0.0000       4.365823       118.8001 
 614   0.0000       4.374815       119.0448 
 615   0.0000       4.375583       119.0657 
 616   0.0000       4.395805       119.6159 
 617   0.0000       4.397815       119.6706 
 618   0.0000       4.407020       119.9211 
 619   0.0000       4.417672       120.2110 
 620   0.0000       4.419713       120.2665 
 621   0.0000       4.429254       120.5261 
 622   0.0000       4.438167       120.7687 
 623   0.0000       4.446695       121.0007 
 624   0.0000       4.455273       121.2341 
 625   0.0000       4.458646       121.3259 
 626   0.0000       4.470459       121.6474 
 627   0.0000       4.486593       122.0864 
 628   0.0000       4.493325       122.2696 
 629   0.0000       4.498811       122.4189 
 630   0.0000       4.511203       122.7561 
 631   0.0000       4.518408       122.9521 
 632   0.0000       4.524625       123.1213 
 633   0.0000       4.536000       123.4308 
 634   0.0000       4.546207       123.7086 
 635   0.0000       4.549714       123.8040 
 636   0.0000       4.558213       124.0353 
 637   0.0000       4.559638       124.0740 
 638   0.0000       4.566475       124.2601 
 639   0.0000       4.577667       124.5646 
 640   0.0000       4.597551       125.1057 
 641   0.0000       4.604620       125.2981 
 642   0.0000       4.611607       125.4882 
 643   0.0000       4.617610       125.6516 
 644   0.0000       4.627148       125.9111 
 645   0.0000       4.629296       125.9696 
 646   0.0000       4.636886       126.1761 
 647   0.0000       4.643410       126.3536 
 648   0.0000       4.646998       126.4512 
 649   0.0000       4.656851       126.7194 
 650   0.0000       4.664850       126.9370 
 651   0.0000       4.674564       127.2014 
 652   0.0000       4.681899       127.4009 
 653   0.0000       4.685904       127.5099 
 654   0.0000       4.693094       127.7056 
 655   0.0000       4.712376       128.2303 
 656   0.0000       4.718077       128.3854 
 657   0.0000       4.727828       128.6507 
 658   0.0000       4.736504       128.8868 
 659   0.0000       4.737899       128.9248 
 660   0.0000       4.764007       129.6352 
 661   0.0000       4.778598       130.0323 
 662   0.0000       4.793101       130.4269 
 663   0.0000       4.806027       130.7786 
 664   0.0000       4.815695       131.0417 
 665   0.0000       4.842413       131.7688 
 666   0.0000       4.860264       132.2545 
 667   0.0000       4.868406       132.4761 
 668   0.0000       4.873984       132.6278 
 669   0.0000       4.904904       133.4692 
 670   0.0000       4.908131       133.5570 
 671   0.0000       4.918694       133.8445 
 672   0.0000       4.924386       133.9994 
 673   0.0000       4.943661       134.5238 
 674   0.0000       4.966753       135.1522 
 675   0.0000       4.987257       135.7102 
 676   0.0000       5.013744       136.4309 
 677   0.0000       5.016572       136.5079 
 678   0.0000       5.030434       136.8851 
 679   0.0000       5.043603       137.2434 
 680   0.0000       5.051997       137.4718 
 681   0.0000       5.073433       138.0551 
 682   0.0000       5.090453       138.5183 
 683   0.0000       5.102201       138.8380 
 684   0.0000       5.113565       139.1472 
 685   0.0000       5.124272       139.4385 
 686   0.0000       5.130371       139.6045 
 687   0.0000       5.147298       140.0651 
 688   0.0000       5.152609       140.2096 
 689   0.0000       5.165346       140.5562 
 690   0.0000       5.174883       140.8157 
 691   0.0000       5.185474       141.1039 
 692   0.0000       5.198220       141.4507 
 693   0.0000       5.203499       141.5944 
 694   0.0000       5.219413       142.0274 
 695   0.0000       5.220965       142.0697 
 696   0.0000       5.226623       142.2236 
 697   0.0000       5.230026       142.3162 
 698   0.0000       5.244786       142.7179 
 699   0.0000       5.265244       143.2746 
 700   0.0000       5.267144       143.3263 
 701   0.0000       5.275333       143.5491 
 702   0.0000       5.309065       144.4670 
 703   0.0000       5.324468       144.8861 
 704   0.0000       5.335074       145.1748 
 705   0.0000       5.336157       145.2042 
 706   0.0000       5.346852       145.4952 
 707   0.0000       5.365037       145.9901 
 708   0.0000       5.373833       146.2294 
 709   0.0000       5.377643       146.3331 
 710   0.0000       5.390556       146.6845 
 711   0.0000       5.411158       147.2451 
 712   0.0000       5.436234       147.9275 
 713   0.0000       5.454997       148.4380 
 714   0.0000       5.472326       148.9096 
 715   0.0000       5.488776       149.3572 
 716   0.0000       5.502770       149.7380 
 717   0.0000       5.516097       150.1006 
 718   0.0000       5.520833       150.2295 
 719   0.0000       5.527576       150.4130 
 720   0.0000       5.539507       150.7377 
 721   0.0000       5.547152       150.9457 
 722   0.0000       5.554082       151.1343 
 723   0.0000       5.561621       151.3394 
 724   0.0000       5.578636       151.8024 
 725   0.0000       5.597403       152.3131 
 726   0.0000       5.619888       152.9249 
 727   0.0000       5.622048       152.9837 
 728   0.0000       5.643103       153.5566 
 729   0.0000       5.650787       153.7657 
 730   0.0000       5.659374       153.9994 
 731   0.0000       5.675774       154.4457 
 732   0.0000       5.681762       154.6086 
 733   0.0000       5.699279       155.0853 
 734   0.0000       5.703616       155.2033 
 735   0.0000       5.718242       155.6013 
 736   0.0000       5.723895       155.7551 
 737   0.0000       5.732538       155.9903 
 738   0.0000       5.741047       156.2218 
 739   0.0000       5.754499       156.5879 
 740   0.0000       5.765620       156.8905 
 741   0.0000       5.781739       157.3291 
 742   0.0000       5.792718       157.6279 
 743   0.0000       5.816229       158.2676 
 744   0.0000       5.817288       158.2964 
 745   0.0000       5.837587       158.8488 
 746   0.0000       5.871098       159.7607 
 747   0.0000       5.884815       160.1340 
 748   0.0000       5.911766       160.8673 
 749   0.0000       5.923802       161.1949 
 750   0.0000       5.939419       161.6198 
 751   0.0000       5.965852       162.3391 
 752   0.0000       5.974339       162.5700 
 753   0.0000       5.997400       163.1975 
 754   0.0000       6.009332       163.5222 
 755   0.0000       6.030965       164.1109 
 756   0.0000       6.047786       164.5686 
 757   0.0000       6.054278       164.7453 
 758   0.0000       6.081242       165.4790 
 759   0.0000       6.093415       165.8103 
 760   0.0000       6.107675       166.1983 
 761   0.0000       6.179315       168.1477 
 762   0.0000       6.227431       169.4570 
 763   0.0000       6.245320       169.9438 
 764   0.0000       6.282628       170.9590 
 765   0.0000       6.300102       171.4345 
 766   0.0000       6.306527       171.6093 
 767   0.0000       6.344370       172.6391 
 768   0.0000       6.351602       172.8359 
 769   0.0000       6.372130       173.3945 
 770   0.0000       6.382359       173.6728 
 771   0.0000       6.394731       174.0095 
 772   0.0000       6.406474       174.3290 
 773   0.0000       6.434933       175.1034 
 774   0.0000       6.452164       175.5723 
 775   0.0000       6.462927       175.8652 
 776   0.0000       6.498752       176.8400 
 777   0.0000       6.555223       178.3767 
 778   0.0000       6.605804       179.7531 
 779   0.0000       6.661680       181.2735 
 780   0.0000       6.682523       181.8407 
 781   0.0000       6.686774       181.9564 
 782   0.0000       6.738364       183.3602 
 783   0.0000       6.774083       184.3322 
 784   0.0000       6.832034       185.9091 
 785   0.0000       6.854620       186.5237 
 786   0.0000       6.909339       188.0127 
 787   0.0000       6.923543       188.3992 
 788   0.0000       6.972991       189.7447 
 789   0.0000       7.003040       190.5624 
 790   0.0000       7.053571       191.9374 
 791   0.0000       7.061429       192.1512 
 792   0.0000       7.081947       192.7096 
 793   0.0000       7.136232       194.1867 
 794   0.0000       7.218841       196.4347 
 795   0.0000       7.257167       197.4776 
 796   0.0000       7.263738       197.6564 
 797   0.0000       7.282312       198.1618 
 798   0.0000       7.337294       199.6579 
 799   0.0000       7.345344       199.8770 
 800   0.0000       7.405465       201.5130 
 801   0.0000       7.529011       204.8748 
 802   0.0000       7.580940       206.2879 
 803   0.0000       7.585784       206.4197 
 804   0.0000       7.670458       208.7238 
 805   0.0000       7.821531       212.8347 
 806   0.0000       7.828550       213.0257 
 807   0.0000       7.850695       213.6283 
 808   0.0000       7.933093       215.8704 
 809   0.0000       9.484138       258.0765 
 810   0.0000       9.755952       265.4730 
 811   0.0000      10.801449       293.9224 
 812   0.0000      11.288869       307.1857 
 813   0.0000      11.938239       324.8560 
 814   0.0000      12.611692       343.1816 
 815   0.0000      12.948374       352.3432 
 816   0.0000      13.108305       356.6951 
 817   0.0000      13.153138       357.9151 
 818   0.0000      13.283051       361.4502 
 819   0.0000      13.431288       365.4839 
 820   0.0000      13.493448       367.1754 
 821   0.0000      13.834776       376.4634 
 822   0.0000      13.957362       379.7991 
 823   0.0000      14.062542       382.6612 
 824   0.0000      14.156635       385.2216 
 825   0.0000      14.498739       394.5307 
 826   0.0000      14.707613       400.2145 
 827   0.0000      16.012475       435.7216 

                    ********************************
                    * MULLIKEN POPULATION ANALYSIS *
                    ********************************

-----------------------
MULLIKEN ATOMIC CHARGES
-----------------------
   0 C :   -0.327431
   1 C :    0.039303
   2 O :   -0.380691
   3 C :    0.454955
   4 O :   -0.385317
   5 C :   -0.196137
   6 C :    0.124018
   7 C :   -0.283721
   8 N :   -0.124732
   9 C :    0.193386
  10 S :   -0.436881
  11 N :   -0.205878
  12 C :    0.060150
  13 C :    0.028642
  14 C :   -0.177054
  15 C :   -0.134250
  16 C :   -0.279258
  17 C :    0.320563
  18 O :   -0.359857
  19 C :   -0.289256
  20 H :    0.103148
  21 H :    0.122490
  22 H :    0.107153
  23 H :    0.104869
  24 H :    0.120811
  25 H :    0.125721
  26 H :    0.125248
  27 H :    0.112513
  28 H :    0.198179
  29 H :    0.195437
  30 H :    0.160376
  31 H :    0.164786
  32 H :    0.163236
  33 H :    0.132743
  34 H :    0.241365
  35 H :    0.181369
Sum of atomic charges:   -0.0000000

--------------------------------
MULLIKEN REDUCED ORBITAL CHARGES
--------------------------------
  0 C s       :     3.263129  s :     3.263129
      pz      :     1.006434  p :     2.982566
      px      :     0.977696
      py      :     0.998436
      dz2     :     0.004969  d :     0.077171
      dxz     :     0.019170
      dyz     :     0.025612
      dx2y2   :     0.004819
      dxy     :     0.022601
      f0      :     0.000399  f :     0.004565
      f+1     :     0.000325
      f-1     :     0.000371
      f+2     :     0.000273
      f-2     :     0.002263
      f+3     :     0.000310
      f-3     :     0.000624
  1 C s       :     3.167066  s :     3.167066
      pz      :     0.895052  p :     2.626540
      px      :     0.832339
      py      :     0.899150
      dz2     :     0.018499  d :     0.155355
      dxz     :     0.040856
      dyz     :     0.033354
      dx2y2   :     0.028073
      dxy     :     0.034573
      f0      :     0.000958  f :     0.011736
      f+1     :     0.001583
      f-1     :     0.001194
      f+2     :     0.001874
      f-2     :     0.003003
      f+3     :     0.001666
      f-3     :     0.001458
  2 O s       :     3.721581  s :     3.721581
      pz      :     1.622006  p :     4.624744
      px      :     1.291942
      py      :     1.710796
      dz2     :     0.004401  d :     0.032049
      dxz     :     0.010898
      dyz     :     0.005170
      dx2y2   :     0.006906
      dxy     :     0.004674
      f0      :     0.000182  f :     0.002317
      f+1     :     0.000193
      f-1     :     0.000104
      f+2     :     0.000418
      f-2     :     0.000423
      f+3     :     0.000456
      f-3     :     0.000541
  3 C s       :     3.027563  s :     3.027563
      pz      :     0.695068  p :     2.213054
      px      :     0.716667
      py      :     0.801319
      dz2     :     0.027152  d :     0.278329
      dxz     :     0.066033
      dyz     :     0.033878
      dx2y2   :     0.088510
      dxy     :     0.062756
      f0      :     0.002142  f :     0.026099
      f+1     :     0.002501
      f-1     :     0.001710
      f+2     :     0.002348
      f-2     :     0.005203
      f+3     :     0.005676
      f-3     :     0.006518
  4 O s       :     3.781826  s :     3.781826
      pz      :     1.512653  p :     4.565402
      px      :     1.560521
      py      :     1.492228
      dz2     :     0.003608  d :     0.035638
      dxz     :     0.004683
      dyz     :     0.006743
      dx2y2   :     0.008750
      dxy     :     0.011855
      f0      :     0.000252  f :     0.002450
      f+1     :     0.000180
      f-1     :     0.000219
      f+2     :     0.000034
      f-2     :     0.000448
      f+3     :     0.000663
      f-3     :     0.000654
  5 C s       :     3.178957  s :     3.178957
      pz      :     0.931635  p :     2.924050
      px      :     1.046294
      py      :     0.946121
      dz2     :     0.016264  d :     0.082255
      dxz     :     0.012661
      dyz     :     0.026349
      dx2y2   :     0.015307
      dxy     :     0.011674
      f0      :     0.001049  f :     0.010875
      f+1     :     0.001262
      f-1     :     0.002054
      f+2     :     0.001703
      f-2     :     0.001456
      f+3     :     0.001230
      f-3     :     0.002120
  6 C s       :     3.195882  s :     3.195882
      pz      :     0.873207  p :     2.489173
      px      :     0.836338
      py      :     0.779629
      dz2     :     0.033009  d :     0.176577
      dxz     :     0.024156
      dyz     :     0.047346
      dx2y2   :     0.039479
      dxy     :     0.032587
      f0      :     0.002001  f :     0.014349
      f+1     :     0.001285
      f-1     :     0.002632
      f+2     :     0.002299
      f-2     :     0.002538
      f+3     :     0.001397
      f-3     :     0.002196
  7 C s       :     3.277981  s :     3.277981
      pz      :     0.916372  p :     2.931539
      px      :     0.998134
      py      :     1.017033
      dz2     :     0.018155  d :     0.069563
      dxz     :     0.013656
      dyz     :     0.010060
      dx2y2   :     0.022163
      dxy     :     0.005529
      f0      :     0.000466  f :     0.004638
      f+1     :     0.001409
      f-1     :     0.000827
      f+2     :     0.000425
      f-2     :     0.000434
      f+3     :     0.000252
      f-3     :     0.000824
  8 N s       :     3.345724  s :     3.345724
      pz      :     1.157984  p :     3.714902
      px      :     1.405128
      py      :     1.151790
      dz2     :     0.015637  d :     0.059162
      dxz     :     0.010459
      dyz     :     0.014469
      dx2y2   :     0.007564
      dxy     :     0.011032
      f0      :     0.000683  f :     0.004944
      f+1     :     0.000966
      f-1     :     0.000831
      f+2     :     0.000891
      f-2     :     0.000829
      f+3     :     0.000460
      f-3     :     0.000285
  9 C s       :     3.170820  s :     3.170820
      pz      :     0.788110  p :     2.356597
      px      :     0.702578
      py      :     0.865908
      dz2     :     0.066697  d :     0.261631
      dxz     :     0.039487
      dyz     :     0.046768
      dx2y2   :     0.052869
      dxy     :     0.055809
      f0      :     0.002994  f :     0.017566
      f+1     :     0.002324
      f-1     :     0.002510
      f+2     :     0.002350
      f-2     :     0.002471
      f+3     :     0.002086
      f-3     :     0.002830
 10 S s       :     5.855532  s :     5.855532
      pz      :     3.456224  p :    10.486600
      px      :     3.727615
      py      :     3.302761
      dz2     :     0.009887  d :     0.084615
      dxz     :     0.005763
      dyz     :     0.041686
      dx2y2   :     0.016825
      dxy     :     0.010455
      f0      :     0.001086  f :     0.010134
      f+1     :     0.000124
      f-1     :     0.002554
      f+2     :     0.003309
      f-2     :     0.001250
      f+3     :     0.000833
      f-3     :     0.000978
 11 N s       :     3.376501  s :     3.376501
      pz      :     1.266334  p :     3.767283
      px      :     1.421564
      py      :     1.079385
      dz2     :     0.010300  d :     0.057654
      dxz     :     0.007756
      dyz     :     0.014285
      dx2y2   :     0.012445
      dxy     :     0.012868
      f0      :     0.000344  f :     0.004440
      f+1     :     0.000589
      f-1     :     0.000572
      f+2     :     0.000657
      f-2     :     0.000665
      f+3     :     0.000839
      f-3     :     0.000775
 12 C s       :     3.118288  s :     3.118288
      pz      :     0.834475  p :     2.627305
      px      :     1.015958
      py      :     0.776872
      dz2     :     0.036471  d :     0.183022
      dxz     :     0.027805
      dyz     :     0.041550
      dx2y2   :     0.039950
      dxy     :     0.037245
      f0      :     0.001279  f :     0.011234
      f+1     :     0.001165
      f-1     :     0.002050
      f+2     :     0.002268
      f-2     :     0.001831
      f+3     :     0.001396
      f-3     :     0.001245
 13 C s       :     3.103505  s :     3.103505
      pz      :     0.913560  p :     2.750067
      px      :     0.908380
      py      :     0.928127
      dz2     :     0.016448  d :     0.106566
      dxz     :     0.012306
      dyz     :     0.028495
      dx2y2   :     0.022091
      dxy     :     0.027225
      f0      :     0.001118  f :     0.011220
      f+1     :     0.001574
      f-1     :     0.001012
[...]
      f-1     :     0.005220
      f+2     :     0.006082
      f-2     :     0.005714
      f+3     :     0.006766
      f-3     :     0.010486
 15 C s       :     2.705639  s :     2.705639
      pz      :     0.880976  p :     2.795837
      px      :     0.945203
      py      :     0.969658
      dz2     :     0.082317  d :     0.416034
      dxz     :     0.068555
      dyz     :     0.052292
      dx2y2   :     0.108179
      dxy     :     0.104691
      f0      :     0.002642  f :     0.041044
      f+1     :     0.004887
      f-1     :     0.005572
      f+2     :     0.006648
      f-2     :     0.006433
      f+3     :     0.007176
      f-3     :     0.007685
 16 C s       :     2.701752  s :     2.701752
      pz      :     0.931558  p :     2.868346
      px      :     0.968924
      py      :     0.967863
      dz2     :     0.039770  d :     0.391412
      dxz     :     0.057796
      dyz     :     0.079109
      dx2y2   :     0.097738
      dxy     :     0.116998
      f0      :     0.004238  f :     0.040376
      f+1     :     0.004653
      f-1     :     0.002820
      f+2     :     0.005640
      f-2     :     0.005788
      f+3     :     0.008082
      f-3     :     0.009154
 17 C s       :     2.701168  s :     2.701168
      pz      :     0.833674  p :     2.684408
      px      :     0.820823
      py      :     1.029910
      dz2     :     0.114234  d :     0.709185
      dxz     :     0.116172
      dyz     :     0.125209
      dx2y2   :     0.178950
      dxy     :     0.174620
      f0      :     0.008155  f :     0.099361
      f+1     :     0.016585
      f-1     :     0.007459
      f+2     :     0.014735
      f-2     :     0.015133
      f+3     :     0.015626
      f-3     :     0.021667
 18 O s       :     3.177017  s :     3.177017
      pz      :     1.470686  p :     4.347524
      px      :     1.399334
      py      :     1.477504
      dz2     :     0.007643  d :     0.075607
      dxz     :     0.017581
      dyz     :     0.015073
      dx2y2   :     0.020035
      dxy     :     0.015274
      f0      :     0.000563  f :     0.005073
      f+1     :     0.000793
      f-1     :     0.000261
      f+2     :     0.000800
      f-2     :     0.000799
      f+3     :     0.000814
      f-3     :     0.001043
 19 C s       :     2.695096  s :     2.695096
      pz      :     0.922273  p :     2.844495
      px      :     0.957245
      py      :     0.964977
      dz2     :     0.066789  d :     0.389316
      dxz     :     0.064253
      dyz     :     0.055407
      dx2y2   :     0.096239
      dxy     :     0.106628
      f0      :     0.002857  f :     0.040861
      f+1     :     0.004792
      f-1     :     0.005095
      f+2     :     0.006743
      f-2     :     0.006944
      f+3     :     0.007281
      f-3     :     0.007150
 20 H s       :     0.849623  s :     0.849623
      pz      :     0.054006  p :     0.157578
      px      :     0.047141
      py      :     0.056431
      dz2     :     0.006256  d :     0.027980
      dxz     :     0.004495
      dyz     :     0.006595
      dx2y2   :     0.005166
      dxy     :     0.005467
 21 H s       :     0.843220  s :     0.843220
      pz      :     0.049374  p :     0.150967
      px      :     0.054043
      py      :     0.047550
      dz2     :     0.005338  d :     0.027493
      dxz     :     0.005746
      dyz     :     0.004750
      dx2y2   :     0.005906
      dxy     :     0.005753
 22 H s       :     0.852453  s :     0.852453
      pz      :     0.056254  p :     0.151859
      px      :     0.047863
      py      :     0.047743
      dz2     :     0.006872  d :     0.027611
      dxz     :     0.006272
      dyz     :     0.006260
      dx2y2   :     0.003772
      dxy     :     0.004434
 23 H s       :     0.849853  s :     0.849853
      pz      :     0.060344  p :     0.148539
      px      :     0.040998
      py      :     0.047198
      dz2     :     0.007113  d :     0.027063
      dxz     :     0.005849
      dyz     :     0.006611
      dx2y2   :     0.002940
      dxy     :     0.004550
 24 H s       :     0.852672  s :     0.852672
      pz      :     0.045129  p :     0.143931
      px      :     0.041996
      py      :     0.056806
      dz2     :     0.004079  d :     0.026889
      dxz     :     0.005042
      dyz     :     0.006303
      dx2y2   :     0.005964
      dxy     :     0.005501
 25 H s       :     0.831206  s :     0.831206
      pz      :     0.038064  p :     0.153294
      px      :     0.072389
      py      :     0.042841
      dz2     :     0.002357  d :     0.027775
      dxz     :     0.008596
      dyz     :     0.000414
      dx2y2   :     0.008138
      dxy     :     0.008271
 26 H s       :     0.830325  s :     0.830325
      pz      :     0.060033  p :     0.149466
      px      :     0.043865
      py      :     0.045568
      dz2     :     0.008503  d :     0.027662
      dxz     :     0.006606
      dyz     :     0.006313
      dx2y2   :     0.003935
      dxy     :     0.002306
 27 H s       :     0.839271  s :     0.839271
      pz      :     0.037065  p :     0.150159
      px      :     0.040237
      py      :     0.072856
      dz2     :     0.002456  d :     0.027685
      dxz     :     0.000234
      dyz     :     0.009144
      dx2y2   :     0.006802
      dxy     :     0.009049
 28 H s       :     0.742841  s :     0.742841
      pz      :     0.053918  p :     0.253364
      px      :     0.090717
      py      :     0.108728
      dz2     :     0.006190  d :     0.061705
      dxz     :     0.004318
      dyz     :     0.014176
      dx2y2   :     0.019505
      dxy     :     0.017517
 29 H s       :     0.748267  s :     0.748267
      pz      :     0.114963  p :     0.254283
      px      :     0.093225
      py      :     0.046095
      dz2     :     0.021591  d :     0.061353
      dxz     :     0.016655
      dyz     :     0.011680
      dx2y2   :     0.006732
      dxy     :     0.004694
 30 H s       :     0.826575  s :     0.826575
      pz      :     0.038960  p :     0.148688
      px      :     0.073504
      py      :     0.036223
      dz2     :     0.002878  d :     0.028319
      dxz     :     0.008234
      dyz     :     0.001847
      dx2y2   :     0.007829
      dxy     :     0.007531
 31 H s       :     0.839362  s :     0.839362
      pz      :     0.054057  p :     0.156388
      px      :     0.068445
      py      :     0.033886
      dz2     :     0.005012  d :     0.027454
      dxz     :     0.007342
      dyz     :     0.002762
      dx2y2   :     0.005971
      dxy     :     0.006367
 32 H s       :     0.841864  s :     0.841864
      pz      :     0.037284  p :     0.151064
      px      :     0.041445
      py      :     0.072335
      dz2     :     0.002565  d :     0.026442
      dxz     :     0.001194
      dyz     :     0.006636
      dx2y2   :     0.008038
      dxy     :     0.008008
 33 H s       :     0.848283  s :     0.848283
      pz      :     0.054918  p :     0.158844
      px      :     0.046250
      py      :     0.057676
      dz2     :     0.005219  d :     0.027732
      dxz     :     0.003900
      dyz     :     0.006212
      dx2y2   :     0.006463
      dxy     :     0.005938
 34 H s       :     0.706230  s :     0.706230
      pz      :     0.110632  p :     0.347568
      px      :     0.080875
      py      :     0.156060
      dz2     :     0.020941  d :     0.099488
      dxz     :     0.009244
      dyz     :     0.025467
      dx2y2   :     0.022365
      dxy     :     0.021471
 35 H s       :     0.838906  s :     0.838906
      pz      :     0.041425  p :     0.157790
      px      :     0.043043
      py      :     0.073321
      dz2     :     0.002551  d :     0.028108
      dxz     :     0.001445
      dyz     :     0.007402
      dx2y2   :     0.008332
      dxy     :     0.008379


                      *****************************
                      * MAYER POPULATION ANALYSIS *
                      *****************************

  NA   - Mulliken gross atomic population
  ZA   - Total nuclear charge
  QA   - Mulliken gross atomic charge
  VA   - Mayer's total valence
  BVA  - Mayer's bonded valence
  FA   - Mayer's free valence

  ATOM       NA         ZA         QA         VA         BVA        FA
  0 C      6.3274     6.0000    -0.3274     3.8743     3.8743    -0.0000
  1 C      5.9607     6.0000     0.0393     3.8662     3.8662    -0.0000
  2 O      8.3807     8.0000    -0.3807     1.9604     1.9604    -0.0000
  3 C      5.5450     6.0000     0.4550     4.2065     4.2065    -0.0000
  4 O      8.3853     8.0000    -0.3853     2.1158     2.1158    -0.0000
  5 C      6.1961     6.0000    -0.1961     3.5888     3.5888     0.0000
  6 C      5.8760     6.0000     0.1240     3.8255     3.8255    -0.0000
  7 C      6.2837     6.0000    -0.2837     3.8917     3.8917    -0.0000
  8 N      7.1247     7.0000    -0.1247     3.2701     3.2701     0.0000
  9 C      5.8066     6.0000     0.1934     4.1552     4.1552     0.0000
 10 S     16.4369    16.0000    -0.4369     1.7581     1.7581    -0.0000
 11 N      7.2059     7.0000    -0.2059     3.2528     3.2528     0.0000
 12 C      5.9398     6.0000     0.0602     3.9547     3.9547    -0.0000
 13 C      5.9714     6.0000     0.0286     3.7303     3.7303     0.0000
 14 C      6.1771     6.0000    -0.1771     3.8566     3.8566     0.0000
 15 C      6.1342     6.0000    -0.1342     3.8097     3.8097     0.0000
 16 C      6.2793     6.0000    -0.2793     3.7886     3.7886     0.0000
 17 C      5.6794     6.0000     0.3206     3.8661     3.8661     0.0000
 18 O      8.3599     8.0000    -0.3599     2.1132     2.1132    -0.0000
 19 C      6.2893     6.0000    -0.2893     3.8129     3.8129     0.0000
 20 H      0.8969     1.0000     0.1031     0.9718     0.9718    -0.0000
 21 H      0.8775     1.0000     0.1225     0.9837     0.9837    -0.0000
 22 H      0.8928     1.0000     0.1072     0.9788     0.9788     0.0000
 23 H      0.8951     1.0000     0.1049     0.9746     0.9746     0.0000
 24 H      0.8792     1.0000     0.1208     0.9759     0.9759    -0.0000
 25 H      0.8743     1.0000     0.1257     0.9717     0.9717    -0.0000
 26 H      0.8748     1.0000     0.1252     0.9835     0.9835    -0.0000
 27 H      0.8875     1.0000     0.1125     0.9846     0.9846    -0.0000
 28 H      0.8018     1.0000     0.1982     1.0212     1.0212     0.0000
 29 H      0.8046     1.0000     0.1954     1.0173     1.0173    -0.0000
 30 H      0.8396     1.0000     0.1604     0.9943     0.9943    -0.0000
 31 H      0.8352     1.0000     0.1648     0.9869     0.9869     0.0000
 32 H      0.8368     1.0000     0.1632     0.9765     0.9765    -0.0000
 33 H      0.8673     1.0000     0.1327     0.9907     0.9907    -0.0000
 34 H      0.7586     1.0000     0.2414     1.0105     1.0105    -0.0000
 35 H      0.8186     1.0000     0.1814     0.9792     0.9792     0.0000

  Mayer bond orders larger than 0.100000
B(  0-C ,  1-C ) :   0.9646 B(  0-C , 20-H ) :   0.9728 B(  0-C , 21-H ) :   0.9772 
B(  0-C , 22-H ) :   0.9767 B(  1-C ,  2-O ) :   0.8842 B(  1-C , 23-H ) :   0.9683 
B(  1-C , 24-H ) :   0.9851 B(  2-O ,  3-C ) :   1.0956 B(  3-C ,  4-O ) :   2.0568 
B(  3-C ,  5-C ) :   0.9869 B(  5-C ,  6-C ) :   1.6775 B(  5-C , 12-C ) :   0.9562 
B(  6-C ,  7-C ) :   0.9562 B(  6-C ,  8-N ) :   1.1264 B(  7-C , 25-H ) :   0.9614 
B(  7-C , 26-H ) :   0.9713 B(  7-C , 27-H ) :   0.9848 B(  8-N ,  9-C ) :   1.1858 
B(  8-N , 28-H ) :   0.9502 B(  9-C , 10-S ) :   1.6162 B(  9-C , 11-N ) :   1.2925 
B( 11-N , 12-C ) :   0.9905 B( 11-N , 29-H ) :   0.9512 B( 12-C , 13-C ) :   0.9461 
B( 12-C , 30-H ) :   0.9979 B( 13-C , 14-C ) :   1.3839 B( 13-C , 19-C ) :   1.3455 
B( 14-C , 15-C ) :   1.3974 B( 14-C , 31-H ) :   0.9610 B( 15-C , 16-C ) :   1.3617 
B( 15-C , 32-H ) :   0.9705 B( 16-C , 17-C ) :   1.3313 B( 16-C , 33-H ) :   0.9841 
B( 17-C , 18-O ) :   1.1081 B( 17-C , 19-C ) :   1.3699 B( 18-O , 34-H ) :   0.9796 
B( 19-C , 35-H ) :   0.9529 

-------
TIMINGS
-------

Total SCF time: 0 days 1 hours 41 min 37 sec 

Total time                  ....    6097.359 sec
Sum of individual times     ....    6090.992 sec  ( 99.9%)

Fock matrix formation       ....    6068.390 sec  ( 99.5%)
Diagonalization             ....       4.466 sec  (  0.1%)
Density matrix formation    ....       0.197 sec  (  0.0%)
Population analysis         ....       0.669 sec  (  0.0%)
Initial guess               ....       5.163 sec  (  0.1%)
Orbital Transformation      ....       0.000 sec  (  0.0%)
Orbital Orthonormalization  ....       0.000 sec  (  0.0%)
DIIS solution               ....       5.790 sec  (  0.1%)
SOSCF solution              ....       5.167 sec  (  0.1%)

------------------------------------------------------------------------------
                                ORCA  MP2 
------------------------------------------------------------------------------

Freezing NCore=48 chemical core electrons

-------------
RI-MP2 ENERGY
-------------
Dimension of the basis                    ...  828
Memory devoted to MP2                     ...  256 MB   
Data format for buffers                   ... DOUBLE
Compression type for matrix containers    ... UNCOMPRESSED
Overall scaling of the MP2 energy         ...   1.000e+00
Calculating two index integrals           ... done (    0.034 sec)
Cholesky decomposition of V**-1           ... done (    1.832 sec)

-----------------
RI-TRANSFORMATION (AUX index driven)
-----------------

Dimension of the orbital-basis         ... 828
Dimension of the aux-basis             ... 2141
Transformation of internal/external MOs...   24-  76 to   77- 827
Number Format for Storage              ... Double (8 Byte)
Integral mode                          ... Direct

First Phase: integral generation and transformation of MO indices
  Aux angular momentum 0               ... done (    8.397 sec)
  Aux angular momentum 1               ... done (   15.374 sec)
  Aux angular momentum 2               ... done (   19.162 sec)
  Aux angular momentum 3               ... done (   15.150 sec)
  Aux angular momentum 4               ... done (    5.443 sec)
Closing buffer VIA ( 0.63 GB; CompressionRatio= 1.00)
  Phase 1 completed in    63.869 sec
Second Phase: sorting and transformation of aux index

IA-Transformation
Memory available                       ... 167 MB 
Max. # MO pairs treated in a batch     ... 12    
# of internal orbitals                 ... 53
# batches for internal orbitals        ... 5
Closing buffer IAV ( 0.63 GB; CompressionRatio= 1.00)
(ia|v) transformation done in    67.756 sec

  Phase 2 completed in    67.763 sec
RI-Integral transformation completed in   131.640 sec
Opening buffers                              ... done

Starting loop over batches of integrals:

Operator 0  - window                       ... ( 24- 76)x( 77-827)
Operator 0  - Memory available             ...   256 MB
Operator 0  - Memory needed per MO         ...  12.3 MB
Operator 0  - Number of orbitals per batch ... 13
Operator 0  - Number of batches            ... 5

OPERATOR  0   PASS   0:  MOs    24 ...   36
  Reading integrals       ... ok
  Internal MO  26
  Internal MO  29
  Internal MO  32
  Internal MO  35
OPERATOR  0   PASS   1:  MOs    37 ...   49
  Reading integrals       ... ok
  Internal MO  38
  Internal MO  41
  Internal MO  44
  Internal MO  47
OPERATOR  0   PASS   2:  MOs    50 ...   62
  Reading integrals       ... ok
  Internal MO  50
  Internal MO  53
  Internal MO  56
  Internal MO  59
  Internal MO  62
OPERATOR  0   PASS   3:  MOs    63 ...   75
  Reading integrals       ... ok
  Internal MO  65
  Internal MO  68
  Internal MO  71
  Internal MO  74
OPERATOR  0   PASS   4:  MOs    76 ...   76
  Reading integrals       ... ok
Time spent in pair loops =   406.879 sec
Deleting buffer (Ka|jb)[aa] ...done

-----------------------------------------------
 RI-MP2 CORRELATION ENERGY:     -3.539949512 Eh
-----------------------------------------------


-------
TIMINGS
-------

Total time                :  540.761 sec
Integral trafo            :  131.649 sec ( 24.3%)
I/O of integrals          :    4.518 sec (  0.8%)
K(i,j) Operators          :  370.850 sec ( 68.6%)
T(i,j) pair energies      :    3.307 sec (  0.6%)
V-calculation             :    0.034 sec (  0.0%)
V**(-1/2)                 :    1.832 sec (  0.3%)
Gamma(ia|P)               :    0.000 sec (  0.0%)
Gamma-Trafo               :    0.000 sec (  0.0%)
D(virtual)                :    0.000 sec (  0.0%)
D(internal)               :    0.000 sec (  0.0%)
W(virtual)                :    0.000 sec (  0.0%)
W(internal)               :    0.000 sec (  0.0%)
L(virtual)                :    0.000 sec (  0.0%)
L(internal)               :    0.000 sec (  0.0%)
G(D)                      :    0.000 sec (  0.0%)
G(Z)                      :    0.000 sec (  0.0%)
Z-Vector Solution         :    0.000 sec (  0.0%)
3-Index Derivative        :    0.000 sec (  0.0%)
2-Index Derivative        :    0.000 sec (  0.0%)
Separable Gradient        :    0.000 sec (  0.0%)


---------------------------------------
MP2 TOTAL ENERGY:    -1274.320031341 Eh
---------------------------------------

-------------------------   --------------------
FINAL SINGLE POINT ENERGY     -1274.320031341044
-------------------------   --------------------


                            ***************************************
                            *     ORCA property calculations      *
                            ***************************************


  WARNING: The energy has been calculated at the MP2 level but the densities
           used in the property calculations are still SCF densities
           MP2 response densities have not been calculated 
           use %mp2 Density relaxed end
           or  %mp2 Density unrelaxed end

                                    ---------------------
                                    Active property flags
                                    ---------------------
   (+) Dipole Moment


------------------------------------------------------------------------------
                       ORCA ELECTRIC PROPERTIES CALCULATION
------------------------------------------------------------------------------

Dipole Moment Calculation                       ... on
Quadrupole Moment Calculation                   ... off
Polarizability Calculation                      ... off
GBWName                                         ... CONFS/Conf754.orca.gbw
Electron density file                           ... CONFS/Conf754.orca.scfp
The origin for moment calculation is the CENTER OF MASS  = (32.777815, 31.337547 35.208518)

-------------
DIPOLE MOMENT
-------------
                                X             Y             Z
Electronic contribution:     10.09014       6.67218       5.63023
Nuclear contribution   :    -11.28038      -7.89865      -6.09465
                        -----------------------------------------
Total Dipole Moment    :     -1.19024      -1.22647      -0.46442
                        -----------------------------------------
Magnitude (a.u.)       :      1.77104
Magnitude (Debye)      :      4.50162



--------------------
Rotational spectrum 
--------------------
 
Rotational constants in cm-1:     0.012222     0.009512     0.007119 
Rotational constants in MHz :   366.401090   285.156276   213.428663 

 Dipole components along the rotational axes: 
x,y,z [a.u.] :    -1.402004    -0.674596     0.846097 
x,y,z [Debye]:    -3.563610    -1.714686     2.150606 

 

Timings for individual modules:

Sum of individual times         ...     6639.960 sec (= 110.666 min)
GTO integral calculation        ...        1.330 sec (=   0.022 min)   0.0 %
SCF iterations                  ...     6097.429 sec (= 101.624 min)  91.8 %
MP2 module                      ...      541.201 sec (=   9.020 min)   8.2 %
                             ****ORCA TERMINATED NORMALLY****
TOTAL RUN TIME: 0 days 1 hours 50 minutes 40 seconds 820 msec
