
                                 *****************
                                 * O   R   C   A *
                                 *****************

           --- An Ab Initio, DFT and Semiempirical electronic structure package ---

                  #######################################################
                  #                        -***-                        #
                  #          Department of theory and spectroscopy      #
                  #               Directorship: Frank Neese             #
                  #        Max Planck Institute fuer Kohlenforschung    #
                  #                Kaiser Wilhelm Platz 1               #
                  #                 D-45470 Muelheim/Ruhr               #
                  #                      Germany                        #
                  #                                                     #
                  #                  All rights reserved                #
                  #                        -***-                        #
                  #######################################################


                         Program Version 4.2.0 -  RELEASE  -


 With contributions from (in alphabetic order):
   Daniel Aravena         : Magnetic Suceptibility
   Michael Atanasov       : Ab Initio Ligand Field Theory (pilot matlab implementation)
   Alexander A. Auer      : GIAO ZORA, VPT2
   Ute Becker             : Parallelization
   Giovanni Bistoni       : ED, misc. LED, open-shell LED, HFLED
   Martin Brehm           : Molecular dynamics
   Dmytro Bykov           : SCF Hessian
   Vijay G. Chilkuri      : MRCI spin determinant printing, contributions to CSF-ICE
   Dipayan Datta          : RHF DLPNO-CCSD density
   Achintya Kumar Dutta   : EOM-CC, STEOM-CC
   Dmitry Ganyushin       : Spin-Orbit,Spin-Spin,Magnetic field MRCI
   Miquel Garcia          : C-PCM Hessian, Gaussian charge scheme
   Yang Guo               : DLPNO-NEVPT2, CIM, IAO-localization
   Andreas Hansen         : Spin unrestricted coupled pair/coupled cluster methods
   Benjamin Helmich-Paris : CASSCF linear response (MC-RPA)
   Lee Huntington         : MR-EOM, pCC
   Robert Izsak           : Overlap fitted RIJCOSX, COSX-SCS-MP3, EOM
   Christian Kollmar      : KDIIS, OOCD, Brueckner-CCSD(T), CCSD density
   Simone Kossmann        : Meta GGA functionals, TD-DFT gradient, OOMP2, MP2 Hessian
   Martin Krupicka        : AUTO-CI
   Lucas Lang             : DCDCAS
   Dagmar Lenk            : GEPOL surface, SMD
   Dimitrios Liakos       : Extrapolation schemes; Compound Job, initial MDCI parallelization
   Dimitrios Manganas     : Further ROCIS development; embedding schemes
   Dimitrios Pantazis     : SARC Basis sets
   Taras Petrenko         : DFT Hessian,TD-DFT gradient, ASA, ECA, R-Raman, ABS, FL, XAS/XES, NRVS
   Peter Pinski           : DLPNO-MP2, DLPNO-MP2 Gradient
   Christoph Reimann      : Effective Core Potentials
   Marius Retegan         : Local ZFS, SOC
   Christoph Riplinger    : Optimizer, TS searches, QM/MM, DLPNO-CCSD(T), (RO)-DLPNO pert. Triples
   Tobias Risthaus        : Range-separated hybrids, TD-DFT gradient, RPA, STAB
   Michael Roemelt        : Original ROCIS implementation
   Masaaki Saitow         : Open-shell DLPNO-CCSD energy and density
   Barbara Sandhoefer     : DKH picture change effects
   Avijit Sen             : IP-ROCIS
   Kantharuban Sivalingam : CASSCF convergence, NEVPT2, FIC-MRCI
   Bernardo de Souza      : ESD, SOC TD-DFT
   Georgi Stoychev        : AutoAux, RI-MP2 NMR
   Willem Van den Heuvel  : Paramagnetic NMR
   Boris Wezisla          : Elementary symmetry handling
   Frank Wennmohs         : Technical directorship


 We gratefully acknowledge several colleagues who have allowed us to
 interface, adapt or use parts of their codes:
   Stefan Grimme, W. Hujo, H. Kruse,             : VdW corrections, initial TS optimization,
                  C. Bannwarth                     DFT functionals, gCP, sTDA/sTD-DF
   Ed Valeev, F. Pavosevic, A. Kumar             : LibInt (2-el integral package), F12 methods
   Garnet Chan, S. Sharma, J. Yang, R. Olivares  : DMRG
   Ulf Ekstrom                                   : XCFun DFT Library
   Mihaly Kallay                                 : mrcc  (arbitrary order and MRCC methods)
   Andreas Klamt, Michael Diedenhofen            : otool_cosmo (COSMO solvation model)
   Jiri Pittner, Ondrej Demel                    : Mk-CCSD
   Frank Weinhold                                : gennbo (NPA and NBO analysis)
   Christopher J. Cramer and Donald G. Truhlar   : smd solvation model
   Lars Goerigk                                  : TD-DFT with DH, B97 family of functionals
   V. Asgeirsson, H. Jonsson                     : NEB implementation
   FAccTs GmbH                                   : IRC, NEB, NEB-TS, Multilevel, MM, QM/MM, CI optimization
   S Lehtola, MJT Oliveira, MAL Marques          : LibXC Library


 Your calculation uses the libint2 library for the computation of 2-el integrals
 For citations please refer to: http://libint.valeyev.net

 Your ORCA version has been built with support for libXC version: 4.2.3
 For citations please refer to: https://tddft.org/programs/libxc/

 This ORCA versions uses:
   CBLAS   interface :  Fast vector & matrix operations
   LAPACKE interface :  Fast linear algebra routines
   SCALAPACK package :  Parallel linear algebra routines


----- Orbital basis set information -----
Your calculation utilizes the basis: cc-pVTZ 
       H, B-Ne : Obtained from the ccRepo (grant-hill.group.shef.ac.uk/ccrepo) Feb. 2017
                 T. H. Dunning, Jr., J. Chem. Phys. 90, 1007 (1989)
            He : Obtained from the ccRepo (grant-hill.group.shef.ac.uk/ccrepo) Feb. 2017
                 D. E. Woon, T. H. Dunning, Jr., J. Chem. Phys. 100, 2975 (1994)
  Li-Be, Na-Mg : Obtained from the ccRepo (grant-hill.group.shef.ac.uk/ccrepo) Feb. 2017
                 B. P. Prascher, D. E. Woon, K. A. Peterson, T. H. Dunning, Jr., A. K. Wilson, Theor. Chem. Acc. 128, 69 (2011)
         Al-Ar : Obtained from the ccRepo (grant-hill.group.shef.ac.uk/ccrepo) Feb. 2017
                 D. E. Woon, T. H. Dunning, Jr., J. Chem. Phys. 98, 1358 (1993)
            Ca : Obtained from the Peterson Research Group Website (tyr0.chem.wsu.edu/~kipeters) Feb. 2017
                 J. Koput, K. A. Peterson, J. Phys. Chem. 106, 9595 (2002)
         Sc-Zn : Obtained from the ccRepo (grant-hill.group.shef.ac.uk/ccrepo) Feb. 2017
                 N. B. Balabanov, K. A. Peterson, J. Chem. Phys. 123, 064107 (2005)
                 N. B. Balabanov, K. A. Peterson, J. Chem. Phys. 125, 074110 (2006)
         Ga-Kr : Obtained from the ccRepo (grant-hill.group.shef.ac.uk/ccrepo) Feb. 2017
                 A. K. Wilson, D. E. Woon, K. A. Peterson, T. H. Dunning, Jr., J. Chem. Phys. 110, 7667 (1999)
             Y : Obtained from the ccRepo (grant-hill.group.shef.ac.uk/ccrepo) Feb. 2017
                 K. A. Peterson, D. Figgen, M. Dolg, H. Stoll, J. Chem. Phys. 126, 124101 (2007)
        Ag, Au : Obtained from the Peterson Research Group Website (tyr0.chem.wsu.edu/~kipeters) Feb. 2017
                 K. A. Peterson, C. Puzzarini, Theor. Chem. Acc. 114, 283 (2005)

----- AuxC basis set information -----
Your calculation utilizes the auxiliary basis: cc-pVTZ/C 
  Obtained from the EMSL Basis Set Exchange (bse.pnl.gov) Feb. 2017
  H-He, B-F, Al-Ar, Ga-Kr : F. Weigend, A. Kohn, C. Hattig, J. Chem. Phys. 116, 3175 (2002)
             Li-Be, Na-Mg : C. Haettig, Phys. Chem. Chem. Phys. 7, 59 (2005)
                       Ne : C. Haettig, Phys. Chem. Chem. Phys. 7, 59 (2005)
                            F. Weigend, A. Kohn, C. Hattig, J. Chem. Phys. 116, 3175 (2002)
                    Sc-Zn : J. G. Hill, J. A. Platts, J. Chem. Phys. 128, 044104 (2008)

================================================================================
                                        WARNINGS
                       Please study these warnings very carefully!
================================================================================


WARNING: No MP2 level density has been requested!
         To caclulate MP2 level properties use
         %mp2 Density relaxed end
         or
         %mp2 Density unrelaxed end

WARNING: Post HF methods need fully converged wavefunctions
  ===> : Setting SCFConvForced true
         You can overwrite this default with %scf ConvForced false 


INFO   : the flag for use of LIBINT has been found!

================================================================================
                                       INPUT FILE
================================================================================
NAME = CONFS/Conf843.orca
|  1> ! ri-mp2 cc-pvtz cc-pvtz/c TightSCF  NoKeepInts
|  2> 
|  3> %scf
|  4>   MaxCore 4096
|  5> end
|  6> *xyz  0  1
|  7>     C       14.2268692   15.1265033   16.2291125
|  8>     C       15.6825726   14.6556852   16.0737418
|  9>     O       16.4998637   15.8298529   15.9357667
| 10>     C       17.7257637   15.8347953   16.5321668
| 11>     O       18.3880679   14.8145008   16.6275362
| 12>     C       17.9066699   16.9855080   17.4765755
| 13>     C       17.3338581   18.2053590   17.3128721
| 14>     C       16.4535652   18.6678463   16.1702403
| 15>     N       17.6002736   19.2266055   18.2302664
| 16>     C       18.5217867   19.1498955   19.2413560
| 17>     S       18.8592788   20.4454367   20.2125377
| 18>     N       19.1509837   17.9416350   19.4062581
| 19>     C       18.8030549   16.7021457   18.6859679
| 20>     C       18.1371657   15.7045151   19.6299604
| 21>     C       18.6650728   14.4097962   19.7875837
| 22>     C       18.0487550   13.4845522   20.6466582
| 23>     C       16.8930184   13.8557400   21.3546142
| 24>     C       16.3615059   15.1428903   21.1972062
| 25>     O       15.2409149   15.5018466   21.8729836
| 26>     C       16.9771179   16.0615511   20.3414395
| 27>     H       14.1187722   15.7602159   17.1183182
| 28>     H       13.5549360   14.2664377   16.3377155
| 29>     H       13.9099713   15.7016132   15.3502933
| 30>     H       15.9647992   14.0842498   16.9696655
| 31>     H       15.7949311   14.0058273   15.1960579
| 32>     H       16.8561681   18.3344965   15.2055633
| 33>     H       16.3674960   19.7601061   16.1205887
| 34>     H       15.4413254   18.2569305   16.2713956
| 35>     H       17.1490486   20.1213498   18.1256066
| 36>     H       19.8029603   17.9031300   20.1791821
| 37>     H       19.7375439   16.2571479   18.3146075
| 38>     H       19.5479999   14.1142221   19.2260632
| 39>     H       18.4641335   12.4842545   20.7552213
| 40>     H       16.4127535   13.1435054   22.0172271
| 41>     H       14.9969287   14.7584822   22.4446583
| 42>     H       16.5510735   17.0533706   20.2369921
| 43> *
| 44> 
| 45>                          ****END OF INPUT****
================================================================================

                       ****************************
                       * Single Point Calculation *
                       ****************************

---------------------------------
CARTESIAN COORDINATES (ANGSTROEM)
---------------------------------
  C     14.226869   15.126503   16.229112
  C     15.682573   14.655685   16.073742
  O     16.499864   15.829853   15.935767
  C     17.725764   15.834795   16.532167
  O     18.388068   14.814501   16.627536
  C     17.906670   16.985508   17.476575
  C     17.333858   18.205359   17.312872
  C     16.453565   18.667846   16.170240
  N     17.600274   19.226606   18.230266
  C     18.521787   19.149895   19.241356
  S     18.859279   20.445437   20.212538
  N     19.150984   17.941635   19.406258
  C     18.803055   16.702146   18.685968
  C     18.137166   15.704515   19.629960
  C     18.665073   14.409796   19.787584
  C     18.048755   13.484552   20.646658
  C     16.893018   13.855740   21.354614
  C     16.361506   15.142890   21.197206
  O     15.240915   15.501847   21.872984
  C     16.977118   16.061551   20.341439
  H     14.118772   15.760216   17.118318
  H     13.554936   14.266438   16.337716
  H     13.909971   15.701613   15.350293
  H     15.964799   14.084250   16.969666
  H     15.794931   14.005827   15.196058
  H     16.856168   18.334497   15.205563
  H     16.367496   19.760106   16.120589
  H     15.441325   18.256930   16.271396
  H     17.149049   20.121350   18.125607
  H     19.802960   17.903130   20.179182
  H     19.737544   16.257148   18.314608
  H     19.548000   14.114222   19.226063
  H     18.464133   12.484255   20.755221
  H     16.412754   13.143505   22.017227
  H     14.996929   14.758482   22.444658
  H     16.551074   17.053371   20.236992

----------------------------
CARTESIAN COORDINATES (A.U.)
----------------------------
  NO LB      ZA    FRAG     MASS         X           Y           Z
   0 C     6.0000    0    12.011   26.884887   28.584949   30.668578
   1 C     6.0000    0    12.011   29.635767   27.695231   30.374970
   2 O     8.0000    0    15.999   31.180224   29.914087   30.114235
   3 C     6.0000    0    12.011   33.496839   29.923427   31.241268
   4 O     8.0000    0    15.999   34.748412   27.995349   31.421490
   5 C     6.0000    0    12.011   33.838702   32.097958   33.025941
   6 C     6.0000    0    12.011   32.756245   34.403143   32.716587
   7 C     6.0000    0    12.011   31.092732   35.277117   30.557326
   8 N     7.0000    0    14.007   33.259697   36.333019   34.450211
   9 C     6.0000    0    12.011   35.001104   36.188058   36.360893
  10 S    16.0000    0    32.060   35.638872   38.636276   38.196161
  11 N     7.0000    0    14.007   36.190114   33.904777   36.672513
  12 C     6.0000    0    12.011   35.532624   31.562481   35.311362
  13 C     6.0000    0    12.011   34.274276   29.677233   37.095249
  14 C     6.0000    0    12.011   35.271876   27.230568   37.393114
  15 C     6.0000    0    12.011   34.107204   25.482111   39.016530
  16 C     6.0000    0    12.011   31.923178   26.183554   40.354373
  17 C     6.0000    0    12.011   30.918765   28.615916   40.056915
  18 O     8.0000    0    15.999   28.801155   29.294245   41.333949
  19 C     6.0000    0    12.011   32.082103   30.351933   38.439750
  20 H     1.0000    0     1.008   26.680613   29.782492   32.348933
  21 H     1.0000    0     1.008   25.615117   26.959660   30.873808
  22 H     1.0000    0     1.008   26.286036   29.671749   29.007850
  23 H     1.0000    0     1.008   30.169098   26.615375   32.068020
  24 H     1.0000    0     1.008   29.848094   26.467178   28.716388
  25 H     1.0000    0     1.008   31.853541   34.647177   28.734350
  26 H     1.0000    0     1.008   30.930085   37.341189   30.463498
  27 H     1.0000    0     1.008   29.179876   34.500599   30.748482
  28 H     1.0000    0     1.008   32.407005   38.023841   34.252432
  29 H     1.0000    0     1.008   37.422172   33.832013   38.133128
  30 H     1.0000    0     1.008   37.298553   30.721557   34.609592
  31 H     1.0000    0     1.008   36.940366   26.672014   36.331994
  32 H     1.0000    0     1.008   34.892156   23.591822   39.221684
  33 H     1.0000    0     1.008   31.015609   24.837626   41.606529
  34 H     1.0000    0     1.008   28.340088   27.889490   42.414257
  35 H     1.0000    0     1.008   31.276996   32.226200   38.242373

--------------------------------
INTERNAL COORDINATES (ANGSTROEM)
--------------------------------
 C      0   0   0     0.000000000000     0.00000000     0.00000000
 C      1   0   0     1.537817325458     0.00000000     0.00000000
 O      2   1   0     1.437244467056   107.32953191     0.00000000
 C      3   2   1     1.363285852856   118.18433425   142.24007324
 O      4   3   2     1.220140583099   121.28331386    33.62540333
 C      4   3   2     1.499591465625   112.75378791   236.18456331
 C      6   4   3     1.357552438616   124.24067959   328.00546906
 C      7   6   4     1.514733482439   127.62816003   358.24450918
 N      7   6   4     1.398404066812   119.78342113   182.02521533
 C      9   7   6     1.370172615695   124.84425113     7.07746841
 S     10   9   7     1.653941296683   121.78199759   175.20850068
 N     10   9   7     1.372215363292   116.51025478   355.22995898
 C     12  10   9     1.475196985795   124.96023773   352.83802007
 C     13  12  10     1.526367282403   110.49257391   251.05885679
 C     14  13  12     1.407063623633   120.46535095   235.91762797
 C     15  14  13     1.404967290254   120.65623340   180.54986866
 C     16  15  14     1.405243455557   119.66172682     0.05005399
 C     17  16  15     1.401441654480   119.86375579     0.15470608
 O     18  17  16     1.356926272478   120.01529383   179.59258800
 C     18  17  16     1.398303416584   120.34270259   359.84601868
 H      1   2   3     1.097252659017   110.60683954   299.71028145
 H      1   2   3     1.096814329399   110.47751319   179.93805710
 H      1   2   3     1.097040957481   110.67130324    60.03756484
 H      2   1   3     1.099486037357   108.64937966   119.99011515
 H      2   1   3     1.097847325922   111.03138701   239.25219283
 H      8   7   6     1.097184076888   110.93005789   316.87576386
 H      8   7   6     1.096770103197   112.57088476   197.07184856
 H      8   7   6     1.097138825360   110.62669801    76.46727219
 H      9   7   6     1.007534136763   119.67450688   182.14550880
 H     12  10   9     1.011912857784   114.88035363   181.99203030
 H     13  12  10     1.099636885437   107.72688055   132.85392108
 H     15  14  13     1.087303814224   119.79813889   359.41349393
 H     16  15  14     1.088540643967   119.91767127   179.65233743
 H     17  16  15     1.084890941457   119.89242455   179.85877755
 H     19  18  17     0.968984963556   107.38662528     3.43975678
 H     20  18  17     1.084494818207   119.13224565   180.20732395

---------------------------
INTERNAL COORDINATES (A.U.)
---------------------------
 C      0   0   0     0.000000000000     0.00000000     0.00000000
 C      1   0   0     2.906053589114     0.00000000     0.00000000
 O      2   1   0     2.715998430229   107.32953191     0.00000000
 C      3   2   1     2.576236904147   118.18433425   142.24007324
 O      4   3   2     2.305731546939   121.28331386    33.62540333
 C      4   3   2     2.833817182797   112.75378791   236.18456331
 C      6   4   3     2.565402321421   124.24067959   328.00546906
 C      7   6   4     2.862431447691   127.62816003   358.24450918
 N      7   6   4     2.642600710835   119.78342113   182.02521533
 C      9   7   6     2.589250999862   124.84425113     7.07746841
 S     10   9   7     3.125496092314   121.78199759   175.20850068
 N     10   9   7     2.593111233380   116.51025478   355.22995898
 C     12  10   9     2.787718296740   124.96023773   352.83802007
 C     13  12  10     2.884416143519   110.49257391   251.05885679
 C     14  13  12     2.658964901669   120.46535095   235.91762797
 C     15  14  13     2.655003405697   120.65623340   180.54986866
 C     16  15  14     2.655525282487   119.66172682     0.05005399
 C     17  16  15     2.648340919636   119.86375579     0.15470608
 O     18  17  16     2.564219038906   120.01529383   179.59258800
 C     18  17  16     2.642410509470   120.34270259   359.84601868
 H      1   2   3     2.073507025259   110.60683954   299.71028145
 H      1   2   3     2.072678702324   110.47751319   179.93805710
 H      1   2   3     2.073106967334   110.67130324    60.03756484
 H      2   1   3     2.077727498675   108.64937966   119.99011515
 H      2   1   3     2.074630782850   111.03138701   239.25219283
 H      8   7   6     2.073377423818   110.93005789   316.87576386
 H      8   7   6     2.072595126915   112.57088476   197.07184856
 H      8   7   6     2.073291910822   110.62669801    76.46727219
 H      9   7   6     1.903963589060   119.67450688   182.14550880
 H     12  10   9     1.912238172605   114.88035363   181.99203030
 H     13  12  10     2.078012560234   107.72688055   132.85392108
 H     15  14  13     2.054706433251   119.79813889   359.41349393
 H     16  15  14     2.057043702741   119.91767127   179.65233743
 H     17  16  15     2.050146764526   119.89242455   179.85877755
 H     19  18  17     1.831116209009   107.38662528     3.43975678
 H     20  18  17     2.049398200068   119.13224565   180.20732395

---------------------
BASIS SET INFORMATION
---------------------
There are 5 groups of distinct atoms

 Group   1 Type C   : 18s5p2d1f contracted to 4s3p2d1f pattern {8811/311/11/1}
 Group   2 Type O   : 18s5p2d1f contracted to 4s3p2d1f pattern {8811/311/11/1}
 Group   3 Type N   : 18s5p2d1f contracted to 4s3p2d1f pattern {8811/311/11/1}
 Group   4 Type S   : 41s16p2d1f contracted to 5s4p2d1f pattern {13131311/7711/11/1}
 Group   5 Type H   : 5s2p1d contracted to 3s2p1d pattern {311/11/1}

Atom   0C    basis set group =>   1
Atom   1C    basis set group =>   1
Atom   2O    basis set group =>   2
Atom   3C    basis set group =>   1
Atom   4O    basis set group =>   2
Atom   5C    basis set group =>   1
Atom   6C    basis set group =>   1
Atom   7C    basis set group =>   1
Atom   8N    basis set group =>   3
Atom   9C    basis set group =>   1
Atom  10S    basis set group =>   4
Atom  11N    basis set group =>   3
Atom  12C    basis set group =>   1
Atom  13C    basis set group =>   1
Atom  14C    basis set group =>   1
Atom  15C    basis set group =>   1
Atom  16C    basis set group =>   1
Atom  17C    basis set group =>   1
Atom  18O    basis set group =>   2
Atom  19C    basis set group =>   1
Atom  20H    basis set group =>   5
Atom  21H    basis set group =>   5
Atom  22H    basis set group =>   5
Atom  23H    basis set group =>   5
Atom  24H    basis set group =>   5
Atom  25H    basis set group =>   5
Atom  26H    basis set group =>   5
Atom  27H    basis set group =>   5
Atom  28H    basis set group =>   5
Atom  29H    basis set group =>   5
Atom  30H    basis set group =>   5
Atom  31H    basis set group =>   5
Atom  32H    basis set group =>   5
Atom  33H    basis set group =>   5
Atom  34H    basis set group =>   5
Atom  35H    basis set group =>   5
---------------------------------
AUXILIARY/C BASIS SET INFORMATION
---------------------------------
There are 5 groups of distinct atoms

 Group   1 Type C   : 8s6p5d3f1g contracted to 8s6p5d3f1g pattern {11111111/111111/11111/111/1}
 Group   2 Type O   : 8s6p5d3f1g contracted to 8s6p5d3f1g pattern {11111111/111111/11111/111/1}
 Group   3 Type N   : 8s6p5d3f1g contracted to 8s6p5d3f1g pattern {11111111/111111/11111/111/1}
 Group   4 Type S   : 10s8p7d5f2g contracted to 10s8p7d5f2g pattern {1111111111/11111111/1111111/11111/11}
 Group   5 Type H   : 4s3p2d1f contracted to 4s3p2d1f pattern {1111/111/11/1}

Atom   0C    basis set group =>   1
Atom   1C    basis set group =>   1
Atom   2O    basis set group =>   2
Atom   3C    basis set group =>   1
Atom   4O    basis set group =>   2
Atom   5C    basis set group =>   1
Atom   6C    basis set group =>   1
Atom   7C    basis set group =>   1
Atom   8N    basis set group =>   3
Atom   9C    basis set group =>   1
Atom  10S    basis set group =>   4
Atom  11N    basis set group =>   3
Atom  12C    basis set group =>   1
Atom  13C    basis set group =>   1
Atom  14C    basis set group =>   1
Atom  15C    basis set group =>   1
Atom  16C    basis set group =>   1
Atom  17C    basis set group =>   1
Atom  18O    basis set group =>   2
Atom  19C    basis set group =>   1
Atom  20H    basis set group =>   5
Atom  21H    basis set group =>   5
Atom  22H    basis set group =>   5
Atom  23H    basis set group =>   5
Atom  24H    basis set group =>   5
Atom  25H    basis set group =>   5
Atom  26H    basis set group =>   5
Atom  27H    basis set group =>   5
Atom  28H    basis set group =>   5
Atom  29H    basis set group =>   5
Atom  30H    basis set group =>   5
Atom  31H    basis set group =>   5
Atom  32H    basis set group =>   5
Atom  33H    basis set group =>   5
Atom  34H    basis set group =>   5
Atom  35H    basis set group =>   5
------------------------------------------------------------------------------
                           ORCA GTO INTEGRAL CALCULATION
------------------------------------------------------------------------------

                         BASIS SET STATISTICS AND STARTUP INFO

 # of primitive gaussian shells          ...  682
 # of primitive gaussian functions       ... 1312
 # of contracted shells                  ...  298
 # of contracted basis functions         ...  828
 Highest angular momentum                ...    3
 Maximum contraction depth               ...   13
 Integral package used                   ... LIBINT
 Integral threshhold            Thresh   ...  2.500e-11
 Primitive cut-off              TCut     ...  2.500e-12


------------------------------ INTEGRAL EVALUATION ----------------------------


 * One electron integrals 
 Pre-screening matrix                    ... done
 Shell pair data                         ... done (   0.014 sec)

-------------------------------------------------------------------------------
                                 ORCA SCF
-------------------------------------------------------------------------------

------------
SCF SETTINGS
------------
Hamiltonian:
 Ab initio Hamiltonian  Method          .... Hartree-Fock(GTOs)


General Settings:
 Integral files         IntName         .... CONFS/Conf843.orca
 Hartree-Fock type      HFTyp           .... RHF
 Total Charge           Charge          ....    0
 Multiplicity           Mult            ....    1
 Number of Electrons    NEL             ....  154
 Basis Dimension        Dim             ....  828
 Nuclear Repulsion      ENuc            ....   1708.4391306804 Eh

Convergence Acceleration:
 DIIS                   CNVDIIS         .... on
   Start iteration      DIISMaxIt       ....    12
   Startup error        DIISStart       ....  0.200000
   # of expansion vecs  DIISMaxEq       ....     5
   Bias factor          DIISBfac        ....   1.050
   Max. coefficient     DIISMaxC        ....  10.000
 Newton-Raphson         CNVNR           .... off
 SOSCF                  CNVSOSCF        .... on
   Start iteration      SOSCFMaxIt      ....   150
   Startup grad/error   SOSCFStart      ....  0.003300
 Level Shifting         CNVShift        .... on
   Level shift para.    LevelShift      ....    0.2500
   Turn off err/grad.   ShiftErr        ....    0.0010
 Zerner damping         CNVZerner       .... off
 Static damping         CNVDamp         .... on
   Fraction old density DampFac         ....    0.7000
   Max. Damping (<1)    DampMax         ....    0.9800
   Min. Damping (>=0)   DampMin         ....    0.0000
   Turn off err/grad.   DampErr         ....    0.1000
 Fernandez-Rico         CNVRico         .... off

SCF Procedure:
 Maximum # iterations   MaxIter         ....   125
 SCF integral mode      SCFMode         .... Direct
   Integral package                     .... LIBINT
 Reset frequency        DirectResetFreq ....    20
 Integral Threshold     Thresh          ....  2.500e-11 Eh
 Primitive CutOff       TCut            ....  2.500e-12 Eh

Convergence Tolerance:
 Convergence Check Mode ConvCheckMode   .... Total+1el-Energy
 Convergence forced     ConvForced      .... 1
 Energy Change          TolE            ....  1.000e-08 Eh
 1-El. energy change                    ....  1.000e-05 Eh
 Orbital Gradient       TolG            ....  1.000e-05
 Orbital Rotation angle TolX            ....  1.000e-05
 DIIS Error             TolErr          ....  5.000e-07


Diagonalization of the overlap matrix:
Smallest eigenvalue                        ... 3.452e-05
Time for diagonalization                   ...    0.123 sec
Threshold for overlap eigenvalues          ... 1.000e-08
Number of eigenvalues below threshold      ... 0
Time for construction of square roots      ...    0.105 sec
Total time needed                          ...    0.231 sec

-------------------
DFT GRID GENERATION
-------------------

General Integration Accuracy     IntAcc      ...  4.340
Radial Grid Type                 RadialGrid  ... Gauss-Chebyshev
Angular Grid (max. acc.)         AngularGrid ... Lebedev-110
Angular grid pruning method      GridPruning ... 3 (G Style)
Weight generation scheme         WeightScheme... Becke
Basis function cutoff            BFCut       ...    1.0000e-11
Integration weight cutoff        WCut        ...    1.0000e-14
Grids for H and He will be reduced by one unit

# of grid points (after initial pruning)     ...  46246 (   0.0 sec)
# of grid points (after weights+screening)   ...  41301 (   0.3 sec)
nearest neighbour list constructed           ...    0.0 sec
Grid point re-assignment to atoms done       ...    0.0 sec
Grid point division into batches done        ...    0.0 sec
Reduced shell lists constructed in    1.0 sec

Total number of grid points                  ...    41301
Total number of batches                      ...      663
Average number of points per batch           ...       62
Average number of grid points per atom       ...     1147
Average number of shells per batch           ...   149.25 (50.08%)
Average number of basis functions per batch  ...   379.00 (45.77%)
Average number of large shells per batch     ...    95.43 (63.94%)
Average number of large basis fcns per batch ...   245.34 (64.73%)
Maximum spatial batch extension              ...  20.05, 27.09, 25.60 au
Average spatial batch extension              ...   3.54,  3.50,  3.43 au

Time for grid setup =    1.353 sec

------------------------------
INITIAL GUESS: MODEL POTENTIAL
------------------------------
Loading Hartree-Fock densities                     ... done
Calculating cut-offs                               ... done
Setting up the integral package                    ... done
Initializing the effective Hamiltonian             ... done
Starting the Coulomb interaction                   ... done (   3.2 sec)
Reading the grid                                   ... done
Mapping shells                                     ... done
Starting the XC term evaluation                    ... done (   1.9 sec)
Transforming the Hamiltonian                       ... done (   0.1 sec)
Diagonalizing the Hamiltonian                      ... done (   0.1 sec)
Back transforming the eigenvectors                 ... done (   0.0 sec)
Now organizing SCF variables                       ... done
                      ------------------
                      INITIAL GUESS DONE (   6.9 sec)
                      ------------------
--------------
SCF ITERATIONS
--------------
ITER       Energy         Delta-E        Max-DP      RMS-DP      [F,P]     Damp
               ***  Starting incremental Fock matrix formation  ***
  0  -1270.0033913422   0.000000000000 0.04929776  0.00043899  0.3098316 0.7000
  1  -1270.2722724898  -0.268881147585 0.03606993  0.00035469  0.1817970 0.7000
                               ***Turning on DIIS***
  2  -1270.4396667186  -0.167394228874 0.02583141  0.00023792  0.1097395 0.7000
  3  -1272.5951474300  -2.155480711392 0.06312612  0.00051643  0.0829028 0.0000
  4  -1270.7479809836   1.847166446450 0.01153519  0.00009952  0.0069927 0.0000
  5  -1270.8109975868  -0.063016603249 0.00492738  0.00005312  0.0036929 0.0000
                      *** Initiating the SOSCF procedure ***
                           *** Shutting down DIIS ***
                      *** Re-Reading the Fockian *** 
                      *** Removing any level shift *** 
ITER      Energy       Delta-E        Grad      Rot      Max-DP    RMS-DP
  6  -1270.78868133   0.0223162589  0.001983  0.001983  0.002422  0.000027
               *** Restarting incremental Fock matrix formation ***
  7  -1270.80311955  -0.0144382260  0.000934  0.002406  0.001653  0.000017
  8  -1270.80316859  -0.0000490376  0.000505  0.002843  0.001777  0.000018
  9  -1270.80318734  -0.0000187508  0.000213  0.000380  0.000371  0.000004
 10  -1270.80318975  -0.0000024119  0.000057  0.000153  0.000120  0.000001
 11  -1270.80318998  -0.0000002295  0.000022  0.000122  0.000068  0.000001
 12  -1270.80319005  -0.0000000646  0.000011  0.000039  0.000029  0.000000
                  ***Gradient check signals convergence***
              ***Rediagonalizing the Fockian in SOSCF/NRSCF***

               *****************************************************
               *                     SUCCESS                       *
               *           SCF CONVERGED AFTER  13 CYCLES          *
               *****************************************************


----------------
TOTAL SCF ENERGY
----------------

Total Energy       :        -1270.80319005 Eh          -34580.31283 eV

Components:
Nuclear Repulsion  :         1708.43913068 Eh           46488.99220 eV
Electronic Energy  :        -2979.24232073 Eh          -81069.30503 eV
One Electron Energy:        -5138.14616280 Eh         -139816.06520 eV
Two Electron Energy:         2158.90384207 Eh           58746.76017 eV

Virial components:
Potential Energy   :        -2539.79962215 Eh          -69111.46128 eV
Kinetic Energy     :         1268.99643210 Eh           34531.14845 eV
Virial Ratio       :            2.00142377


---------------
SCF CONVERGENCE
---------------

  Last Energy change         ...   -9.6816e-10  Tolerance :   1.0000e-08
  Last MAX-Density change    ...    4.9831e-06  Tolerance :   1.0000e-07
  Last RMS-Density change    ...    9.3319e-08  Tolerance :   5.0000e-09
  Last Orbital Gradient      ...    2.4955e-06  Tolerance :   1.0000e-05
  Last Orbital Rotation      ...    8.4967e-06  Tolerance :   1.0000e-05

             **** THE GBW FILE WAS UPDATED (CONFS/Conf843.orca.gbw) ****
             **** DENSITY FILE WAS UPDATED (CONFS/Conf843.orca.scfp) ****
             **** ENERGY FILE WAS UPDATED (CONFS/Conf843.orca.en.tmp) ****
             **** THE GBW FILE WAS UPDATED (CONFS/Conf843.orca.gbw) ****
             **** DENSITY FILE WAS UPDATED (CONFS/Conf843.orca.scfp) ****
----------------
ORBITAL ENERGIES
----------------

  NO   OCC          E(Eh)            E(eV) 
   0   2.0000     -91.888366     -2500.4096 
   1   2.0000     -20.594452      -560.4035 
   2   2.0000     -20.593676      -560.3824 
   3   2.0000     -20.550608      -559.2105 
   4   2.0000     -15.628168      -425.2641 
   5   2.0000     -15.607625      -424.7051 
   6   2.0000     -11.394521      -310.0607 
   7   2.0000     -11.383650      -309.7649 
   8   2.0000     -11.333987      -308.4135 
   9   2.0000     -11.310458      -307.7732 
  10   2.0000     -11.307489      -307.6924 
  11   2.0000     -11.299030      -307.4622 
  12   2.0000     -11.260071      -306.4021 
  13   2.0000     -11.259395      -306.3837 
  14   2.0000     -11.256059      -306.2930 
  15   2.0000     -11.250547      -306.1429 
  16   2.0000     -11.240175      -305.8607 
  17   2.0000     -11.236195      -305.7524 
  18   2.0000     -11.233298      -305.6736 
  19   2.0000     -11.233226      -305.6716 
  20   2.0000      -8.893437      -242.0027 
  21   2.0000      -6.575016      -178.9153 
  22   2.0000      -6.573007      -178.8606 
  23   2.0000      -6.572423      -178.8447 
  24   2.0000      -1.454200       -39.5708 
  25   2.0000      -1.414203       -38.4824 
  26   2.0000      -1.356890       -36.9229 
  27   2.0000      -1.339291       -36.4440 
  28   2.0000      -1.237389       -33.6711 
  29   2.0000      -1.154703       -31.4211 
  30   2.0000      -1.120641       -30.4942 
  31   2.0000      -1.044498       -28.4222 
  32   2.0000      -1.036908       -28.2157 
  33   2.0000      -1.012098       -27.5406 
  34   2.0000      -0.998692       -27.1758 
  35   2.0000      -0.984363       -26.7859 
  36   2.0000      -0.922410       -25.1000 
  37   2.0000      -0.886924       -24.1344 
  38   2.0000      -0.847318       -23.0567 
  39   2.0000      -0.836879       -22.7726 
  40   2.0000      -0.830607       -22.6020 
  41   2.0000      -0.820200       -22.3188 
  42   2.0000      -0.759749       -20.6738 
  43   2.0000      -0.736071       -20.0295 
  44   2.0000      -0.726882       -19.7795 
  45   2.0000      -0.692883       -18.8543 
  46   2.0000      -0.684344       -18.6220 
  47   2.0000      -0.681133       -18.5346 
  48   2.0000      -0.676638       -18.4123 
  49   2.0000      -0.659475       -17.9452 
  50   2.0000      -0.651507       -17.7284 
  51   2.0000      -0.644397       -17.5349 
  52   2.0000      -0.635889       -17.3034 
  53   2.0000      -0.603347       -16.4179 
  54   2.0000      -0.601924       -16.3792 
  55   2.0000      -0.598063       -16.2741 
  56   2.0000      -0.597409       -16.2563 
  57   2.0000      -0.576503       -15.6874 
  58   2.0000      -0.575262       -15.6537 
  59   2.0000      -0.567315       -15.4374 
  60   2.0000      -0.559273       -15.2186 
  61   2.0000      -0.556305       -15.1378 
  62   2.0000      -0.542550       -14.7635 
  63   2.0000      -0.519921       -14.1478 
  64   2.0000      -0.515562       -14.0292 
  65   2.0000      -0.511766       -13.9259 
  66   2.0000      -0.503638       -13.7047 
  67   2.0000      -0.497265       -13.5313 
  68   2.0000      -0.482127       -13.1193 
  69   2.0000      -0.463161       -12.6032 
  70   2.0000      -0.458617       -12.4796 
  71   2.0000      -0.456470       -12.4212 
  72   2.0000      -0.353873        -9.6294 
  73   2.0000      -0.346484        -9.4283 
  74   2.0000      -0.327626        -8.9152 
  75   2.0000      -0.317548        -8.6409 
  76   2.0000      -0.315184        -8.5766 
  77   0.0000       0.073918         2.0114 
  78   0.0000       0.107399         2.9225 
  79   0.0000       0.119183         3.2431 
  80   0.0000       0.133828         3.6416 
  81   0.0000       0.139623         3.7993 
  82   0.0000       0.143285         3.8990 
  83   0.0000       0.151166         4.1134 
  84   0.0000       0.156905         4.2696 
  85   0.0000       0.162585         4.4242 
  86   0.0000       0.169004         4.5988 
  87   0.0000       0.174966         4.7611 
  88   0.0000       0.187672         5.1068 
  89   0.0000       0.193745         5.2721 
  90   0.0000       0.203148         5.5279 
  91   0.0000       0.207616         5.6495 
  92   0.0000       0.215016         5.8509 
  93   0.0000       0.217123         5.9082 
  94   0.0000       0.221101         6.0165 
  95   0.0000       0.229009         6.2317 
  96   0.0000       0.239151         6.5076 
  97   0.0000       0.242801         6.6070 
  98   0.0000       0.246791         6.7155 
  99   0.0000       0.284695         7.7469 
 100   0.0000       0.297749         8.1021 
 101   0.0000       0.308536         8.3957 
 102   0.0000       0.316417         8.6101 
 103   0.0000       0.321265         8.7421 
 104   0.0000       0.326937         8.8964 
 105   0.0000       0.333173         9.0661 
 106   0.0000       0.342256         9.3133 
 107   0.0000       0.348329         9.4785 
 108   0.0000       0.355529         9.6744 
 109   0.0000       0.362890         9.8747 
 110   0.0000       0.375204        10.2098 
 111   0.0000       0.384489        10.4625 
 112   0.0000       0.385606        10.4929 
 113   0.0000       0.393031        10.6949 
 114   0.0000       0.395627        10.7656 
 115   0.0000       0.408743        11.1225 
 116   0.0000       0.421698        11.4750 
 117   0.0000       0.423179        11.5153 
 118   0.0000       0.434213        11.8155 
 119   0.0000       0.437056        11.8929 
 120   0.0000       0.442466        12.0401 
 121   0.0000       0.451391        12.2830 
 122   0.0000       0.456822        12.4308 
 123   0.0000       0.457811        12.4577 
 124   0.0000       0.461077        12.5466 
 125   0.0000       0.472582        12.8596 
 126   0.0000       0.478083        13.0093 
 127   0.0000       0.487012        13.2523 
 128   0.0000       0.492652        13.4057 
 129   0.0000       0.495152        13.4738 
 130   0.0000       0.503017        13.6878 
 131   0.0000       0.506380        13.7793 
 132   0.0000       0.512794        13.9538 
 133   0.0000       0.515402        14.0248 
 134   0.0000       0.525535        14.3005 
 135   0.0000       0.531324        14.4581 
 136   0.0000       0.535288        14.5659 
 137   0.0000       0.540988        14.7210 
 138   0.0000       0.544214        14.8088 
 139   0.0000       0.545889        14.8544 
 140   0.0000       0.554055        15.0766 
 141   0.0000       0.556889        15.1537 
 142   0.0000       0.561449        15.2778 
 143   0.0000       0.568658        15.4740 
 144   0.0000       0.573818        15.6144 
 145   0.0000       0.576153        15.6779 
 146   0.0000       0.582966        15.8633 
 147   0.0000       0.589270        16.0348 
 148   0.0000       0.593869        16.1600 
 149   0.0000       0.596149        16.2220 
 150   0.0000       0.602710        16.4006 
 151   0.0000       0.606150        16.4942 
 152   0.0000       0.611486        16.6394 
 153   0.0000       0.618584        16.8325 
 154   0.0000       0.623539        16.9674 
 155   0.0000       0.626225        17.0404 
 156   0.0000       0.629724        17.1357 
 157   0.0000       0.633903        17.2494 
 158   0.0000       0.636460        17.3189 
 159   0.0000       0.643811        17.5190 
 160   0.0000       0.646284        17.5863 
 161   0.0000       0.650229        17.6936 
 162   0.0000       0.654420        17.8077 
 163   0.0000       0.661667        18.0049 
 164   0.0000       0.669428        18.2161 
 165   0.0000       0.675913        18.3925 
 166   0.0000       0.678502        18.4630 
 167   0.0000       0.686846        18.6900 
 168   0.0000       0.688823        18.7438 
 169   0.0000       0.690013        18.7762 
 170   0.0000       0.695813        18.9340 
 171   0.0000       0.703422        19.1411 
 172   0.0000       0.704294        19.1648 
 173   0.0000       0.718001        19.5378 
 174   0.0000       0.724816        19.7232 
 175   0.0000       0.728994        19.8369 
 176   0.0000       0.732668        19.9369 
 177   0.0000       0.738175        20.0868 
 178   0.0000       0.748260        20.3612 
 179   0.0000       0.753221        20.4962 
 180   0.0000       0.757494        20.6125 
 181   0.0000       0.763496        20.7758 
 182   0.0000       0.768323        20.9071 
 183   0.0000       0.784966        21.3600 
 184   0.0000       0.788645        21.4601 
 185   0.0000       0.803643        21.8682 
 186   0.0000       0.809280        22.0216 
 187   0.0000       0.818266        22.2661 
 188   0.0000       0.825755        22.4699 
 189   0.0000       0.828186        22.5361 
 190   0.0000       0.835943        22.7472 
 191   0.0000       0.844693        22.9853 
 192   0.0000       0.847995        23.0751 
 193   0.0000       0.859356        23.3843 
 194   0.0000       0.865178        23.5427 
 195   0.0000       0.873375        23.7657 
 196   0.0000       0.885789        24.1035 
 197   0.0000       0.890345        24.2275 
 198   0.0000       0.899554        24.4781 
 199   0.0000       0.902290        24.5526 
 200   0.0000       0.913308        24.8524 
 201   0.0000       0.921108        25.0646 
 202   0.0000       0.930719        25.3262 
 203   0.0000       0.938039        25.5253 
 204   0.0000       0.942104        25.6360 
 205   0.0000       0.944135        25.6912 
 206   0.0000       0.958062        26.0702 
 207   0.0000       0.967433        26.3252 
 208   0.0000       0.973402        26.4876 
 209   0.0000       0.978377        26.6230 
 210   0.0000       0.983608        26.7653 
 211   0.0000       0.985564        26.8186 
 212   0.0000       0.993405        27.0319 
 213   0.0000       1.002262        27.2729 
 214   0.0000       1.015388        27.6301 
 215   0.0000       1.017779        27.6952 
 216   0.0000       1.028076        27.9754 
 217   0.0000       1.035670        28.1820 
 218   0.0000       1.040841        28.3227 
 219   0.0000       1.043432        28.3932 
 220   0.0000       1.053127        28.6570 
 221   0.0000       1.057616        28.7792 
 222   0.0000       1.061304        28.8796 
 223   0.0000       1.062951        28.9244 
 224   0.0000       1.078766        29.3547 
 225   0.0000       1.092806        29.7368 
 226   0.0000       1.099121        29.9086 
 227   0.0000       1.105878        30.0925 
 228   0.0000       1.111428        30.2435 
 229   0.0000       1.122258        30.5382 
 230   0.0000       1.128599        30.7107 
 231   0.0000       1.130875        30.7727 
 232   0.0000       1.139389        31.0044 
 233   0.0000       1.144858        31.1532 
 234   0.0000       1.154225        31.4081 
 235   0.0000       1.161847        31.6155 
 236   0.0000       1.170762        31.8580 
 237   0.0000       1.176418        32.0120 
 238   0.0000       1.177709        32.0471 
 239   0.0000       1.183974        32.2176 
 240   0.0000       1.188140        32.3309 
 241   0.0000       1.205139        32.7935 
 242   0.0000       1.209892        32.9228 
 243   0.0000       1.214458        33.0471 
 244   0.0000       1.223565        33.2949 
 245   0.0000       1.231011        33.4975 
 246   0.0000       1.234432        33.5906 
 247   0.0000       1.235997        33.6332 
 248   0.0000       1.241784        33.7907 
 249   0.0000       1.255888        34.1745 
 250   0.0000       1.261896        34.3379 
 251   0.0000       1.267123        34.4802 
 252   0.0000       1.273861        34.6635 
 253   0.0000       1.278932        34.8015 
 254   0.0000       1.281937        34.8833 
 255   0.0000       1.295182        35.2437 
 256   0.0000       1.296714        35.2854 
 257   0.0000       1.309524        35.6340 
 258   0.0000       1.323084        36.0029 
 259   0.0000       1.330670        36.2094 
 260   0.0000       1.334574        36.3156 
 261   0.0000       1.342162        36.5221 
 262   0.0000       1.356800        36.9204 
 263   0.0000       1.360211        37.0132 
 264   0.0000       1.365960        37.1697 
 265   0.0000       1.380870        37.5754 
 266   0.0000       1.384221        37.6666 
 267   0.0000       1.395580        37.9757 
 268   0.0000       1.397385        38.0248 
 269   0.0000       1.405031        38.2328 
 270   0.0000       1.414697        38.4959 
 271   0.0000       1.425413        38.7875 
 272   0.0000       1.434203        39.0267 
 273   0.0000       1.436200        39.0810 
 274   0.0000       1.454725        39.5851 
 275   0.0000       1.460351        39.7382 
 276   0.0000       1.466716        39.9114 
 277   0.0000       1.477630        40.2084 
 278   0.0000       1.479740        40.2658 
 279   0.0000       1.488762        40.5113 
 280   0.0000       1.491185        40.5772 
 281   0.0000       1.495420        40.6924 
 282   0.0000       1.506361        40.9902 
 283   0.0000       1.509633        41.0792 
 284   0.0000       1.516447        41.2646 
 285   0.0000       1.522510        41.4296 
 286   0.0000       1.534571        41.7578 
 287   0.0000       1.543524        42.0014 
 288   0.0000       1.545459        42.0541 
 289   0.0000       1.554669        42.3047 
 290   0.0000       1.560016        42.4502 
 291   0.0000       1.560938        42.4753 
 292   0.0000       1.571809        42.7711 
 293   0.0000       1.580517        43.0081 
 294   0.0000       1.586155        43.1615 
 295   0.0000       1.598026        43.4845 
 296   0.0000       1.602200        43.5981 
 297   0.0000       1.604002        43.6471 
 298   0.0000       1.610849        43.8334 
 299   0.0000       1.621457        44.1221 
 300   0.0000       1.629210        44.3331 
 301   0.0000       1.640113        44.6297 
 302   0.0000       1.646714        44.8094 
 303   0.0000       1.648205        44.8499 
 304   0.0000       1.660930        45.1962 
 305   0.0000       1.670702        45.4621 
 306   0.0000       1.676628        45.6234 
 307   0.0000       1.682317        45.7782 
 308   0.0000       1.702082        46.3160 
 309   0.0000       1.705167        46.4000 
 310   0.0000       1.708116        46.4802 
 311   0.0000       1.724088        46.9148 
 312   0.0000       1.725990        46.9666 
 313   0.0000       1.734761        47.2053 
 314   0.0000       1.743790        47.4509 
 315   0.0000       1.759611        47.8815 
 316   0.0000       1.761050        47.9206 
 317   0.0000       1.776173        48.3321 
 318   0.0000       1.781580        48.4793 
 319   0.0000       1.784089        48.5475 
 320   0.0000       1.797565        48.9142 
 321   0.0000       1.819176        49.5023 
 322   0.0000       1.828168        49.7470 
 323   0.0000       1.841134        50.0998 
 324   0.0000       1.852533        50.4100 
 325   0.0000       1.862726        50.6873 
 326   0.0000       1.875272        51.0287 
 327   0.0000       1.895939        51.5911 
 328   0.0000       1.904894        51.8348 
 329   0.0000       1.910191        51.9789 
 330   0.0000       1.926077        52.4112 
 331   0.0000       1.935881        52.6780 
 332   0.0000       1.942241        52.8511 
 333   0.0000       1.960439        53.3463 
 334   0.0000       1.965389        53.4810 
 335   0.0000       1.979969        53.8777 
 336   0.0000       1.995879        54.3106 
 337   0.0000       2.001404        54.4610 
 338   0.0000       2.022290        55.0293 
 339   0.0000       2.024419        55.0872 
 340   0.0000       2.030802        55.2609 
 341   0.0000       2.034448        55.3602 
 342   0.0000       2.051878        55.8344 
 343   0.0000       2.064285        56.1720 
 344   0.0000       2.083047        56.6826 
 345   0.0000       2.100167        57.1485 
 346   0.0000       2.120881        57.7121 
 347   0.0000       2.129101        57.9358 
 348   0.0000       2.155462        58.6531 
 349   0.0000       2.159006        58.7496 
 350   0.0000       2.186977        59.5107 
 351   0.0000       2.201775        59.9133 
 352   0.0000       2.212633        60.2088 
 353   0.0000       2.227185        60.6048 
 354   0.0000       2.233087        60.7654 
 355   0.0000       2.256962        61.4150 
 356   0.0000       2.280103        62.0448 
 357   0.0000       2.289513        62.3008 
 358   0.0000       2.301038        62.6144 
 359   0.0000       2.303660        62.6858 
 360   0.0000       2.313502        62.9536 
 361   0.0000       2.318080        63.0782 
 362   0.0000       2.344721        63.8031 
 363   0.0000       2.359615        64.2084 
 364   0.0000       2.361180        64.2510 
 365   0.0000       2.370857        64.5143 
 366   0.0000       2.386952        64.9523 
 367   0.0000       2.393529        65.1312 
 368   0.0000       2.409464        65.5649 
 369   0.0000       2.410203        65.5850 
 370   0.0000       2.435179        66.2646 
 371   0.0000       2.446460        66.5716 
 372   0.0000       2.457535        66.8729 
 373   0.0000       2.473484        67.3069 
 374   0.0000       2.482488        67.5519 
 375   0.0000       2.500384        68.0389 
 376   0.0000       2.503372        68.1202 
 377   0.0000       2.519561        68.5607 
 378   0.0000       2.530782        68.8661 
 379   0.0000       2.556514        69.5663 
 380   0.0000       2.571614        69.9772 
 381   0.0000       2.577769        70.1447 
 382   0.0000       2.588564        70.4384 
 383   0.0000       2.602309        70.8124 
 384   0.0000       2.611469        71.0617 
 385   0.0000       2.619120        71.2699 
 386   0.0000       2.624508        71.4165 
 387   0.0000       2.636280        71.7368 
 388   0.0000       2.653289        72.1997 
 389   0.0000       2.663527        72.4783 
 390   0.0000       2.677275        72.8524 
 391   0.0000       2.685805        73.0845 
 392   0.0000       2.695226        73.3408 
 393   0.0000       2.712070        73.7992 
 394   0.0000       2.725803        74.1729 
 395   0.0000       2.729192        74.2651 
 396   0.0000       2.740727        74.5790 
 397   0.0000       2.751480        74.8716 
 398   0.0000       2.756597        75.0108 
 399   0.0000       2.763793        75.2066 
 400   0.0000       2.764217        75.2182 
 401   0.0000       2.782052        75.7035 
 402   0.0000       2.797678        76.1287 
 403   0.0000       2.798757        76.1580 
 404   0.0000       2.808501        76.4232 
 405   0.0000       2.825285        76.8799 
 406   0.0000       2.835330        77.1532 
 407   0.0000       2.843767        77.3828 
 408   0.0000       2.850245        77.5591 
 409   0.0000       2.852871        77.6306 
 410   0.0000       2.866018        77.9883 
 411   0.0000       2.874547        78.2204 
 412   0.0000       2.879329        78.3505 
 413   0.0000       2.894615        78.7665 
 414   0.0000       2.908353        79.1403 
 415   0.0000       2.917500        79.3892 
 416   0.0000       2.927397        79.6585 
 417   0.0000       2.933784        79.8323 
 418   0.0000       2.942286        80.0637 
 419   0.0000       2.953259        80.3623 
 420   0.0000       2.962439        80.6121 
 421   0.0000       2.977877        81.0321 
 422   0.0000       2.981661        81.1351 
 423   0.0000       2.994165        81.4754 
 424   0.0000       2.997344        81.5619 
 425   0.0000       3.009941        81.9047 
 426   0.0000       3.015865        82.0658 
 427   0.0000       3.024113        82.2903 
 428   0.0000       3.031984        82.5045 
 429   0.0000       3.039868        82.7190 
 430   0.0000       3.051507        83.0357 
 431   0.0000       3.053254        83.0833 
 432   0.0000       3.063273        83.3559 
 433   0.0000       3.073266        83.6278 
 434   0.0000       3.082776        83.8866 
 435   0.0000       3.085191        83.9523 
 436   0.0000       3.087900        84.0260 
 437   0.0000       3.096133        84.2501 
 438   0.0000       3.102257        84.4167 
 439   0.0000       3.103702        84.4560 
 440   0.0000       3.108396        84.5837 
 441   0.0000       3.117249        84.8247 
 442   0.0000       3.125106        85.0385 
 443   0.0000       3.133409        85.2644 
 444   0.0000       3.142974        85.5247 
 445   0.0000       3.147489        85.6475 
 446   0.0000       3.164218        86.1028 
 447   0.0000       3.169047        86.2342 
 448   0.0000       3.181814        86.5816 
 449   0.0000       3.184208        86.6467 
 450   0.0000       3.192869        86.8824 
 451   0.0000       3.199193        87.0545 
 452   0.0000       3.203908        87.1828 
 453   0.0000       3.216130        87.5153 
 454   0.0000       3.220588        87.6367 
 455   0.0000       3.227177        87.8159 
 456   0.0000       3.232559        87.9624 
 457   0.0000       3.241950        88.2179 
 458   0.0000       3.247246        88.3621 
 459   0.0000       3.256077        88.6024 
 460   0.0000       3.270718        89.0008 
 461   0.0000       3.276873        89.1682 
 462   0.0000       3.278657        89.2168 
 463   0.0000       3.284620        89.3791 
 464   0.0000       3.303729        89.8990 
 465   0.0000       3.306105        89.9637 
 466   0.0000       3.309700        90.0615 
 467   0.0000       3.317428        90.2718 
 468   0.0000       3.322908        90.4209 
 469   0.0000       3.323729        90.4433 
 470   0.0000       3.331342        90.6504 
 471   0.0000       3.334861        90.7462 
 472   0.0000       3.346247        91.0560 
 473   0.0000       3.351636        91.2027 
 474   0.0000       3.355748        91.3145 
 475   0.0000       3.363644        91.5294 
 476   0.0000       3.372377        91.7671 
 477   0.0000       3.377630        91.9100 
 478   0.0000       3.382512        92.0428 
 479   0.0000       3.388072        92.1941 
 480   0.0000       3.397155        92.4413 
 481   0.0000       3.398190        92.4695 
 482   0.0000       3.400830        92.5413 
 483   0.0000       3.404597        92.6438 
 484   0.0000       3.409683        92.7822 
 485   0.0000       3.415843        92.9498 
 486   0.0000       3.419722        93.0554 
 487   0.0000       3.428026        93.2813 
 488   0.0000       3.432006        93.3896 
 489   0.0000       3.441273        93.6418 
 490   0.0000       3.448500        93.8385 
 491   0.0000       3.452909        93.9584 
 492   0.0000       3.456148        94.0466 
 493   0.0000       3.460058        94.1530 
 494   0.0000       3.466549        94.3296 
 495   0.0000       3.470110        94.4265 
 496   0.0000       3.474630        94.5495 
 497   0.0000       3.489283        94.9482 
 498   0.0000       3.491601        95.0113 
 499   0.0000       3.502619        95.3111 
 500   0.0000       3.509080        95.4869 
 501   0.0000       3.512220        95.5724 
 502   0.0000       3.520961        95.8102 
 503   0.0000       3.538334        96.2830 
 504   0.0000       3.541098        96.3582 
 505   0.0000       3.554684        96.7279 
 506   0.0000       3.560032        96.8734 
 507   0.0000       3.567592        97.0791 
 508   0.0000       3.580275        97.4242 
 509   0.0000       3.589339        97.6709 
 510   0.0000       3.595726        97.8447 
 511   0.0000       3.603588        98.0586 
 512   0.0000       3.608304        98.1869 
 513   0.0000       3.617436        98.4354 
 514   0.0000       3.618514        98.4648 
 515   0.0000       3.624007        98.6143 
 516   0.0000       3.627153        98.6998 
 517   0.0000       3.633636        98.8763 
 518   0.0000       3.635079        98.9155 
 519   0.0000       3.642225        99.1100 
 520   0.0000       3.649355        99.3040 
 521   0.0000       3.655287        99.4654 
 522   0.0000       3.664020        99.7031 
 523   0.0000       3.670987        99.8926 
 524   0.0000       3.677578       100.0720 
 525   0.0000       3.680061       100.1395 
 526   0.0000       3.692623       100.4814 
 527   0.0000       3.699225       100.6610 
 528   0.0000       3.700232       100.6884 
 529   0.0000       3.702554       100.7516 
 530   0.0000       3.714223       101.0691 
 531   0.0000       3.722310       101.2892 
 532   0.0000       3.728534       101.4586 
 533   0.0000       3.740352       101.7801 
 534   0.0000       3.743526       101.8665 
 535   0.0000       3.748742       102.0085 
 536   0.0000       3.754518       102.1656 
 537   0.0000       3.760037       102.3158 
 538   0.0000       3.764077       102.4257 
 539   0.0000       3.769781       102.5809 
 540   0.0000       3.781527       102.9006 
 541   0.0000       3.790113       103.1342 
 542   0.0000       3.792780       103.2068 
 543   0.0000       3.798823       103.3712 
 544   0.0000       3.805334       103.5484 
 545   0.0000       3.815517       103.8255 
 546   0.0000       3.818465       103.9057 
 547   0.0000       3.825524       104.0978 
 548   0.0000       3.830812       104.2417 
 549   0.0000       3.839181       104.4694 
 550   0.0000       3.847358       104.6919 
 551   0.0000       3.866433       105.2110 
 552   0.0000       3.872005       105.3626 
 553   0.0000       3.874183       105.4219 
 554   0.0000       3.889631       105.8422 
 555   0.0000       3.903273       106.2134 
 556   0.0000       3.909590       106.3854 
 557   0.0000       3.911500       106.4373 
 558   0.0000       3.927246       106.8658 
 559   0.0000       3.935907       107.1015 
 560   0.0000       3.944583       107.3376 
 561   0.0000       3.951677       107.5306 
 562   0.0000       3.961526       107.7986 
 563   0.0000       3.971038       108.0574 
 564   0.0000       3.976071       108.1944 
 565   0.0000       3.981192       108.3337 
 566   0.0000       3.984621       108.4270 
 567   0.0000       3.987169       108.4964 
 568   0.0000       3.992183       108.6328 
 569   0.0000       4.016172       109.2856 
 570   0.0000       4.025651       109.5435 
 571   0.0000       4.029921       109.6597 
 572   0.0000       4.045902       110.0946 
 573   0.0000       4.051345       110.2427 
 574   0.0000       4.054072       110.3169 
 575   0.0000       4.073346       110.8414 
 576   0.0000       4.079220       111.0012 
 577   0.0000       4.083815       111.1263 
 578   0.0000       4.100583       111.5825 
 579   0.0000       4.105422       111.7142 
 580   0.0000       4.113076       111.9225 
 581   0.0000       4.115680       111.9934 
 582   0.0000       4.124911       112.2445 
 583   0.0000       4.131679       112.4287 
 584   0.0000       4.136269       112.5536 
 585   0.0000       4.145898       112.8156 
 586   0.0000       4.148125       112.8762 
 587   0.0000       4.157441       113.1297 
 588   0.0000       4.166553       113.3777 
 589   0.0000       4.174646       113.5979 
 590   0.0000       4.177100       113.6647 
 591   0.0000       4.183057       113.8268 
 592   0.0000       4.188749       113.9817 
 593   0.0000       4.196129       114.1825 
 594   0.0000       4.199225       114.2667 
 595   0.0000       4.209213       114.5385 
 596   0.0000       4.222976       114.9130 
 597   0.0000       4.228989       115.0767 
 598   0.0000       4.233429       115.1975 
 599   0.0000       4.243519       115.4720 
 600   0.0000       4.251328       115.6845 
 601   0.0000       4.259551       115.9083 
 602   0.0000       4.267718       116.1305 
 603   0.0000       4.274137       116.3052 
 604   0.0000       4.282012       116.5195 
 605   0.0000       4.288095       116.6850 
 606   0.0000       4.299800       117.0035 
 607   0.0000       4.304226       117.1239 
 608   0.0000       4.317952       117.4974 
 609   0.0000       4.320970       117.5796 
 610   0.0000       4.336562       118.0038 
 611   0.0000       4.342335       118.1610 
 612   0.0000       4.345784       118.2548 
 613   0.0000       4.348385       118.3256 
 614   0.0000       4.353234       118.4575 
 615   0.0000       4.367644       118.8496 
 616   0.0000       4.370816       118.9360 
 617   0.0000       4.377161       119.1086 
 618   0.0000       4.383698       119.2865 
 619   0.0000       4.396068       119.6231 
 620   0.0000       4.401430       119.7690 
 621   0.0000       4.406669       119.9116 
 622   0.0000       4.422424       120.3403 
 623   0.0000       4.426467       120.4503 
 624   0.0000       4.442746       120.8933 
 625   0.0000       4.448750       121.0566 
 626   0.0000       4.452948       121.1709 
 627   0.0000       4.463079       121.4465 
 628   0.0000       4.478047       121.8538 
 629   0.0000       4.485502       122.0567 
 630   0.0000       4.505734       122.6072 
 631   0.0000       4.508757       122.6895 
 632   0.0000       4.514858       122.8555 
 633   0.0000       4.520828       123.0180 
 634   0.0000       4.530228       123.2738 
 635   0.0000       4.542175       123.5989 
 636   0.0000       4.546743       123.7232 
 637   0.0000       4.550888       123.8360 
 638   0.0000       4.561982       124.1378 
 639   0.0000       4.566948       124.2730 
 640   0.0000       4.576711       124.5386 
 641   0.0000       4.582223       124.6886 
 642   0.0000       4.593589       124.9979 
 643   0.0000       4.608884       125.4141 
 644   0.0000       4.610082       125.4467 
 645   0.0000       4.626150       125.8839 
 646   0.0000       4.627053       125.9085 
 647   0.0000       4.639219       126.2396 
 648   0.0000       4.644484       126.3828 
 649   0.0000       4.646579       126.4399 
 650   0.0000       4.650015       126.5333 
 651   0.0000       4.661851       126.8554 
 652   0.0000       4.674575       127.2016 
 653   0.0000       4.677852       127.2908 
 654   0.0000       4.687900       127.5643 
 655   0.0000       4.698751       127.8595 
 656   0.0000       4.712680       128.2385 
 657   0.0000       4.720015       128.4381 
 658   0.0000       4.728844       128.6784 
 659   0.0000       4.741401       129.0201 
 660   0.0000       4.745325       129.1269 
 661   0.0000       4.774938       129.9327 
 662   0.0000       4.776337       129.9707 
 663   0.0000       4.779897       130.0676 
 664   0.0000       4.806664       130.7960 
 665   0.0000       4.825169       131.2995 
 666   0.0000       4.841726       131.7501 
 667   0.0000       4.852236       132.0360 
 668   0.0000       4.853680       132.0753 
 669   0.0000       4.876027       132.6834 
 670   0.0000       4.902704       133.4094 
 671   0.0000       4.908900       133.5780 
 672   0.0000       4.919486       133.8660 
 673   0.0000       4.937589       134.3586 
 674   0.0000       4.970738       135.2606 
 675   0.0000       4.987790       135.7247 
 676   0.0000       5.006281       136.2278 
 677   0.0000       5.019695       136.5928 
 678   0.0000       5.027356       136.8013 
 679   0.0000       5.052448       137.4841 
 680   0.0000       5.056138       137.5845 
 681   0.0000       5.067508       137.8939 
 682   0.0000       5.092513       138.5743 
 683   0.0000       5.095648       138.6596 
 684   0.0000       5.107994       138.9956 
 685   0.0000       5.112529       139.1190 
 686   0.0000       5.122992       139.4037 
 687   0.0000       5.143451       139.9604 
 688   0.0000       5.145500       140.0162 
 689   0.0000       5.155204       140.2802 
 690   0.0000       5.159219       140.3895 
 691   0.0000       5.169056       140.6572 
 692   0.0000       5.188147       141.1767 
 693   0.0000       5.197705       141.4368 
 694   0.0000       5.200738       141.5193 
 695   0.0000       5.212762       141.8465 
 696   0.0000       5.219757       142.0368 
 697   0.0000       5.230203       142.3211 
 698   0.0000       5.236833       142.5015 
 699   0.0000       5.251492       142.9004 
 700   0.0000       5.259222       143.1107 
 701   0.0000       5.271424       143.4427 
 702   0.0000       5.297507       144.1525 
 703   0.0000       5.319439       144.7493 
 704   0.0000       5.324836       144.8961 
 705   0.0000       5.338482       145.2675 
 706   0.0000       5.344346       145.4271 
 707   0.0000       5.350191       145.5861 
 708   0.0000       5.366616       146.0330 
 709   0.0000       5.379868       146.3936 
 710   0.0000       5.395200       146.8109 
 711   0.0000       5.404206       147.0559 
 712   0.0000       5.432515       147.8262 
 713   0.0000       5.452042       148.3576 
 714   0.0000       5.466539       148.7521 
 715   0.0000       5.485336       149.2636 
 716   0.0000       5.499147       149.6394 
 717   0.0000       5.506433       149.8377 
 718   0.0000       5.512271       149.9965 
 719   0.0000       5.528795       150.4462 
 720   0.0000       5.540106       150.7539 
 721   0.0000       5.540722       150.7707 
 722   0.0000       5.554570       151.1475 
 723   0.0000       5.568441       151.5250 
 724   0.0000       5.584759       151.9690 
 725   0.0000       5.602523       152.4524 
 726   0.0000       5.615781       152.8132 
 727   0.0000       5.622753       153.0029 
 728   0.0000       5.638353       153.4274 
 729   0.0000       5.643406       153.5649 
 730   0.0000       5.649330       153.7261 
 731   0.0000       5.658023       153.9626 
 732   0.0000       5.665006       154.1526 
 733   0.0000       5.678767       154.5271 
 734   0.0000       5.702282       155.1670 
 735   0.0000       5.715170       155.5177 
 736   0.0000       5.723924       155.7559 
 737   0.0000       5.726806       155.8343 
 738   0.0000       5.735793       156.0789 
 739   0.0000       5.750014       156.4658 
 740   0.0000       5.759446       156.7225 
 741   0.0000       5.778355       157.2370 
 742   0.0000       5.790405       157.5649 
 743   0.0000       5.796507       157.7310 
 744   0.0000       5.817712       158.3080 
 745   0.0000       5.843214       159.0019 
 746   0.0000       5.867760       159.6699 
 747   0.0000       5.873051       159.8139 
 748   0.0000       5.898093       160.4953 
 749   0.0000       5.928744       161.3293 
 750   0.0000       5.932072       161.4199 
 751   0.0000       5.974720       162.5804 
 752   0.0000       5.982457       162.7909 
 753   0.0000       5.995445       163.1444 
 754   0.0000       6.013431       163.6338 
 755   0.0000       6.023813       163.9163 
 756   0.0000       6.056252       164.7990 
 757   0.0000       6.059135       164.8775 
 758   0.0000       6.081658       165.4903 
 759   0.0000       6.095992       165.8804 
 760   0.0000       6.098769       165.9559 
 761   0.0000       6.174240       168.0096 
 762   0.0000       6.217080       169.1753 
 763   0.0000       6.229501       169.5133 
 764   0.0000       6.243965       169.9069 
 765   0.0000       6.267214       170.5396 
 766   0.0000       6.279836       170.8830 
 767   0.0000       6.323839       172.0804 
 768   0.0000       6.345886       172.6803 
 769   0.0000       6.349480       172.7781 
 770   0.0000       6.367425       173.2665 
 771   0.0000       6.382656       173.6809 
 772   0.0000       6.405680       174.3074 
 773   0.0000       6.442282       175.3034 
 774   0.0000       6.456407       175.6878 
 775   0.0000       6.460993       175.8125 
 776   0.0000       6.502764       176.9492 
 777   0.0000       6.558824       178.4747 
 778   0.0000       6.585713       179.2064 
 779   0.0000       6.611346       179.9039 
 780   0.0000       6.629894       180.4086 
 781   0.0000       6.675492       181.6494 
 782   0.0000       6.724840       182.9922 
 783   0.0000       6.751303       183.7123 
 784   0.0000       6.794087       184.8765 
 785   0.0000       6.891761       187.5343 
 786   0.0000       6.913817       188.1345 
 787   0.0000       6.925080       188.4410 
 788   0.0000       6.982087       189.9922 
 789   0.0000       6.987796       190.1476 
 790   0.0000       7.054947       191.9749 
 791   0.0000       7.063161       192.1984 
 792   0.0000       7.084489       192.7787 
 793   0.0000       7.135907       194.1779 
 794   0.0000       7.224265       196.5822 
 795   0.0000       7.262033       197.6100 
 796   0.0000       7.278663       198.0625 
 797   0.0000       7.284250       198.2145 
 798   0.0000       7.343003       199.8133 
 799   0.0000       7.372842       200.6252 
 800   0.0000       7.390692       201.1110 
 801   0.0000       7.562245       205.7791 
 802   0.0000       7.582040       206.3178 
 803   0.0000       7.592034       206.5897 
 804   0.0000       7.649444       208.1519 
 805   0.0000       7.817018       212.7119 
 806   0.0000       7.829646       213.0555 
 807   0.0000       7.906809       215.1552 
 808   0.0000       7.936513       215.9635 
 809   0.0000       9.357546       254.6318 
 810   0.0000       9.562963       260.2215 
 811   0.0000      10.832447       294.7659 
 812   0.0000      11.294178       307.3302 
 813   0.0000      11.879271       323.2514 
 814   0.0000      12.593241       342.6795 
 815   0.0000      12.921451       351.6105 
 816   0.0000      13.068553       355.6134 
 817   0.0000      13.160903       358.1264 
 818   0.0000      13.212261       359.5239 
 819   0.0000      13.401524       364.6740 
 820   0.0000      13.478401       366.7659 
 821   0.0000      13.730350       373.6218 
 822   0.0000      13.894804       378.0968 
 823   0.0000      13.956121       379.7654 
 824   0.0000      14.045658       382.2018 
 825   0.0000      14.558925       396.1685 
 826   0.0000      14.686186       399.6314 
 827   0.0000      15.958219       434.2452 

                    ********************************
                    * MULLIKEN POPULATION ANALYSIS *
                    ********************************

-----------------------
MULLIKEN ATOMIC CHARGES
-----------------------
   0 C :   -0.285290
   1 C :    0.052663
   2 O :   -0.357042
   3 C :    0.432712
   4 O :   -0.408045
   5 C :   -0.177255
   6 C :    0.140709
   7 C :   -0.285700
   8 N :   -0.124861
   9 C :    0.203453
  10 S :   -0.440102
  11 N :   -0.199994
  12 C :    0.050093
  13 C :    0.050950
  14 C :   -0.161511
  15 C :   -0.133227
  16 C :   -0.280936
  17 C :    0.312557
  18 O :   -0.358944
  19 C :   -0.278945
  20 H :    0.098657
  21 H :    0.104617
  22 H :    0.095065
  23 H :    0.097913
  24 H :    0.099412
  25 H :    0.125508
  26 H :    0.105326
  27 H :    0.125444
  28 H :    0.197112
  29 H :    0.194101
  30 H :    0.154114
  31 H :    0.154509
  32 H :    0.160382
  33 H :    0.129534
  34 H :    0.240629
  35 H :    0.166391
Sum of atomic charges:    0.0000000

--------------------------------
MULLIKEN REDUCED ORBITAL CHARGES
--------------------------------
  0 C s       :     3.257801  s :     3.257801
      pz      :     1.011683  p :     2.949173
      px      :     0.920800
      py      :     1.016690
      dz2     :     0.013527  d :     0.073832
      dxz     :     0.013153
      dyz     :     0.020228
      dx2y2   :     0.010788
      dxy     :     0.016134
      f0      :     0.000263  f :     0.004485
      f+1     :     0.000533
      f-1     :     0.001395
      f+2     :     0.000321
      f-2     :     0.000320
      f+3     :     0.000868
      f-3     :     0.000784
  1 C s       :     3.170734  s :     3.170734
      pz      :     1.007095  p :     2.612304
      px      :     0.831274
      py      :     0.773935
      dz2     :     0.020522  d :     0.152471
      dxz     :     0.022355
      dyz     :     0.037766
      dx2y2   :     0.034230
      dxy     :     0.037598
      f0      :     0.001250  f :     0.011828
      f+1     :     0.000990
      f-1     :     0.002036
      f+2     :     0.000500
      f-2     :     0.001702
      f+3     :     0.002384
      f-3     :     0.002966
  2 O s       :     3.715932  s :     3.715932
      pz      :     1.729702  p :     4.605565
      px      :     1.318422
      py      :     1.557441
      dz2     :     0.003847  d :     0.033244
      dxz     :     0.007438
      dyz     :     0.003822
      dx2y2   :     0.012077
      dxy     :     0.006061
      f0      :     0.000259  f :     0.002301
      f+1     :     0.000350
      f-1     :     0.000172
      f+2     :     0.000440
      f-2     :     0.000194
      f+3     :     0.000542
      f-3     :     0.000344
  3 C s       :     3.065517  s :     3.065517
      pz      :     0.690066  p :     2.186317
      px      :     0.701616
      py      :     0.794635
      dz2     :     0.034350  d :     0.289097
      dxz     :     0.058445
      dyz     :     0.046790
      dx2y2   :     0.089397
      dxy     :     0.060115
      f0      :     0.002226  f :     0.026356
      f+1     :     0.003466
      f-1     :     0.001776
      f+2     :     0.003263
      f-2     :     0.004382
      f+3     :     0.004045
      f-3     :     0.007198
  4 O s       :     3.774062  s :     3.774062
      pz      :     1.562998  p :     4.596150
      px      :     1.585843
      py      :     1.447309
      dz2     :     0.003799  d :     0.035424
      dxz     :     0.002878
      dyz     :     0.007911
      dx2y2   :     0.009096
      dxy     :     0.011740
      f0      :     0.000251  f :     0.002409
      f+1     :     0.000139
      f-1     :     0.000283
      f+2     :     0.000106
      f-2     :     0.000344
      f+3     :     0.000696
      f-3     :     0.000590
  5 C s       :     3.184791  s :     3.184791
      pz      :     0.957480  p :     2.900700
      px      :     1.050072
      py      :     0.893148
      dz2     :     0.015015  d :     0.080992
      dxz     :     0.010902
      dyz     :     0.027190
      dx2y2   :     0.012853
      dxy     :     0.015031
      f0      :     0.000828  f :     0.010771
      f+1     :     0.001344
      f-1     :     0.001743
      f+2     :     0.001952
      f-2     :     0.001545
      f+3     :     0.001350
      f-3     :     0.002010
  6 C s       :     3.192574  s :     3.192574
      pz      :     0.856035  p :     2.476368
      px      :     0.839517
      py      :     0.780815
      dz2     :     0.032547  d :     0.176097
      dxz     :     0.020754
      dyz     :     0.047904
      dx2y2   :     0.035181
      dxy     :     0.039712
      f0      :     0.001842  f :     0.014252
      f+1     :     0.001209
      f-1     :     0.002513
      f+2     :     0.002291
      f-2     :     0.002510
      f+3     :     0.001699
      f-3     :     0.002186
  7 C s       :     3.280554  s :     3.280554
      pz      :     0.942467  p :     2.931468
      px      :     0.978610
      py      :     1.010392
      dz2     :     0.019194  d :     0.069021
      dxz     :     0.013801
      dyz     :     0.007849
      dx2y2   :     0.020664
      dxy     :     0.007513
      f0      :     0.000383  f :     0.004656
      f+1     :     0.001418
      f-1     :     0.000661
      f+2     :     0.000470
      f-2     :     0.000554
      f+3     :     0.000143
      f-3     :     0.001027
  8 N s       :     3.341212  s :     3.341212
      pz      :     1.245498  p :     3.719371
      px      :     1.349221
      py      :     1.124652
      dz2     :     0.013674  d :     0.059335
      dxz     :     0.010481
      dyz     :     0.012999
      dx2y2   :     0.009947
      dxy     :     0.012234
      f0      :     0.000579  f :     0.004943
      f+1     :     0.000970
      f-1     :     0.000670
      f+2     :     0.001006
      f-2     :     0.000924
      f+3     :     0.000457
      f-3     :     0.000337
  9 C s       :     3.161813  s :     3.161813
      pz      :     0.769516  p :     2.355088
      px      :     0.715288
      py      :     0.870284
      dz2     :     0.060751  d :     0.262053
      dxz     :     0.036257
      dyz     :     0.048743
      dx2y2   :     0.057964
      dxy     :     0.058338
      f0      :     0.002502  f :     0.017594
      f+1     :     0.002554
      f-1     :     0.002225
      f+2     :     0.002623
      f-2     :     0.002460
      f+3     :     0.002345
      f-3     :     0.002884
 10 S s       :     5.855820  s :     5.855820
      pz      :     3.464153  p :    10.489542
      px      :     3.717091
      py      :     3.308298
      dz2     :     0.010704  d :     0.084613
      dxz     :     0.005040
      dyz     :     0.038824
      dx2y2   :     0.015447
      dxy     :     0.014598
      f0      :     0.001109  f :     0.010127
      f+1     :     0.000135
      f-1     :     0.002288
      f+2     :     0.002901
      f-2     :     0.001533
      f+3     :     0.001294
      f-3     :     0.000867
 11 N s       :     3.370358  s :     3.370358
      pz      :     1.339001  p :     3.767236
      px      :     1.374054
      py      :     1.054181
      dz2     :     0.007883  d :     0.057951
      dxz     :     0.008479
      dyz     :     0.013867
      dx2y2   :     0.013336
      dxy     :     0.014386
      f0      :     0.000390  f :     0.004449
      f+1     :     0.000568
      f-1     :     0.000561
      f+2     :     0.000647
      f-2     :     0.000703
      f+3     :     0.000837
      f-3     :     0.000742
 12 C s       :     3.118968  s :     3.118968
      pz      :     0.854008  p :     2.637265
      px      :     0.987959
      py      :     0.795298
      dz2     :     0.035468  d :     0.182394
      dxz     :     0.029941
      dyz     :     0.041726
      dx2y2   :     0.034809
      dxy     :     0.040450
      f0      :     0.001135  f :     0.011279
      f+1     :     0.001220
      f-1     :     0.001983
      f+2     :     0.002412
      f-2     :     0.001974
      f+3     :     0.001322
      f-3     :     0.001234
 13 C s       :     3.094119  s :     3.094119
      pz      :     0.898514  p :     2.735865
      px      :     0.912616
      py      :     0.924735
      dz2     :     0.017891  d :     0.107783
      dxz     :     0.012940
      dyz     :     0.027835
      dx2y2   :     0.023166
      dxy     :     0.025951
      f0      :     0.001038  f :     0.011283
      f+1     :     0.001588
      f-1     :     0.001204
      f+2     :     0.001786
      f-2     :     0.001999
      f+3     :     0.001814
[...]
      f-1     :     0.005075
      f+2     :     0.006965
      f-2     :     0.005477
      f+3     :     0.006222
      f-3     :     0.009225
 15 C s       :     2.705780  s :     2.705780
      pz      :     0.896908  p :     2.796420
      px      :     0.939221
      py      :     0.960291
      dz2     :     0.090215  d :     0.415695
      dxz     :     0.071882
      dyz     :     0.056280
      dx2y2   :     0.100733
      dxy     :     0.096585
      f0      :     0.003176  f :     0.041000
      f+1     :     0.005442
      f-1     :     0.005689
      f+2     :     0.007264
      f-2     :     0.006105
      f+3     :     0.006957
      f-3     :     0.006368
 16 C s       :     2.701856  s :     2.701856
      pz      :     0.936056  p :     2.869255
      px      :     0.966452
      py      :     0.966747
      dz2     :     0.042471  d :     0.390974
      dxz     :     0.061272
      dyz     :     0.083057
      dx2y2   :     0.095215
      dxy     :     0.108959
      f0      :     0.004071  f :     0.040323
      f+1     :     0.005145
      f-1     :     0.003482
      f+2     :     0.005722
      f-2     :     0.005504
      f+3     :     0.007960
      f-3     :     0.008439
 17 C s       :     2.701511  s :     2.701511
      pz      :     0.851993  p :     2.684535
      px      :     0.819838
      py      :     1.012704
      dz2     :     0.123566  d :     0.708176
      dxz     :     0.116898
      dyz     :     0.129026
      dx2y2   :     0.170964
      dxy     :     0.167723
      f0      :     0.008897  f :     0.099238
      f+1     :     0.016907
      f-1     :     0.008199
      f+2     :     0.015513
      f-2     :     0.014741
      f+3     :     0.015662
      f-3     :     0.019320
 18 O s       :     3.177290  s :     3.177290
      pz      :     1.438740  p :     4.348971
      px      :     1.412490
      py      :     1.497740
      dz2     :     0.007897  d :     0.075561
      dxz     :     0.017515
      dyz     :     0.017449
      dx2y2   :     0.017848
      dxy     :     0.014852
      f0      :     0.000583  f :     0.005075
      f+1     :     0.000760
      f-1     :     0.000357
      f+2     :     0.000765
      f-2     :     0.000904
      f+3     :     0.000739
      f-3     :     0.000967
 19 C s       :     2.695295  s :     2.695295
      pz      :     0.931829  p :     2.847597
      px      :     0.955964
      py      :     0.959803
      dz2     :     0.073741  d :     0.388519
      dxz     :     0.068884
      dyz     :     0.059001
      dx2y2   :     0.089045
      dxy     :     0.097848
      f0      :     0.003257  f :     0.040821
      f+1     :     0.005472
      f-1     :     0.005311
      f+2     :     0.007320
      f-2     :     0.006599
      f+3     :     0.006899
      f-3     :     0.005964
 20 H s       :     0.849412  s :     0.849412
      pz      :     0.061651  p :     0.150365
      px      :     0.037778
      py      :     0.050936
      dz2     :     0.008533  d :     0.027506
      dxz     :     0.005565
      dyz     :     0.007148
      dx2y2   :     0.002828
      dxy     :     0.003432
 21 H s       :     0.845297  s :     0.845297
      pz      :     0.040065  p :     0.150486
      px      :     0.051616
      py      :     0.058806
      dz2     :     0.002394  d :     0.027378
      dxz     :     0.002979
      dyz     :     0.006433
      dx2y2   :     0.008675
      dxy     :     0.006898
 22 H s       :     0.850503  s :     0.850503
      pz      :     0.060670  p :     0.151162
      px      :     0.041562
      py      :     0.048930
      dz2     :     0.008287  d :     0.027474
      dxz     :     0.005749
      dyz     :     0.006919
      dx2y2   :     0.003140
      dxy     :     0.003378
 23 H s       :     0.851729  s :     0.851729
      pz      :     0.067001  p :     0.145957
      px      :     0.036721
      py      :     0.042235
      dz2     :     0.008922  d :     0.027161
      dxz     :     0.004831
      dyz     :     0.007575
      dx2y2   :     0.002564
      dxy     :     0.003270
 24 H s       :     0.858071  s :     0.858071
      pz      :     0.063988  p :     0.144586
      px      :     0.034196
      py      :     0.046402
      dz2     :     0.008157  d :     0.026730
      dxz     :     0.004701
      dyz     :     0.007835
      dx2y2   :     0.002609
      dxy     :     0.003428
 25 H s       :     0.830230  s :     0.830230
      pz      :     0.065160  p :     0.150169
      px      :     0.042543
      py      :     0.042466
      dz2     :     0.009027  d :     0.027695
      dxz     :     0.007469
      dyz     :     0.006950
      dx2y2   :     0.002675
      dxy     :     0.001575
 26 H s       :     0.842341  s :     0.842341
      pz      :     0.037262  p :     0.150011
      px      :     0.039665
      py      :     0.073084
      dz2     :     0.002294  d :     0.027693
      dxz     :     0.000224
      dyz     :     0.009070
      dx2y2   :     0.006759
      dxy     :     0.009346
 27 H s       :     0.830748  s :     0.830748
      pz      :     0.038470  p :     0.151913
      px      :     0.068692
      py      :     0.044751
      dz2     :     0.002492  d :     0.027728
      dxz     :     0.008085
      dyz     :     0.000919
      dx2y2   :     0.008632
      dxy     :     0.007601
 28 H s       :     0.743047  s :     0.743047
      pz      :     0.059887  p :     0.254016
      px      :     0.083344
      py      :     0.110784
      dz2     :     0.005803  d :     0.061844
      dxz     :     0.003834
      dyz     :     0.015618
      dx2y2   :     0.018556
      dxy     :     0.018033
 29 H s       :     0.748545  s :     0.748545
      pz      :     0.111156  p :     0.254062
      px      :     0.098667
      py      :     0.044239
      dz2     :     0.020639  d :     0.061341
      dxz     :     0.015462
      dyz     :     0.009542
      dx2y2   :     0.009168
      dxy     :     0.006530
 30 H s       :     0.828125  s :     0.828125
      pz      :     0.041621  p :     0.148297
      px      :     0.067017
      py      :     0.039659
      dz2     :     0.003347  d :     0.028335
      dxz     :     0.007821
      dyz     :     0.002784
      dx2y2   :     0.007179
      dxy     :     0.007205
 31 H s       :     0.841582  s :     0.841582
      pz      :     0.052747  p :     0.155893
      px      :     0.067150
      py      :     0.035996
      dz2     :     0.005060  d :     0.027460
      dxz     :     0.007156
      dyz     :     0.003032
      dx2y2   :     0.005956
      dxy     :     0.006255
 32 H s       :     0.842962  s :     0.842962
      pz      :     0.037306  p :     0.151265
      px      :     0.041691
      py      :     0.072268
      dz2     :     0.002674  d :     0.026470
      dxz     :     0.001252
      dyz     :     0.006774
      dx2y2   :     0.007854
      dxy     :     0.007916
 33 H s       :     0.849070  s :     0.849070
      pz      :     0.058568  p :     0.159164
      px      :     0.046165
      py      :     0.054431
      dz2     :     0.006162  d :     0.027769
      dxz     :     0.004580
      dyz     :     0.006282
      dx2y2   :     0.005579
      dxy     :     0.005166
 34 H s       :     0.706822  s :     0.706822
      pz      :     0.116215  p :     0.348032
      px      :     0.082187
      py      :     0.149630
      dz2     :     0.024032  d :     0.099608
      dxz     :     0.011635
      dyz     :     0.024585
      dx2y2   :     0.019940
      dxy     :     0.019416
 35 H s       :     0.839731  s :     0.839731
      pz      :     0.040436  p :     0.156995
      px      :     0.043317
      py      :     0.073241
      dz2     :     0.002702  d :     0.028037
      dxz     :     0.001479
      dyz     :     0.007412
      dx2y2   :     0.008230
      dxy     :     0.008215


                      *****************************
                      * MAYER POPULATION ANALYSIS *
                      *****************************

  NA   - Mulliken gross atomic population
  ZA   - Total nuclear charge
  QA   - Mulliken gross atomic charge
  VA   - Mayer's total valence
  BVA  - Mayer's bonded valence
  FA   - Mayer's free valence

  ATOM       NA         ZA         QA         VA         BVA        FA
  0 C      6.2853     6.0000    -0.2853     3.8891     3.8891    -0.0000
  1 C      5.9473     6.0000     0.0527     3.8674     3.8674     0.0000
  2 O      8.3570     8.0000    -0.3570     2.0216     2.0216     0.0000
  3 C      5.5673     6.0000     0.4327     4.2123     4.2123    -0.0000
  4 O      8.4080     8.0000    -0.4080     2.1009     2.1009     0.0000
  5 C      6.1773     6.0000    -0.1773     3.6316     3.6316     0.0000
  6 C      5.8593     6.0000     0.1407     3.8332     3.8332     0.0000
  7 C      6.2857     6.0000    -0.2857     3.8940     3.8940     0.0000
  8 N      7.1249     7.0000    -0.1249     3.2884     3.2884    -0.0000
  9 C      5.7965     6.0000     0.2035     4.1546     4.1546    -0.0000
 10 S     16.4401    16.0000    -0.4401     1.7553     1.7553    -0.0000
 11 N      7.2000     7.0000    -0.2000     3.2593     3.2593    -0.0000
 12 C      5.9499     6.0000     0.0501     3.9618     3.9618    -0.0000
 13 C      5.9490     6.0000     0.0510     3.7386     3.7386     0.0000
 14 C      6.1615     6.0000    -0.1615     3.8644     3.8644     0.0000
 15 C      6.1332     6.0000    -0.1332     3.8072     3.8072    -0.0000
 16 C      6.2809     6.0000    -0.2809     3.7937     3.7937     0.0000
 17 C      5.6874     6.0000     0.3126     3.8734     3.8734     0.0000
 18 O      8.3589     8.0000    -0.3589     2.1153     2.1153    -0.0000
 19 C      6.2789     6.0000    -0.2789     3.8490     3.8490    -0.0000
 20 H      0.9013     1.0000     0.0987     0.9824     0.9824     0.0000
 21 H      0.8954     1.0000     0.1046     0.9843     0.9843     0.0000
 22 H      0.9049     1.0000     0.0951     0.9810     0.9810    -0.0000
 23 H      0.9021     1.0000     0.0979     0.9812     0.9812     0.0000
 24 H      0.9006     1.0000     0.0994     0.9791     0.9791     0.0000
 25 H      0.8745     1.0000     0.1255     0.9833     0.9833     0.0000
 26 H      0.8947     1.0000     0.1053     0.9863     0.9863     0.0000
 27 H      0.8746     1.0000     0.1254     0.9751     0.9751     0.0000
 28 H      0.8029     1.0000     0.1971     1.0228     1.0228     0.0000
 29 H      0.8059     1.0000     0.1941     1.0183     1.0183     0.0000
 30 H      0.8459     1.0000     0.1541     0.9959     0.9959    -0.0000
 31 H      0.8455     1.0000     0.1545     0.9884     0.9884     0.0000
 32 H      0.8396     1.0000     0.1604     0.9772     0.9772     0.0000
 33 H      0.8705     1.0000     0.1295     0.9918     0.9918     0.0000
 34 H      0.7594     1.0000     0.2406     1.0107     1.0107     0.0000
 35 H      0.8336     1.0000     0.1664     0.9878     0.9878    -0.0000

  Mayer bond orders larger than 0.100000
B(  0-C ,  1-C ) :   0.9696 B(  0-C , 20-H ) :   0.9764 B(  0-C , 21-H ) :   0.9785 
B(  0-C , 22-H ) :   0.9771 B(  1-C ,  2-O ) :   0.9004 B(  1-C , 23-H ) :   0.9708 
B(  1-C , 24-H ) :   0.9840 B(  2-O ,  3-C ) :   1.1173 B(  3-C ,  4-O ) :   2.0163 
B(  3-C ,  5-C ) :   1.0345 B(  5-C ,  6-C ) :   1.6615 B(  5-C , 12-C ) :   0.9661 
B(  6-C ,  7-C ) :   0.9536 B(  6-C ,  8-N ) :   1.1405 B(  7-C , 25-H ) :   0.9689 
B(  7-C , 26-H ) :   0.9893 B(  7-C , 27-H ) :   0.9637 B(  8-N ,  9-C ) :   1.1832 
B(  8-N , 28-H ) :   0.9495 B(  9-C , 10-S ) :   1.6100 B(  9-C , 11-N ) :   1.3016 
B( 11-N , 12-C ) :   0.9917 B( 11-N , 29-H ) :   0.9518 B( 12-C , 13-C ) :   0.9445 
B( 12-C , 30-H ) :   0.9984 B( 13-C , 14-C ) :   1.3763 B( 13-C , 19-C ) :   1.3691 
B( 14-C , 15-C ) :   1.3942 B( 14-C , 31-H ) :   0.9646 B( 15-C , 16-C ) :   1.3632 
B( 15-C , 32-H ) :   0.9711 B( 16-C , 17-C ) :   1.3310 B( 16-C , 33-H ) :   0.9855 
B( 17-C , 18-O ) :   1.1088 B( 17-C , 19-C ) :   1.3761 B( 18-O , 34-H ) :   0.9802 
B( 19-C , 35-H ) :   0.9583 

-------
TIMINGS
-------

Total SCF time: 0 days 1 hours 41 min 22 sec 

Total time                  ....    6082.629 sec
Sum of individual times     ....    6076.075 sec  ( 99.9%)

Fock matrix formation       ....    6046.694 sec  ( 99.4%)
Diagonalization             ....       1.519 sec  (  0.0%)
Density matrix formation    ....       0.260 sec  (  0.0%)
Population analysis         ....       0.303 sec  (  0.0%)
Initial guess               ....       5.524 sec  (  0.1%)
Orbital Transformation      ....       0.000 sec  (  0.0%)
Orbital Orthonormalization  ....       0.000 sec  (  0.0%)
DIIS solution               ....      17.879 sec  (  0.3%)
SOSCF solution              ....       2.542 sec  (  0.0%)

------------------------------------------------------------------------------
                                ORCA  MP2 
------------------------------------------------------------------------------

Freezing NCore=48 chemical core electrons

-------------
RI-MP2 ENERGY
-------------
Dimension of the basis                    ...  828
Memory devoted to MP2                     ...  256 MB   
Data format for buffers                   ... DOUBLE
Compression type for matrix containers    ... UNCOMPRESSED
Overall scaling of the MP2 energy         ...   1.000e+00
Calculating two index integrals           ... done (    0.045 sec)
Cholesky decomposition of V**-1           ... done (    0.384 sec)

-----------------
RI-TRANSFORMATION (AUX index driven)
-----------------

Dimension of the orbital-basis         ... 828
Dimension of the aux-basis             ... 2141
Transformation of internal/external MOs...   24-  76 to   77- 827
Number Format for Storage              ... Double (8 Byte)
Integral mode                          ... Direct

First Phase: integral generation and transformation of MO indices
  Aux angular momentum 0               ... done (    5.599 sec)
  Aux angular momentum 1               ... done (    9.143 sec)
  Aux angular momentum 2               ... done (   12.091 sec)
  Aux angular momentum 3               ... done (    9.379 sec)
  Aux angular momentum 4               ... done (    3.247 sec)
Closing buffer VIA ( 0.63 GB; CompressionRatio= 1.00)
  Phase 1 completed in    39.661 sec
Second Phase: sorting and transformation of aux index

IA-Transformation
Memory available                       ... 167 MB 
Max. # MO pairs treated in a batch     ... 12    
# of internal orbitals                 ... 53
# batches for internal orbitals        ... 5
Closing buffer IAV ( 0.63 GB; CompressionRatio= 1.00)
(ia|v) transformation done in    25.947 sec

  Phase 2 completed in    25.953 sec
RI-Integral transformation completed in    65.622 sec
Opening buffers                              ... done

Starting loop over batches of integrals:

Operator 0  - window                       ... ( 24- 76)x( 77-827)
Operator 0  - Memory available             ...   256 MB
Operator 0  - Memory needed per MO         ...  12.3 MB
Operator 0  - Number of orbitals per batch ... 13
Operator 0  - Number of batches            ... 5

OPERATOR  0   PASS   0:  MOs    24 ...   36
  Reading integrals       ... ok
  Internal MO  26
  Internal MO  29
  Internal MO  32
  Internal MO  35
OPERATOR  0   PASS   1:  MOs    37 ...   49
  Reading integrals       ... ok
  Internal MO  38
  Internal MO  41
  Internal MO  44
  Internal MO  47
OPERATOR  0   PASS   2:  MOs    50 ...   62
  Reading integrals       ... ok
  Internal MO  50
  Internal MO  53
  Internal MO  56
  Internal MO  59
  Internal MO  62
OPERATOR  0   PASS   3:  MOs    63 ...   75
  Reading integrals       ... ok
  Internal MO  65
  Internal MO  68
  Internal MO  71
  Internal MO  74
OPERATOR  0   PASS   4:  MOs    76 ...   76
  Reading integrals       ... ok
Time spent in pair loops =    91.638 sec
Deleting buffer (Ka|jb)[aa] ...done

-----------------------------------------------
 RI-MP2 CORRELATION ENERGY:     -3.531945149 Eh
-----------------------------------------------


-------
TIMINGS
-------

Total time                :  157.813 sec
Integral trafo            :   65.638 sec ( 41.6%)
I/O of integrals          :    2.094 sec (  1.3%)
K(i,j) Operators          :   59.028 sec ( 37.4%)
T(i,j) pair energies      :    9.278 sec (  5.9%)
V-calculation             :    0.045 sec (  0.0%)
V**(-1/2)                 :    0.384 sec (  0.2%)
Gamma(ia|P)               :    0.000 sec (  0.0%)
Gamma-Trafo               :    0.000 sec (  0.0%)
D(virtual)                :    0.000 sec (  0.0%)
D(internal)               :    0.000 sec (  0.0%)
W(virtual)                :    0.000 sec (  0.0%)
W(internal)               :    0.000 sec (  0.0%)
L(virtual)                :    0.000 sec (  0.0%)
L(internal)               :    0.000 sec (  0.0%)
G(D)                      :    0.000 sec (  0.0%)
G(Z)                      :    0.000 sec (  0.0%)
Z-Vector Solution         :    0.000 sec (  0.0%)
3-Index Derivative        :    0.000 sec (  0.0%)
2-Index Derivative        :    0.000 sec (  0.0%)
Separable Gradient        :    0.000 sec (  0.0%)


---------------------------------------
MP2 TOTAL ENERGY:    -1274.335135198 Eh
---------------------------------------

-------------------------   --------------------
FINAL SINGLE POINT ENERGY     -1274.335135198083
-------------------------   --------------------


                            ***************************************
                            *     ORCA property calculations      *
                            ***************************************


  WARNING: The energy has been calculated at the MP2 level but the densities
           used in the property calculations are still SCF densities
           MP2 response densities have not been calculated 
           use %mp2 Density relaxed end
           or  %mp2 Density unrelaxed end

                                    ---------------------
                                    Active property flags
                                    ---------------------
   (+) Dipole Moment


------------------------------------------------------------------------------
                       ORCA ELECTRIC PROPERTIES CALCULATION
------------------------------------------------------------------------------

Dipole Moment Calculation                       ... on
Quadrupole Moment Calculation                   ... off
Polarizability Calculation                      ... off
GBWName                                         ... CONFS/Conf843.orca.gbw
Electron density file                           ... CONFS/Conf843.orca.scfp
The origin for moment calculation is the CENTER OF MASS  = (32.912010, 31.432077 35.352896)

-------------
DIPOLE MOMENT
-------------
                                X             Y             Z
Electronic contribution:     11.80891       8.31067       8.16173
Nuclear contribution   :    -13.18740      -9.64330      -8.94057
                        -----------------------------------------
Total Dipole Moment    :     -1.37849      -1.33264      -0.77884
                        -----------------------------------------
Magnitude (a.u.)       :      2.06948
Magnitude (Debye)      :      5.26020



--------------------
Rotational spectrum 
--------------------
 
Rotational constants in cm-1:     0.010963     0.009223     0.006488 
Rotational constants in MHz :   328.661490   276.505674   194.505568 

 Dipole components along the rotational axes: 
x,y,z [a.u.] :    -1.866274     0.615605     0.648690 
x,y,z [Debye]:    -4.743691     1.564744     1.648840 

 

Timings for individual modules:

Sum of individual times         ...     6242.527 sec (= 104.042 min)
GTO integral calculation        ...        1.690 sec (=   0.028 min)   0.0 %
SCF iterations                  ...     6082.682 sec (= 101.378 min)  97.4 %
MP2 module                      ...      158.155 sec (=   2.636 min)   2.5 %
                             ****ORCA TERMINATED NORMALLY****
TOTAL RUN TIME: 0 days 1 hours 44 minutes 3 seconds 325 msec
