
                                        *****************
                                        * O   R   C   A *
                                        *****************

                                            #,                                       
                                            ###                                      
                                            ####                                     
                                            #####                                    
                                            ######                                   
                                           ########,                                 
                                     ,,################,,,,,                         
                               ,,#################################,,                 
                          ,,##########################################,,             
                       ,#########################################, ''#####,          
                    ,#############################################,,   '####,        
                  ,##################################################,,,,####,       
                ,###########''''           ''''###############################       
              ,#####''   ,,,,##########,,,,          '''####'''          '####       
            ,##' ,,,,###########################,,,                        '##       
           ' ,,###''''                  '''############,,,                           
         ,,##''                                '''############,,,,        ,,,,,,###''
      ,#''                                            '''#######################'''  
     '                                                          ''''####''''         
             ,#######,   #######,   ,#######,      ##                                
            ,#'     '#,  ##    ##  ,#'     '#,    #''#        ######   ,####,        
            ##       ##  ##   ,#'  ##            #'  '#       #        #'  '#        
            ##       ##  #######   ##           ,######,      #####,   #    #        
            '#,     ,#'  ##    ##  '#,     ,#' ,#      #,         ##   #,  ,#        
             '#######'   ##     ##  '#######'  #'      '#     #####' # '####'        



                  #######################################################
                  #                        -***-                        #
                  #          Department of theory and spectroscopy      #
                  #    Directorship and core code : Frank Neese         #
                  #        Max Planck Institute fuer Kohlenforschung    #
                  #                Kaiser Wilhelm Platz 1               #
                  #                 D-45470 Muelheim/Ruhr               #
                  #                      Germany                        #
                  #                                                     #
                  #                  All rights reserved                #
                  #                        -***-                        #
                  #######################################################


                         Program Version 5.0.0 -  RELEASE  -
                                (SVN: $Rev: 19529$)
                ($Date: 2021-06-28 11:36:33 +0200 (Mo, 28 Jun 2021) $)


 With contributions from (in alphabetic order):
   Daniel Aravena         : Magnetic Suceptibility
   Michael Atanasov       : Ab Initio Ligand Field Theory (pilot matlab implementation)
   Alexander A. Auer      : GIAO ZORA, VPT2 properties, NMR spectrum
   Ute Becker             : Parallelization
   Giovanni Bistoni       : ED, misc. LED, open-shell LED, HFLD
   Martin Brehm           : Molecular dynamics
   Dmytro Bykov           : SCF Hessian
   Vijay G. Chilkuri      : MRCI spin determinant printing, contributions to CSF-ICE
   Dipayan Datta          : RHF DLPNO-CCSD density
   Achintya Kumar Dutta   : EOM-CC, STEOM-CC
   Dmitry Ganyushin       : Spin-Orbit,Spin-Spin,Magnetic field MRCI
   Miquel Garcia          : C-PCM Hessian, Gaussian charge scheme
   Yang Guo               : DLPNO-NEVPT2, F12-NEVPT2, CIM, IAO-localization
   Andreas Hansen         : Spin unrestricted coupled pair/coupled cluster methods
   Benjamin Helmich-Paris : MC-RPA, TRAH-SCF, COSX integrals
   Lee Huntington         : MR-EOM, pCC
   Robert Izsak           : Overlap fitted RIJCOSX, COSX-SCS-MP3, EOM
   Marcus Kettner         : VPT2
   Christian Kollmar      : KDIIS, OOCD, Brueckner-CCSD(T), CCSD density, CASPT2, CASPT2-K
   Simone Kossmann        : Meta GGA functionals, TD-DFT gradient, OOMP2, MP2 Hessian
   Martin Krupicka        : Initial AUTO-CI
   Lucas Lang             : DCDCAS
   Marvin Lechner         : AUTO-CI (C++ implementation), FIC-MRCC
   Dagmar Lenk            : GEPOL surface, SMD
   Dimitrios Liakos       : Extrapolation schemes; Compound Job, initial MDCI parallelization
   Dimitrios Manganas     : Further ROCIS development; embedding schemes
   Dimitrios Pantazis     : SARC Basis sets
   Anastasios Papadopoulos: AUTO-CI, single reference methods and gradients
   Taras Petrenko         : DFT Hessian,TD-DFT gradient, ASA, ECA, R-Raman, ABS, FL, XAS/XES, NRVS
   Peter Pinski           : DLPNO-MP2, DLPNO-MP2 Gradient
   Christoph Reimann      : Effective Core Potentials
   Marius Retegan         : Local ZFS, SOC
   Christoph Riplinger    : Optimizer, TS searches, QM/MM, DLPNO-CCSD(T), (RO)-DLPNO pert. Triples
   Tobias Risthaus        : Range-separated hybrids, TD-DFT gradient, RPA, STAB
   Michael Roemelt        : Original ROCIS implementation
   Masaaki Saitow         : Open-shell DLPNO-CCSD energy and density
   Barbara Sandhoefer     : DKH picture change effects
   Avijit Sen             : IP-ROCIS
   Kantharuban Sivalingam : CASSCF convergence, NEVPT2, FIC-MRCI
   Bernardo de Souza      : ESD, SOC TD-DFT
   Georgi Stoychev        : AutoAux, RI-MP2 NMR
   Willem Van den Heuvel  : Paramagnetic NMR
   Boris Wezisla          : Elementary symmetry handling
   Frank Wennmohs         : Technical directorship


 We gratefully acknowledge several colleagues who have allowed us to
 interface, adapt or use parts of their codes:
   Stefan Grimme, W. Hujo, H. Kruse, P. Pracht,  : VdW corrections, initial TS optimization,
                  C. Bannwarth, S. Ehlert          DFT functionals, gCP, sTDA/sTD-DF
   Ed Valeev, F. Pavosevic, A. Kumar             : LibInt (2-el integral package), F12 methods
   Garnet Chan, S. Sharma, J. Yang, R. Olivares  : DMRG
   Ulf Ekstrom                                   : XCFun DFT Library
   Mihaly Kallay                                 : mrcc  (arbitrary order and MRCC methods)
   Jiri Pittner, Ondrej Demel                    : Mk-CCSD
   Frank Weinhold                                : gennbo (NPA and NBO analysis)
   Christopher J. Cramer and Donald G. Truhlar   : smd solvation model
   Lars Goerigk                                  : TD-DFT with DH, B97 family of functionals
   V. Asgeirsson, H. Jonsson                     : NEB implementation
   FAccTs GmbH                                   : IRC, NEB, NEB-TS, DLPNO-Multilevel, CI-OPT
                                                   MM, QMMM, 2- and 3-layer-ONIOM, Crystal-QMMM,
                                                   LR-CPCM, SF, NACMEs, symmetry and pop. for TD-DFT,
                                                   nearIR, NL-DFT gradient (VV10), updates on ESD,
                                                   ML-optimized integration grids
   S Lehtola, MJT Oliveira, MAL Marques          : LibXC Library
   Liviu Ungur et al                             : ANISO software


 Your calculation uses the libint2 library for the computation of 2-el integrals
 For citations please refer to: http://libint.valeyev.net

 Your ORCA version has been built with support for libXC version: 5.1.0
 For citations please refer to: https://tddft.org/programs/libxc/

 This ORCA versions uses:
   CBLAS   interface :  Fast vector & matrix operations
   LAPACKE interface :  Fast linear algebra routines
   SCALAPACK package :  Parallel linear algebra routines
   Shared memory     :  Shared parallel matrices
   BLAS/LAPACK       :  OpenBLAS 0.3.15  USE64BITINT DYNAMIC_ARCH NO_AFFINITY Zen SINGLE_THREADED
        Core in use  :  Zen
   Copyright (c) 2011-2014, The OpenBLAS Project


================================================================================

----- Orbital basis set information -----
Your calculation utilizes the basis: cc-pVTZ 
       H, B-Ne : Obtained from the ccRepo (grant-hill.group.shef.ac.uk/ccrepo) Feb. 2017
                 T. H. Dunning, Jr., J. Chem. Phys. 90, 1007 (1989)
            He : Obtained from the ccRepo (grant-hill.group.shef.ac.uk/ccrepo) Feb. 2017
                 D. E. Woon, T. H. Dunning, Jr., J. Chem. Phys. 100, 2975 (1994)
  Li-Be, Na-Mg : Obtained from the ccRepo (grant-hill.group.shef.ac.uk/ccrepo) Feb. 2017
                 B. P. Prascher, D. E. Woon, K. A. Peterson, T. H. Dunning, Jr., A. K. Wilson, Theor. Chem. Acc. 128, 69 (2011)
         Al-Ar : Obtained from the ccRepo (grant-hill.group.shef.ac.uk/ccrepo) Feb. 2017
                 D. E. Woon, T. H. Dunning, Jr., J. Chem. Phys. 98, 1358 (1993)
            Ca : Obtained from the Peterson Research Group Website (tyr0.chem.wsu.edu/~kipeters) Feb. 2017
                 J. Koput, K. A. Peterson, J. Phys. Chem. 106, 9595 (2002)
         Sc-Zn : Obtained from the ccRepo (grant-hill.group.shef.ac.uk/ccrepo) Feb. 2017
                 N. B. Balabanov, K. A. Peterson, J. Chem. Phys. 123, 064107 (2005)
                 N. B. Balabanov, K. A. Peterson, J. Chem. Phys. 125, 074110 (2006)
         Ga-Kr : Obtained from the ccRepo (grant-hill.group.shef.ac.uk/ccrepo) Feb. 2017
                 A. K. Wilson, D. E. Woon, K. A. Peterson, T. H. Dunning, Jr., J. Chem. Phys. 110, 7667 (1999)
             Y : Obtained from the ccRepo (grant-hill.group.shef.ac.uk/ccrepo) Feb. 2017
                 K. A. Peterson, D. Figgen, M. Dolg, H. Stoll, J. Chem. Phys. 126, 124101 (2007)
        Ag, Au : Obtained from the Peterson Research Group Website (tyr0.chem.wsu.edu/~kipeters) Feb. 2017
                 K. A. Peterson, C. Puzzarini, Theor. Chem. Acc. 114, 283 (2005)

----- AuxC basis set information -----
Your calculation utilizes the auxiliary basis: cc-pVTZ/C 
  Obtained from the EMSL Basis Set Exchange (bse.pnl.gov) Feb. 2017
  H-He, B-F, Al-Ar, Ga-Kr : F. Weigend, A. Kohn, C. Hattig, J. Chem. Phys. 116, 3175 (2002)
             Li-Be, Na-Mg : C. Haettig, Phys. Chem. Chem. Phys. 7, 59 (2005)
                       Ne : C. Haettig, Phys. Chem. Chem. Phys. 7, 59 (2005)
                            F. Weigend, A. Kohn, C. Hattig, J. Chem. Phys. 116, 3175 (2002)
                    Sc-Zn : J. G. Hill, J. A. Platts, J. Chem. Phys. 128, 044104 (2008)

================================================================================
                                        WARNINGS
                       Please study these warnings very carefully!
================================================================================


WARNING: No MP2 level density has been requested!
         To caclulate MP2 level properties use
         %mp2 Density relaxed end
         or
         %mp2 Density unrelaxed end

WARNING: Post HF methods need fully converged wavefunctions
  ===> : Setting SCFConvForced true
         You can overwrite this default with %scf ConvForced false 


INFO   : the flag for use of the SHARK integral package has been found!

================================================================================
                                       INPUT FILE
================================================================================
NAME = CONFS/Conf157.orca
|  1> ! ri-mp2 cc-pvtz cc-pvtz/c TightSCF NoKeepInts
|  2> 
|  3> %scf
|  4>   MaxCore 4096
|  5> end
|  6> *xyz  0  1
|  7>     C       15.3753499   14.5486752   14.2122812
|  8>     C       15.1820992   14.6426484   15.7353289
|  9>     O       16.0117660   15.7198599   16.2100143
| 10>     C       17.0727263   15.4687958   17.0326981
| 11>     O       17.4681816   14.3384706   17.2675753
| 12>     C       17.6464681   16.6800158   17.7142886
| 13>     C       17.3740942   17.9716041   17.3869959
| 14>     C       16.4624640   18.4913349   16.2937855
| 15>     N       18.0271929   19.0101678   18.0597758
| 16>     C       19.0596910   18.8453771   18.9445977
| 17>     S       19.8677251   20.1350895   19.5922125
| 18>     N       19.3878702   17.5529983   19.2648850
| 19>     C       18.6149191   16.3639324   18.8606568
| 20>     C       17.8754656   15.7753482   20.0596279
| 21>     C       18.0459421   14.4224985   20.4073676
| 22>     C       17.3671961   13.8744212   21.5086635
| 23>     C       16.5093870   14.6855581   22.2707570
| 24>     C       16.3337162   16.0325085   21.9259187
| 25>     O       15.5014787   16.8169495   22.6562970
| 26>     C       17.0102846   16.5750442   20.8289088
| 27>     H       15.1211397   15.4998761   13.7285078
| 28>     H       14.7334760   13.7654707   13.7909415
| 29>     H       16.4174257   14.3032301   13.9715487
| 30>     H       14.1304785   14.8688161   15.9534324
| 31>     H       15.4256693   13.6820451   16.2092390
| 32>     H       16.7250572   18.0484515   15.3249237
| 33>     H       16.5188621   19.5801711   16.1754930
| 34>     H       15.4166707   18.2392366   16.5094794
| 35>     H       17.8008154   19.9664596   17.8381669
| 36>     H       20.1313516   17.4578422   19.9446432
| 37>     H       19.3309054   15.6129105   18.4965334
| 38>     H       18.6956009   13.7885175   19.8087847
| 39>     H       17.5032007   12.8248052   21.7627999
| 40>     H       15.9817741   14.2658602   23.1206703
| 41>     H       15.1580777   16.2761789   23.3831819
| 42>     H       16.8624771   17.6208305   20.5830182
| 43> *
| 44> 
| 45>                          ****END OF INPUT****
================================================================================

                       ****************************
                       * Single Point Calculation *
                       ****************************

---------------------------------
CARTESIAN COORDINATES (ANGSTROEM)
---------------------------------
  C     15.375350   14.548675   14.212281
  C     15.182099   14.642648   15.735329
  O     16.011766   15.719860   16.210014
  C     17.072726   15.468796   17.032698
  O     17.468182   14.338471   17.267575
  C     17.646468   16.680016   17.714289
  C     17.374094   17.971604   17.386996
  C     16.462464   18.491335   16.293785
  N     18.027193   19.010168   18.059776
  C     19.059691   18.845377   18.944598
  S     19.867725   20.135089   19.592212
  N     19.387870   17.552998   19.264885
  C     18.614919   16.363932   18.860657
  C     17.875466   15.775348   20.059628
  C     18.045942   14.422498   20.407368
  C     17.367196   13.874421   21.508664
  C     16.509387   14.685558   22.270757
  C     16.333716   16.032508   21.925919
  O     15.501479   16.816949   22.656297
  C     17.010285   16.575044   20.828909
  H     15.121140   15.499876   13.728508
  H     14.733476   13.765471   13.790941
  H     16.417426   14.303230   13.971549
  H     14.130478   14.868816   15.953432
  H     15.425669   13.682045   16.209239
  H     16.725057   18.048451   15.324924
  H     16.518862   19.580171   16.175493
  H     15.416671   18.239237   16.509479
  H     17.800815   19.966460   17.838167
  H     20.131352   17.457842   19.944643
  H     19.330905   15.612910   18.496533
  H     18.695601   13.788517   19.808785
  H     17.503201   12.824805   21.762800
  H     15.981774   14.265860   23.120670
  H     15.158078   16.276179   23.383182
  H     16.862477   17.620830   20.583018

----------------------------
CARTESIAN COORDINATES (A.U.)
----------------------------
  NO LB      ZA    FRAG     MASS         X           Y           Z
   0 C     6.0000    0    12.011   29.055201   27.493012   26.857319
   1 C     6.0000    0    12.011   28.690010   27.670595   29.735462
   2 O     8.0000    0    15.999   30.257853   29.706230   30.632488
   3 C     6.0000    0    12.011   32.262777   29.231788   32.187135
   4 O     8.0000    0    15.999   33.010079   27.095783   32.630988
   5 C     6.0000    0    12.011   33.346992   31.520662   33.475154
   6 C     6.0000    0    12.011   32.832280   33.961410   32.856661
   7 C     6.0000    0    12.011   31.109548   34.943559   30.790792
   8 N     7.0000    0    14.007   34.066458   35.924011   34.128030
   9 C     6.0000    0    12.011   36.017596   35.612602   35.800101
  10 S    16.0000    0    32.060   37.544559   38.049805   37.023916
  11 N     7.0000    0    14.007   36.637765   33.170360   36.405357
  12 C     6.0000    0    12.011   35.177099   30.923351   35.641476
  13 C     6.0000    0    12.011   33.779735   29.811088   37.907203
  14 C     6.0000    0    12.011   34.101888   27.254572   38.564336
  15 C     6.0000    0    12.011   32.819244   26.218856   40.645484
  16 C     6.0000    0    12.011   31.198220   27.751683   42.085632
  17 C     6.0000    0    12.011   30.866250   30.297050   41.433982
  18 O     8.0000    0    15.999   29.293549   31.779429   42.814197
  19 C     6.0000    0    12.011   32.144779   31.322294   39.360933
  20 H     1.0000    0     1.008   28.574813   29.290521   25.943120
  21 H     1.0000    0     1.008   27.842235   26.012970   26.061103
  22 H     1.0000    0     1.008   31.024438   27.029188   26.402401
  23 H     1.0000    0     1.008   26.702735   28.097990   30.147618
  24 H     1.0000    0     1.008   29.150290   25.855318   30.631023
  25 H     1.0000    0     1.008   31.605778   34.106630   28.959909
  26 H     1.0000    0     1.008   31.216125   37.001161   30.567252
  27 H     1.0000    0     1.008   29.133286   34.467162   31.198395
  28 H     1.0000    0     1.008   33.638666   37.731141   33.709250
  29 H     1.0000    0     1.008   38.042741   32.990541   37.689913
  30 H     1.0000    0     1.008   36.530117   29.504125   34.953383
  31 H     1.0000    0     1.008   35.329566   26.056522   37.433178
  32 H     1.0000    0     1.008   33.076256   24.235370   41.125732
  33 H     1.0000    0     1.008   30.201176   26.958569   43.691735
  34 H     1.0000    0     1.008   28.644616   30.757521   44.187810
  35 H     1.0000    0     1.008   31.865464   33.298544   38.896267

--------------------------------
INTERNAL COORDINATES (ANGSTROEM)
--------------------------------
 C      0   0   0     0.000000000000     0.00000000     0.00000000
 C      1   0   0     1.538132338859     0.00000000     0.00000000
 O      2   1   0     1.440158964742   107.43909331     0.00000000
 C      3   2   1     1.365825235990   120.56694788   245.91775301
 O      4   3   2     1.220322601255   122.54212992     9.33024736
 C      4   3   2     1.503595408066   114.92144951   194.05464823
 C      6   4   3     1.359966319278   125.41749498   346.72214718
 C      7   6   4     1.515354316551   128.30434132   359.83444638
 N      7   6   4     1.399208799552   119.71791960   183.14569152
 C      9   7   6     1.369714603861   124.97077493     7.94875219
 S     10   9   7     1.653989755306   121.82885939   174.31618752
 N     10   9   7     1.371323632314   116.40155236   354.32159719
 C     12  10   9     1.474697106259   124.78072553   352.16985713
 C     13  12  10     1.526680889311   110.45422083   252.49257212
 C     14  13  12     1.407191332690   120.40024049   234.68998104
 C     15  14  13     1.404968867501   120.67796988   180.07095278
 C     16  15  14     1.405192522513   119.65988448     0.00000000
 C     17  16  15     1.401445347910   119.85912992     0.17990807
 O     18  17  16     1.356989093544   120.00234857   179.70897970
 C     18  17  16     1.398399265715   120.34888018   359.84256532
 H      1   2   3     1.097015351074   110.76748830   302.24712376
 H      1   2   3     1.096785546548   110.51732568   182.20426038
 H      1   2   3     1.097322836095   110.50016261    62.51429502
 H      2   1   3     1.097555038212   109.25299836   118.60182198
 H      2   1   3     1.098487995595   110.23700149   236.97786353
 H      8   7   6     1.097175501996   110.77041975   306.70916302
 H      8   7   6     1.096694183294   112.79257970   186.74057204
 H      8   7   6     1.097160443000   110.65845286    66.45602489
 H      9   7   6     1.007398274672   119.59944491   182.10660612
 H     12  10   9     1.011874738286   114.92086124   182.06043699
 H     13  12  10     1.099661823696   107.46799784   134.68002765
 H     15  14  13     1.087331574521   119.79438321   358.99481161
 H     16  15  14     1.088474303088   119.92221267   179.60768286
 H     17  16  15     1.084838382907   119.89887286   179.87289295
 H     19  18  17     0.968874990117   107.36916693     2.23369176
 H     20  18  17     1.084425299176   119.08318126   180.25948394

---------------------------
INTERNAL COORDINATES (A.U.)
---------------------------
 C      0   0   0     0.000000000000     0.00000000     0.00000000
 C      1   0   0     2.906648878171     0.00000000     0.00000000
 O      2   1   0     2.721506032675   107.43909331     0.00000000
 C      3   2   1     2.581035642820   120.56694788   245.91775301
 O      4   3   2     2.306075511406   122.54212992     9.33024736
 C      4   3   2     2.841383537467   114.92144951   194.05464823
 C      6   4   3     2.569963894793   125.41749498   346.72214718
 C      7   6   4     2.863604654136   128.30434132   359.83444638
 N      7   6   4     2.644121435326   119.71791960   183.14569152
 C      9   7   6     2.588385482929   124.97077493     7.94875219
 S     10   9   7     3.125587665839   121.82885939   174.31618752
 N     10   9   7     2.591426106048   116.40155236   354.32159719
 C     12  10   9     2.786773661316   124.78072553   352.16985713
 C     13  12  10     2.885008774689   110.45422083   252.49257212
 C     14  13  12     2.659206236812   120.40024049   234.68998104
 C     15  14  13     2.655006386263   120.67796988   180.07095278
 C     16  15  14     2.655429032984   119.65988448     0.00000000
 C     17  16  15     2.648347899209   119.85912992     0.17990807
 O     18  17  16     2.564337753517   120.00234857   179.70897970
 C     18  17  16     2.642591638077   120.34888018   359.84256532
 H      1   2   3     2.073058578238   110.76748830   302.24712376
 H      1   2   3     2.072624310620   110.51732568   182.20426038
 H      1   2   3     2.073639640718   110.50016261    62.51429502
 H      2   1   3     2.074078439126   109.25299836   118.60182198
 H      2   1   3     2.075841473075   110.23700149   236.97786353
 H      8   7   6     2.073361219621   110.77041975   306.70916302
 H      8   7   6     2.072451659090   112.79257970   186.74057204
 H      8   7   6     2.073332762243   110.65845286    66.45602489
 H      9   7   6     1.903706846915   119.59944491   182.10660612
 H     12  10   9     1.912166137193   114.92086124   182.06043699
 H     13  12  10     2.078059686714   107.46799784   134.68002765
 H     15  14  13     2.054758892611   119.79438321   358.99481161
 H     16  15  14     2.056918336646   119.92221267   179.60768286
 H     17  16  15     2.050047443260   119.89887286   179.87289295
 H     19  18  17     1.830908389326   107.36916693     2.23369176
 H     20  18  17     2.049266828138   119.08318126   180.25948394

---------------------
BASIS SET INFORMATION
---------------------
There are 5 groups of distinct atoms

 Group   1 Type C   : 18s5p2d1f contracted to 4s3p2d1f pattern {8811/311/11/1}
 Group   2 Type O   : 18s5p2d1f contracted to 4s3p2d1f pattern {8811/311/11/1}
 Group   3 Type N   : 18s5p2d1f contracted to 4s3p2d1f pattern {8811/311/11/1}
 Group   4 Type S   : 41s16p2d1f contracted to 5s4p2d1f pattern {13131311/7711/11/1}
 Group   5 Type H   : 5s2p1d contracted to 3s2p1d pattern {311/11/1}

Atom   0C    basis set group =>   1
Atom   1C    basis set group =>   1
Atom   2O    basis set group =>   2
Atom   3C    basis set group =>   1
Atom   4O    basis set group =>   2
Atom   5C    basis set group =>   1
Atom   6C    basis set group =>   1
Atom   7C    basis set group =>   1
Atom   8N    basis set group =>   3
Atom   9C    basis set group =>   1
Atom  10S    basis set group =>   4
Atom  11N    basis set group =>   3
Atom  12C    basis set group =>   1
Atom  13C    basis set group =>   1
Atom  14C    basis set group =>   1
Atom  15C    basis set group =>   1
Atom  16C    basis set group =>   1
Atom  17C    basis set group =>   1
Atom  18O    basis set group =>   2
Atom  19C    basis set group =>   1
Atom  20H    basis set group =>   5
Atom  21H    basis set group =>   5
Atom  22H    basis set group =>   5
Atom  23H    basis set group =>   5
Atom  24H    basis set group =>   5
Atom  25H    basis set group =>   5
Atom  26H    basis set group =>   5
Atom  27H    basis set group =>   5
Atom  28H    basis set group =>   5
Atom  29H    basis set group =>   5
Atom  30H    basis set group =>   5
Atom  31H    basis set group =>   5
Atom  32H    basis set group =>   5
Atom  33H    basis set group =>   5
Atom  34H    basis set group =>   5
Atom  35H    basis set group =>   5
---------------------------------
AUXILIARY/C BASIS SET INFORMATION
---------------------------------
There are 5 groups of distinct atoms

 Group   1 Type C   : 8s6p5d3f1g contracted to 8s6p5d3f1g pattern {11111111/111111/11111/111/1}
 Group   2 Type O   : 8s6p5d3f1g contracted to 8s6p5d3f1g pattern {11111111/111111/11111/111/1}
 Group   3 Type N   : 8s6p5d3f1g contracted to 8s6p5d3f1g pattern {11111111/111111/11111/111/1}
 Group   4 Type S   : 10s8p7d5f2g contracted to 10s8p7d5f2g pattern {1111111111/11111111/1111111/11111/11}
 Group   5 Type H   : 4s3p2d1f contracted to 4s3p2d1f pattern {1111/111/11/1}

Atom   0C    basis set group =>   1
Atom   1C    basis set group =>   1
Atom   2O    basis set group =>   2
Atom   3C    basis set group =>   1
Atom   4O    basis set group =>   2
Atom   5C    basis set group =>   1
Atom   6C    basis set group =>   1
Atom   7C    basis set group =>   1
Atom   8N    basis set group =>   3
Atom   9C    basis set group =>   1
Atom  10S    basis set group =>   4
Atom  11N    basis set group =>   3
Atom  12C    basis set group =>   1
Atom  13C    basis set group =>   1
Atom  14C    basis set group =>   1
Atom  15C    basis set group =>   1
Atom  16C    basis set group =>   1
Atom  17C    basis set group =>   1
Atom  18O    basis set group =>   2
Atom  19C    basis set group =>   1
Atom  20H    basis set group =>   5
Atom  21H    basis set group =>   5
Atom  22H    basis set group =>   5
Atom  23H    basis set group =>   5
Atom  24H    basis set group =>   5
Atom  25H    basis set group =>   5
Atom  26H    basis set group =>   5
Atom  27H    basis set group =>   5
Atom  28H    basis set group =>   5
Atom  29H    basis set group =>   5
Atom  30H    basis set group =>   5
Atom  31H    basis set group =>   5
Atom  32H    basis set group =>   5
Atom  33H    basis set group =>   5
Atom  34H    basis set group =>   5
Atom  35H    basis set group =>   5
------------------------------------------------------------------------------
                           ORCA GTO INTEGRAL CALCULATION
------------------------------------------------------------------------------
------------------------------------------------------------------------------
                   ___                                                        
                  /   \      - P O W E R E D   B Y -                         
                 /     \                                                     
                 |  |  |   _    _      __       _____    __    __             
                 |  |  |  | |  | |    /  \     |  _  \  |  |  /  |          
                  \  \/   | |  | |   /    \    | | | |  |  | /  /          
                 / \  \   | |__| |  /  /\  \   | |_| |  |  |/  /          
                |  |  |   |  __  | /  /__\  \  |    /   |      \           
                |  |  |   | |  | | |   __   |  |    \   |  |\   \          
                \     /   | |  | | |  |  |  |  | |\  \  |  | \   \       
                 \___/    |_|  |_| |__|  |__|  |_| \__\ |__|  \__/        
                                                                              
                      - O R C A' S   B I G   F R I E N D -                    
                                      &                                       
                       - I N T E G R A L  F E E D E R -                       
                                                                              
 v1 FN, 2020, v2 2021                                                         
------------------------------------------------------------------------------


Reading SHARK input file CONFS/Conf157.orca.SHARKINP.tmp ... ok
----------------------
SHARK INTEGRAL PACKAGE
----------------------

Number of atoms                             ...     36
Number of basis functions                   ...    828
Number of shells                            ...    298
Maximum angular momentum                    ...      3
Integral batch strategy                     ... SHARK/LIBINT Hybrid
RI-J (if used) integral strategy            ... SPLIT-RIJ (Revised 2003 algorithm where possible)
Printlevel                                  ...      1
Contraction scheme used                     ... SEGMENTED contraction
Coulomb Range Separation                    ... NOT USED
Exchange Range Separation                   ... NOT USED
Finite Nucleus Model                        ... NOT USED
Auxiliary Coulomb fitting basis             ... NOT available
Auxiliary J/K fitting basis                 ... NOT available
Auxiliary Correlation fitting basis         ... AVAILABLE
   # of basis functions in Aux-C            ...   2141
   # of shells in Aux-C                     ...    629
   Maximum angular momentum in Aux-C        ...      4
Auxiliary 'external' fitting basis          ... NOT available
Integral threshold                          ...     2.500000e-11
Primitive cut-off                           ...     2.500000e-12
Primitive pair pre-selection threshold      ...     2.500000e-12

Calculating pre-screening integrals         ... done (  0.5 sec) Dimension = 298
Organizing shell pair data                  ... done (  0.8 sec)
Shell pair information
Total number of shell pairs                 ...     44551
Shell pairs after pre-screening             ...     31920
Total number of primitive shell pairs       ...    234348
Primitive shell pairs kept                  ...     92503
          la=0 lb=0:   6395 shell pairs
          la=1 lb=0:   8899 shell pairs
          la=1 lb=1:   3137 shell pairs
          la=2 lb=0:   5078 shell pairs
          la=2 lb=1:   3484 shell pairs
          la=2 lb=2:    980 shell pairs
          la=3 lb=0:   1848 shell pairs
          la=3 lb=1:   1263 shell pairs
          la=3 lb=2:    695 shell pairs
          la=3 lb=3:    141 shell pairs

Calculating one electron integrals          ... done (  0.3 sec)
Calculating RI/C V-Matrix + Cholesky decomp.... done (  0.9 sec)
Calculating Nuclear repulsion               ... done (  0.0 sec) ENN=   1680.881530571013 Eh

SHARK setup successfully completed in   3.3 seconds

Maximum memory used throughout the entire GTOINT-calculation: 474.9 MB
-------------------------------------------------------------------------------
                                 ORCA SCF
-------------------------------------------------------------------------------

------------
SCF SETTINGS
------------
Hamiltonian:
 Ab initio Hamiltonian  Method          .... Hartree-Fock(GTOs)


General Settings:
 Integral files         IntName         .... CONFS/Conf157.orca
 Hartree-Fock type      HFTyp           .... RHF
 Total Charge           Charge          ....    0
 Multiplicity           Mult            ....    1
 Number of Electrons    NEL             ....  154
 Basis Dimension        Dim             ....  828
 Nuclear Repulsion      ENuc            ....   1680.8815305710 Eh

Convergence Acceleration:
 DIIS                   CNVDIIS         .... on
   Start iteration      DIISMaxIt       ....    12
   Startup error        DIISStart       ....  0.200000
   # of expansion vecs  DIISMaxEq       ....     5
   Bias factor          DIISBfac        ....   1.050
   Max. coefficient     DIISMaxC        ....  10.000
 Trust-Rad. Augm. Hess. CNVTRAH         .... auto
   Auto Start mean grad. ratio tolernc. ....  1.125000
   Auto Start start iteration           ....    20
   Auto Start num. interpolation iter.  ....    10
   Max. Number of Micro iterations      ....    16
   Max. Number of Macro iterations      .... Maxiter - #DIIS iter
   Number of Davidson start vectors     ....     2
   Converg. threshold I  (grad. norm)   ....   1.000e-05
   Converg. threshold II (energy diff.) ....   1.000e-08
   Grad. Scal. Fac. for Micro threshold ....   0.100
   Minimum threshold for Micro iter.    ....   0.010
   NR start threshold (gradient norm)   ....   0.001
   Initial trust radius                 ....   0.400
   Minimum AH scaling param. (alpha)    ....   1.000
   Maximum AH scaling param. (alpha)    .... 1000.000
   Orbital update algorithm             .... Taylor
   White noise on init. David. guess    .... on
   Maximum white noise                  ....   0.010
   Quad. conv. algorithm                .... NR
 SOSCF                  CNVSOSCF        .... on
   Start iteration      SOSCFMaxIt      ....   150
   Startup grad/error   SOSCFStart      ....  0.003300
 Level Shifting         CNVShift        .... on
   Level shift para.    LevelShift      ....    0.2500
   Turn off err/grad.   ShiftErr        ....    0.0010
 Zerner damping         CNVZerner       .... off
 Static damping         CNVDamp         .... on
   Fraction old density DampFac         ....    0.7000
   Max. Damping (<1)    DampMax         ....    0.9800
   Min. Damping (>=0)   DampMin         ....    0.0000
   Turn off err/grad.   DampErr         ....    0.1000
 Fernandez-Rico         CNVRico         .... off

SCF Procedure:
 Maximum # iterations   MaxIter         ....   125
 SCF integral mode      SCFMode         .... Direct
   Integral package                     .... SHARK and LIBINT hybrid scheme
 Reset frequency        DirectResetFreq ....    20
 Integral Threshold     Thresh          ....  2.500e-11 Eh
 Primitive CutOff       TCut            ....  2.500e-12 Eh

Convergence Tolerance:
 Convergence Check Mode ConvCheckMode   .... Total+1el-Energy
 Convergence forced     ConvForced      .... 1
 Energy Change          TolE            ....  1.000e-08 Eh
 1-El. energy change                    ....  1.000e-05 Eh
 Orbital Gradient       TolG            ....  1.000e-05
 Orbital Rotation angle TolX            ....  1.000e-05
 DIIS Error             TolErr          ....  5.000e-07


Diagonalization of the overlap matrix:
Smallest eigenvalue                        ... 3.494e-05
Time for diagonalization                   ...    0.108 sec
Threshold for overlap eigenvalues          ... 1.000e-08
Number of eigenvalues below threshold      ... 0
Time for construction of square roots      ...    0.089 sec
Total time needed                          ...    0.197 sec

Time for model grid setup =    1.749 sec

------------------------------
INITIAL GUESS: MODEL POTENTIAL
------------------------------
Loading Hartree-Fock densities                     ... done
Calculating cut-offs                               ... done
Initializing the effective Hamiltonian             ... done
Setting up the integral package (SHARK)            ... done
Starting the Coulomb interaction                   ... done (   3.7 sec)
Reading the grid                                   ... done
Mapping shells                                     ... done
Starting the XC term evaluation                    ... done (   1.2 sec)
Transforming the Hamiltonian                       ... done (   0.1 sec)
Diagonalizing the Hamiltonian                      ... done (   0.1 sec)
Back transforming the eigenvectors                 ... done (   0.0 sec)
Now organizing SCF variables                       ... done
                      ------------------
                      INITIAL GUESS DONE (   7.2 sec)
                      ------------------
--------------
SCF ITERATIONS
--------------
ITER       Energy         Delta-E        Max-DP      RMS-DP      [F,P]     Damp
               ***  Starting incremental Fock matrix formation  ***
  0  -1270.0184609031   0.000000000000 0.04932567  0.00043390  0.3103176 0.7000
  1  -1270.2870282810  -0.268567377838 0.03608649  0.00034915  0.1810483 0.7000
                               ***Turning on DIIS***
  2  -1270.4544557849  -0.167427503951 0.02584085  0.00023479  0.1097600 0.7000
  3  -1272.6004206198  -2.145964834893 0.06314138  0.00051002  0.0829673 0.0000
  4  -1270.7628748964   1.837545723432 0.00734671  0.00009437  0.0078507 0.0000
  5  -1270.8267451851  -0.063870288730 0.00348028  0.00005098  0.0036768 0.0000
                      *** Initiating the SOSCF procedure ***
                           *** Shutting down DIIS ***
                      *** Re-Reading the Fockian *** 
                      *** Removing any level shift *** 
ITER      Energy       Delta-E        Grad      Rot      Max-DP    RMS-DP
  6  -1270.80387578   0.0228694069  0.001498  0.001498  0.001714  0.000026
               *** Restarting incremental Fock matrix formation ***
  7  -1270.81806077  -0.0141849935  0.000762  0.001951  0.001265  0.000015
  8  -1270.81810585  -0.0000450811  0.000351  0.002256  0.001377  0.000016
  9  -1270.81812257  -0.0000167218  0.000122  0.000286  0.000350  0.000004
 10  -1270.81812460  -0.0000020205  0.000043  0.000116  0.000109  0.000001
 11  -1270.81812479  -0.0000001956  0.000022  0.000113  0.000060  0.000001
 12  -1270.81812485  -0.0000000545  0.000008  0.000031  0.000027  0.000000
 13  -1270.81812485  -0.0000000005  0.000003  0.000009  0.000005  0.000000
                  ***Gradient check signals convergence***
              ***Rediagonalizing the Fockian in SOSCF/NRSCF***

               *****************************************************
               *                     SUCCESS                       *
               *           SCF CONVERGED AFTER  14 CYCLES          *
               *****************************************************


----------------
TOTAL SCF ENERGY
----------------

Total Energy       :        -1270.81812484 Eh          -34580.71923 eV

Components:
Nuclear Repulsion  :         1680.88153057 Eh           45739.11178 eV
Electronic Energy  :        -2951.69965541 Eh          -80319.83100 eV
One Electron Energy:        -5083.23918232 Eh         -138321.97030 eV
Two Electron Energy:         2131.53952692 Eh           58002.13930 eV

Virial components:
Potential Energy   :        -2539.74867647 Eh          -69110.07498 eV
Kinetic Energy     :         1268.93055163 Eh           34529.35575 eV
Virial Ratio       :            2.00148753


---------------
SCF CONVERGENCE
---------------

  Last Energy change         ...    8.6388e-09  Tolerance :   1.0000e-08
  Last MAX-Density change    ...    1.8411e-06  Tolerance :   1.0000e-07
  Last RMS-Density change    ...    2.9229e-08  Tolerance :   5.0000e-09
  Last Orbital Gradient      ...    1.1928e-06  Tolerance :   1.0000e-05
  Last Orbital Rotation      ...    3.1940e-06  Tolerance :   1.0000e-05

             **** THE GBW FILE WAS UPDATED (CONFS/Conf157.orca.gbw) ****
             **** DENSITY CONFS/Conf157.orca.scfp WAS UPDATED ****
             **** ENERGY FILE WAS UPDATED (CONFS/Conf157.orca.en.tmp) ****
             **** THE GBW FILE WAS UPDATED (CONFS/Conf157.orca.gbw) ****
             **** DENSITY CONFS/Conf157.orca.scfp WAS UPDATED ****
----------------
ORBITAL ENERGIES
----------------

  NO   OCC          E(Eh)            E(eV) 
   0   2.0000     -91.888001     -2500.3996 
   1   2.0000     -20.604396      -560.6741 
   2   2.0000     -20.590813      -560.3045 
   3   2.0000     -20.544850      -559.0538 
   4   2.0000     -15.628528      -425.2739 
   5   2.0000     -15.606454      -424.6732 
   6   2.0000     -11.396819      -310.1232 
   7   2.0000     -11.382759      -309.7406 
   8   2.0000     -11.337038      -308.4965 
   9   2.0000     -11.306579      -307.6677 
  10   2.0000     -11.304956      -307.6235 
  11   2.0000     -11.299127      -307.4649 
  12   2.0000     -11.260809      -306.4222 
  13   2.0000     -11.258977      -306.3723 
  14   2.0000     -11.252572      -306.1980 
  15   2.0000     -11.246697      -306.0382 
  16   2.0000     -11.236367      -305.7571 
  17   2.0000     -11.232546      -305.6531 
  18   2.0000     -11.231414      -305.6223 
  19   2.0000     -11.229445      -305.5687 
  20   2.0000      -8.893062      -241.9925 
  21   2.0000      -6.574639      -178.9050 
  22   2.0000      -6.572633      -178.8504 
  23   2.0000      -6.572046      -178.8345 
  24   2.0000      -1.453814       -39.5603 
  25   2.0000      -1.410544       -38.3828 
  26   2.0000      -1.357458       -36.9383 
  27   2.0000      -1.339396       -36.4468 
  28   2.0000      -1.236855       -33.6565 
  29   2.0000      -1.151328       -31.3292 
  30   2.0000      -1.119155       -30.4538 
  31   2.0000      -1.043679       -28.4000 
  32   2.0000      -1.036192       -28.1962 
  33   2.0000      -1.008673       -27.4474 
  34   2.0000      -0.997271       -27.1371 
  35   2.0000      -0.982809       -26.7436 
  36   2.0000      -0.920762       -25.0552 
  37   2.0000      -0.891219       -24.2513 
  38   2.0000      -0.847328       -23.0570 
  39   2.0000      -0.834570       -22.7098 
  40   2.0000      -0.826950       -22.5025 
  41   2.0000      -0.817232       -22.2380 
  42   2.0000      -0.760469       -20.6934 
  43   2.0000      -0.735872       -20.0241 
  44   2.0000      -0.724276       -19.7085 
  45   2.0000      -0.689786       -18.7700 
  46   2.0000      -0.684530       -18.6270 
  47   2.0000      -0.679817       -18.4988 
  48   2.0000      -0.672768       -18.3069 
  49   2.0000      -0.654041       -17.7974 
  50   2.0000      -0.649300       -17.6683 
  51   2.0000      -0.642094       -17.4723 
  52   2.0000      -0.630501       -17.1568 
  53   2.0000      -0.611967       -16.6525 
  54   2.0000      -0.599993       -16.3266 
  55   2.0000      -0.598826       -16.2949 
  56   2.0000      -0.594122       -16.1669 
  57   2.0000      -0.583216       -15.8701 
  58   2.0000      -0.572333       -15.5740 
  59   2.0000      -0.563824       -15.3424 
  60   2.0000      -0.561343       -15.2749 
  61   2.0000      -0.544891       -14.8272 
  62   2.0000      -0.538417       -14.6511 
  63   2.0000      -0.531364       -14.4591 
  64   2.0000      -0.516413       -14.0523 
  65   2.0000      -0.509226       -13.8567 
  66   2.0000      -0.500073       -13.6077 
  67   2.0000      -0.494875       -13.4662 
  68   2.0000      -0.480538       -13.0761 
  69   2.0000      -0.463152       -12.6030 
  70   2.0000      -0.458118       -12.4660 
  71   2.0000      -0.454189       -12.3591 
  72   2.0000      -0.354292        -9.6408 
  73   2.0000      -0.343252        -9.3404 
  74   2.0000      -0.327082        -8.9004 
  75   2.0000      -0.315394        -8.5823 
  76   2.0000      -0.312930        -8.5153 
  77   0.0000       0.076008         2.0683 
  78   0.0000       0.114283         3.1098 
  79   0.0000       0.121192         3.2978 
  80   0.0000       0.136323         3.7095 
  81   0.0000       0.139864         3.8059 
  82   0.0000       0.147542         4.0148 
  83   0.0000       0.153867         4.1869 
  84   0.0000       0.163314         4.4440 
  85   0.0000       0.164528         4.4770 
  86   0.0000       0.169675         4.6171 
  87   0.0000       0.173493         4.7210 
  88   0.0000       0.192457         5.2370 
  89   0.0000       0.193341         5.2611 
  90   0.0000       0.207019         5.6333 
  91   0.0000       0.211679         5.7601 
  92   0.0000       0.214085         5.8255 
  93   0.0000       0.216632         5.8949 
  94   0.0000       0.225477         6.1356 
  95   0.0000       0.231020         6.2864 
  96   0.0000       0.241918         6.5829 
  97   0.0000       0.247410         6.7324 
  98   0.0000       0.255469         6.9517 
  99   0.0000       0.270133         7.3507 
 100   0.0000       0.297591         8.0979 
 101   0.0000       0.307838         8.3767 
 102   0.0000       0.312101         8.4927 
 103   0.0000       0.321870         8.7585 
 104   0.0000       0.327203         8.9036 
 105   0.0000       0.332173         9.0389 
 106   0.0000       0.340747         9.2722 
 107   0.0000       0.350130         9.5275 
 108   0.0000       0.355101         9.6628 
 109   0.0000       0.368398        10.0246 
 110   0.0000       0.376286        10.2393 
 111   0.0000       0.378511        10.2998 
 112   0.0000       0.386194        10.5089 
 113   0.0000       0.391303        10.6479 
 114   0.0000       0.396246        10.7824 
 115   0.0000       0.401405        10.9228 
 116   0.0000       0.418862        11.3978 
 117   0.0000       0.422478        11.4962 
 118   0.0000       0.431781        11.7494 
 119   0.0000       0.435792        11.8585 
 120   0.0000       0.440229        11.9792 
 121   0.0000       0.448000        12.1907 
 122   0.0000       0.452655        12.3174 
 123   0.0000       0.457033        12.4365 
 124   0.0000       0.462612        12.5883 
 125   0.0000       0.466881        12.7045 
 126   0.0000       0.474821        12.9205 
 127   0.0000       0.485176        13.2023 
 128   0.0000       0.494537        13.4570 
 129   0.0000       0.498320        13.5600 
 130   0.0000       0.500707        13.6249 
 131   0.0000       0.503370        13.6974 
 132   0.0000       0.514491        14.0000 
 133   0.0000       0.520349        14.1594 
 134   0.0000       0.525500        14.2996 
 135   0.0000       0.531149        14.4533 
 136   0.0000       0.533451        14.5159 
 137   0.0000       0.542191        14.7538 
 138   0.0000       0.544693        14.8218 
 139   0.0000       0.546858        14.8808 
 140   0.0000       0.554203        15.0806 
 141   0.0000       0.561133        15.2692 
 142   0.0000       0.570093        15.5130 
 143   0.0000       0.576778        15.6949 
 144   0.0000       0.580303        15.7909 
 145   0.0000       0.581589        15.8258 
 146   0.0000       0.587091        15.9755 
 147   0.0000       0.588077        16.0024 
 148   0.0000       0.596308        16.2264 
 149   0.0000       0.601825        16.3765 
 150   0.0000       0.606058        16.4917 
 151   0.0000       0.610146        16.6029 
 152   0.0000       0.612572        16.6689 
 153   0.0000       0.617200        16.7949 
 154   0.0000       0.619517        16.8579 
 155   0.0000       0.625491        17.0205 
 156   0.0000       0.628215        17.0946 
 157   0.0000       0.632687        17.2163 
 158   0.0000       0.636487        17.3197 
 159   0.0000       0.638978        17.3875 
 160   0.0000       0.644245        17.5308 
 161   0.0000       0.648089        17.6354 
 162   0.0000       0.652113        17.7449 
 163   0.0000       0.659400        17.9432 
 164   0.0000       0.664282        18.0760 
 165   0.0000       0.671289        18.2667 
 166   0.0000       0.678719        18.4689 
 167   0.0000       0.679978        18.5031 
 168   0.0000       0.684674        18.6309 
 169   0.0000       0.685492        18.6532 
 170   0.0000       0.694139        18.8885 
 171   0.0000       0.702945        19.1281 
 172   0.0000       0.714872        19.4527 
 173   0.0000       0.717215        19.5164 
 174   0.0000       0.723365        19.6838 
 175   0.0000       0.727102        19.7854 
 176   0.0000       0.734063        19.9749 
 177   0.0000       0.744769        20.2662 
 178   0.0000       0.746549        20.3146 
 179   0.0000       0.750079        20.4107 
 180   0.0000       0.757620        20.6159 
 181   0.0000       0.762648        20.7527 
 182   0.0000       0.765938        20.8422 
 183   0.0000       0.787329        21.4243 
 184   0.0000       0.798495        21.7282 
 185   0.0000       0.805681        21.9237 
 186   0.0000       0.813065        22.1246 
 187   0.0000       0.825770        22.4703 
 188   0.0000       0.826973        22.5031 
 189   0.0000       0.831160        22.6170 
 190   0.0000       0.839576        22.8460 
 191   0.0000       0.849769        23.1234 
 192   0.0000       0.853637        23.2286 
 193   0.0000       0.865048        23.5392 
 194   0.0000       0.869050        23.6481 
 195   0.0000       0.883394        24.0384 
 196   0.0000       0.891872        24.2691 
 197   0.0000       0.895546        24.3690 
 198   0.0000       0.901365        24.5274 
 199   0.0000       0.904561        24.6144 
 200   0.0000       0.911940        24.8151 
 201   0.0000       0.920698        25.0535 
 202   0.0000       0.925528        25.1849 
 203   0.0000       0.929228        25.2856 
 204   0.0000       0.942513        25.6471 
 205   0.0000       0.946659        25.7599 
 206   0.0000       0.957825        26.0638 
 207   0.0000       0.965248        26.2657 
 208   0.0000       0.975364        26.5410 
 209   0.0000       0.977834        26.6082 
 210   0.0000       0.983608        26.7653 
 211   0.0000       0.993388        27.0315 
 212   0.0000       1.000100        27.2141 
 213   0.0000       1.001685        27.2572 
 214   0.0000       1.007198        27.4073 
 215   0.0000       1.008686        27.4477 
 216   0.0000       1.018876        27.7250 
 217   0.0000       1.033188        28.1145 
 218   0.0000       1.037537        28.2328 
 219   0.0000       1.045565        28.4513 
 220   0.0000       1.049997        28.5719 
 221   0.0000       1.055032        28.7089 
 222   0.0000       1.059986        28.8437 
 223   0.0000       1.070724        29.1359 
 224   0.0000       1.071597        29.1596 
 225   0.0000       1.088948        29.6318 
 226   0.0000       1.101491        29.9731 
 227   0.0000       1.104025        30.0421 
 228   0.0000       1.117608        30.4117 
 229   0.0000       1.120646        30.4943 
 230   0.0000       1.129820        30.7440 
 231   0.0000       1.135031        30.8858 
 232   0.0000       1.148392        31.2493 
 233   0.0000       1.151860        31.3437 
 234   0.0000       1.155587        31.4451 
 235   0.0000       1.156157        31.4606 
 236   0.0000       1.172230        31.8980 
 237   0.0000       1.176744        32.0208 
 238   0.0000       1.181959        32.1627 
 239   0.0000       1.187892        32.3242 
 240   0.0000       1.192273        32.4434 
 241   0.0000       1.198874        32.6230 
 242   0.0000       1.202522        32.7223 
 243   0.0000       1.207327        32.8531 
 244   0.0000       1.215605        33.0783 
 245   0.0000       1.223006        33.2797 
 246   0.0000       1.229024        33.4435 
 247   0.0000       1.237915        33.6854 
 248   0.0000       1.241091        33.7718 
 249   0.0000       1.248053        33.9613 
 250   0.0000       1.259200        34.2646 
 251   0.0000       1.266041        34.4507 
 252   0.0000       1.274886        34.6914 
 253   0.0000       1.281511        34.8717 
 254   0.0000       1.285483        34.9798 
 255   0.0000       1.296973        35.2924 
 256   0.0000       1.301783        35.4233 
 257   0.0000       1.312539        35.7160 
 258   0.0000       1.318207        35.8702 
 259   0.0000       1.326814        36.1045 
 260   0.0000       1.330144        36.1951 
 261   0.0000       1.337380        36.3920 
 262   0.0000       1.357723        36.9455 
 263   0.0000       1.360069        37.0094 
 264   0.0000       1.363215        37.0950 
 265   0.0000       1.368135        37.2288 
 266   0.0000       1.374680        37.4069 
 267   0.0000       1.396281        37.9947 
 268   0.0000       1.397084        38.0166 
 269   0.0000       1.405038        38.2330 
 270   0.0000       1.413886        38.4738 
 271   0.0000       1.422201        38.7001 
 272   0.0000       1.431663        38.9575 
 273   0.0000       1.437695        39.1217 
 274   0.0000       1.451098        39.4864 
 275   0.0000       1.463443        39.8223 
 276   0.0000       1.464727        39.8573 
 277   0.0000       1.466068        39.8937 
 278   0.0000       1.484723        40.4014 
 279   0.0000       1.489432        40.5295 
 280   0.0000       1.489964        40.5440 
 281   0.0000       1.501406        40.8553 
 282   0.0000       1.507366        41.0175 
 283   0.0000       1.512794        41.1652 
 284   0.0000       1.522137        41.4194 
 285   0.0000       1.526456        41.5370 
 286   0.0000       1.529082        41.6084 
 287   0.0000       1.535924        41.7946 
 288   0.0000       1.538797        41.8728 
 289   0.0000       1.551901        42.2294 
 290   0.0000       1.556084        42.3432 
 291   0.0000       1.561036        42.4780 
 292   0.0000       1.571911        42.7739 
 293   0.0000       1.578297        42.9476 
 294   0.0000       1.585056        43.1316 
 295   0.0000       1.592658        43.3384 
 296   0.0000       1.600512        43.5521 
 297   0.0000       1.607743        43.7489 
 298   0.0000       1.619567        44.0707 
 299   0.0000       1.624020        44.1918 
 300   0.0000       1.637834        44.5677 
 301   0.0000       1.640722        44.6463 
 302   0.0000       1.649652        44.8893 
 303   0.0000       1.653805        45.0023 
 304   0.0000       1.654827        45.0301 
 305   0.0000       1.662810        45.2474 
 306   0.0000       1.672998        45.5246 
 307   0.0000       1.684049        45.8253 
 308   0.0000       1.697410        46.1889 
 309   0.0000       1.707477        46.4628 
 310   0.0000       1.715081        46.6697 
 311   0.0000       1.719570        46.7919 
 312   0.0000       1.724536        46.9270 
 313   0.0000       1.728926        47.0465 
 314   0.0000       1.744347        47.4661 
 315   0.0000       1.755711        47.7753 
 316   0.0000       1.763790        47.9952 
 317   0.0000       1.770695        48.1831 
 318   0.0000       1.779268        48.4164 
 319   0.0000       1.793054        48.7915 
 320   0.0000       1.808843        49.2211 
 321   0.0000       1.813679        49.3527 
 322   0.0000       1.832961        49.8774 
 323   0.0000       1.840567        50.0844 
 324   0.0000       1.852210        50.4012 
 325   0.0000       1.860055        50.6147 
 326   0.0000       1.892985        51.5108 
 327   0.0000       1.898999        51.6744 
 328   0.0000       1.907840        51.9150 
 329   0.0000       1.910931        51.9991 
 330   0.0000       1.922633        52.3175 
 331   0.0000       1.933412        52.6108 
 332   0.0000       1.942282        52.8522 
 333   0.0000       1.957337        53.2618 
 334   0.0000       1.964495        53.4566 
 335   0.0000       1.974482        53.7284 
 336   0.0000       1.981959        53.9318 
 337   0.0000       2.001261        54.4571 
 338   0.0000       2.011221        54.7281 
 339   0.0000       2.028534        55.1992 
 340   0.0000       2.030467        55.2518 
 341   0.0000       2.033305        55.3290 
 342   0.0000       2.046764        55.6953 
 343   0.0000       2.061316        56.0912 
 344   0.0000       2.102185        57.2034 
 345   0.0000       2.108267        57.3688 
 346   0.0000       2.126760        57.8721 
 347   0.0000       2.128376        57.9161 
 348   0.0000       2.138160        58.1823 
 349   0.0000       2.159364        58.7593 
 350   0.0000       2.169904        59.0461 
 351   0.0000       2.200595        59.8812 
 352   0.0000       2.210423        60.1487 
 353   0.0000       2.224848        60.5412 
 354   0.0000       2.236894        60.8690 
 355   0.0000       2.253427        61.3189 
 356   0.0000       2.274129        61.8822 
 357   0.0000       2.289484        62.3000 
 358   0.0000       2.305947        62.7480 
 359   0.0000       2.311129        62.8890 
 360   0.0000       2.317470        63.0616 
 361   0.0000       2.324226        63.2454 
 362   0.0000       2.345363        63.8206 
 363   0.0000       2.353181        64.0333 
 364   0.0000       2.362225        64.2794 
 365   0.0000       2.384076        64.8740 
 366   0.0000       2.388653        64.9985 
 367   0.0000       2.405923        65.4685 
 368   0.0000       2.408642        65.5425 
 369   0.0000       2.421475        65.8917 
 370   0.0000       2.423943        65.9589 
 371   0.0000       2.451456        66.7075 
 372   0.0000       2.461098        66.9699 
 373   0.0000       2.474705        67.3401 
 374   0.0000       2.477054        67.4041 
 375   0.0000       2.488082        67.7041 
 376   0.0000       2.507244        68.2256 
 377   0.0000       2.515125        68.4400 
 378   0.0000       2.525169        68.7134 
 379   0.0000       2.559290        69.6418 
 380   0.0000       2.572029        69.9885 
 381   0.0000       2.584677        70.3326 
 382   0.0000       2.592126        70.5353 
 383   0.0000       2.598916        70.7201 
 384   0.0000       2.618005        71.2395 
 385   0.0000       2.622311        71.3567 
 386   0.0000       2.628223        71.5176 
 387   0.0000       2.641204        71.8708 
 388   0.0000       2.655666        72.2643 
 389   0.0000       2.666130        72.5491 
 390   0.0000       2.673827        72.7585 
 391   0.0000       2.691620        73.2427 
 392   0.0000       2.700585        73.4867 
 393   0.0000       2.709093        73.7182 
 394   0.0000       2.723529        74.1110 
 395   0.0000       2.734783        74.4172 
 396   0.0000       2.738473        74.5176 
 397   0.0000       2.743274        74.6483 
 398   0.0000       2.752060        74.8874 
 399   0.0000       2.761513        75.1446 
 400   0.0000       2.763436        75.1969 
 401   0.0000       2.773676        75.4755 
 402   0.0000       2.795457        76.0682 
 403   0.0000       2.805440        76.3399 
 404   0.0000       2.810125        76.4674 
 405   0.0000       2.821294        76.7713 
 406   0.0000       2.832875        77.0864 
 407   0.0000       2.840021        77.2809 
 408   0.0000       2.847230        77.4771 
 409   0.0000       2.847914        77.4957 
 410   0.0000       2.866420        77.9992 
 411   0.0000       2.873636        78.1956 
 412   0.0000       2.878755        78.3349 
 413   0.0000       2.886733        78.5520 
 414   0.0000       2.897017        78.8318 
 415   0.0000       2.914307        79.3023 
 416   0.0000       2.925821        79.6156 
 417   0.0000       2.942265        80.0631 
 418   0.0000       2.946637        80.1821 
 419   0.0000       2.957157        80.4683 
 420   0.0000       2.965728        80.7016 
 421   0.0000       2.972881        80.8962 
 422   0.0000       2.978744        81.0557 
 423   0.0000       2.993147        81.4477 
 424   0.0000       2.994332        81.4799 
 425   0.0000       3.014503        82.0288 
 426   0.0000       3.015393        82.0530 
 427   0.0000       3.028427        82.4077 
 428   0.0000       3.030846        82.4735 
 429   0.0000       3.034899        82.5838 
 430   0.0000       3.041721        82.7694 
 431   0.0000       3.052153        83.0533 
 432   0.0000       3.059722        83.2593 
 433   0.0000       3.062177        83.3261 
 434   0.0000       3.079515        83.7979 
 435   0.0000       3.084942        83.9455 
 436   0.0000       3.087371        84.0116 
 437   0.0000       3.094720        84.2116 
 438   0.0000       3.104447        84.4763 
 439   0.0000       3.105132        84.4949 
 440   0.0000       3.111004        84.6547 
 441   0.0000       3.117978        84.8445 
 442   0.0000       3.125447        85.0477 
 443   0.0000       3.132705        85.2452 
 444   0.0000       3.138350        85.3989 
 445   0.0000       3.147750        85.6546 
 446   0.0000       3.163087        86.0720 
 447   0.0000       3.171399        86.2981 
 448   0.0000       3.176840        86.4462 
 449   0.0000       3.194958        86.9392 
 450   0.0000       3.196789        86.9891 
 451   0.0000       3.198388        87.0326 
 452   0.0000       3.203696        87.1770 
 453   0.0000       3.219218        87.5994 
 454   0.0000       3.221039        87.6489 
 455   0.0000       3.226022        87.7845 
 456   0.0000       3.231427        87.9316 
 457   0.0000       3.243830        88.2691 
 458   0.0000       3.258089        88.6571 
 459   0.0000       3.262301        88.7717 
 460   0.0000       3.266037        88.8734 
 461   0.0000       3.272833        89.0583 
 462   0.0000       3.276346        89.1539 
 463   0.0000       3.288655        89.4888 
 464   0.0000       3.300250        89.8044 
 465   0.0000       3.302873        89.8757 
 466   0.0000       3.311176        90.1017 
 467   0.0000       3.319016        90.3150 
 468   0.0000       3.320424        90.3533 
 469   0.0000       3.325685        90.4965 
 470   0.0000       3.335564        90.7653 
 471   0.0000       3.341472        90.9261 
 472   0.0000       3.351210        91.1910 
 473   0.0000       3.359665        91.4211 
 474   0.0000       3.366547        91.6084 
 475   0.0000       3.371801        91.7514 
 476   0.0000       3.374175        91.8160 
 477   0.0000       3.377478        91.9058 
 478   0.0000       3.391283        92.2815 
 479   0.0000       3.394951        92.3813 
 480   0.0000       3.401796        92.5676 
 481   0.0000       3.404141        92.6314 
 482   0.0000       3.406374        92.6922 
 483   0.0000       3.409592        92.7797 
 484   0.0000       3.415079        92.9290 
 485   0.0000       3.417462        92.9939 
 486   0.0000       3.418440        93.0205 
 487   0.0000       3.424404        93.1828 
 488   0.0000       3.429080        93.3100 
 489   0.0000       3.434592        93.4600 
 490   0.0000       3.442639        93.6790 
 491   0.0000       3.447266        93.8049 
 492   0.0000       3.454546        94.0030 
 493   0.0000       3.461323        94.1874 
 494   0.0000       3.464429        94.2719 
 495   0.0000       3.467327        94.3508 
 496   0.0000       3.476670        94.6050 
 497   0.0000       3.480022        94.6962 
 498   0.0000       3.492104        95.0250 
 499   0.0000       3.502901        95.3188 
 500   0.0000       3.517266        95.7097 
 501   0.0000       3.520249        95.7908 
 502   0.0000       3.528969        96.0281 
 503   0.0000       3.530575        96.0718 
 504   0.0000       3.541138        96.3593 
 505   0.0000       3.544306        96.4455 
 506   0.0000       3.556103        96.7665 
 507   0.0000       3.563695        96.9731 
 508   0.0000       3.573456        97.2387 
 509   0.0000       3.584063        97.5273 
 510   0.0000       3.591386        97.7266 
 511   0.0000       3.603708        98.0619 
 512   0.0000       3.614869        98.3656 
 513   0.0000       3.618874        98.4746 
 514   0.0000       3.621747        98.5528 
 515   0.0000       3.624117        98.6172 
 516   0.0000       3.628014        98.7233 
 517   0.0000       3.634610        98.9028 
 518   0.0000       3.644564        99.1736 
 519   0.0000       3.646494        99.2261 
 520   0.0000       3.653637        99.4205 
 521   0.0000       3.659685        99.5851 
 522   0.0000       3.663668        99.6935 
 523   0.0000       3.670027        99.8665 
 524   0.0000       3.671854        99.9162 
 525   0.0000       3.673686        99.9661 
 526   0.0000       3.685966       100.3002 
 527   0.0000       3.690006       100.4102 
 528   0.0000       3.696892       100.5976 
 529   0.0000       3.708735       100.9198 
 530   0.0000       3.714908       101.0878 
 531   0.0000       3.720583       101.2422 
 532   0.0000       3.725434       101.3742 
 533   0.0000       3.737214       101.6948 
 534   0.0000       3.744250       101.8862 
 535   0.0000       3.750108       102.0456 
 536   0.0000       3.755610       102.1953 
 537   0.0000       3.760331       102.3238 
 538   0.0000       3.767708       102.5246 
 539   0.0000       3.768689       102.5513 
 540   0.0000       3.775057       102.7245 
 541   0.0000       3.785997       103.0222 
 542   0.0000       3.791772       103.1793 
 543   0.0000       3.795128       103.2707 
 544   0.0000       3.805413       103.5505 
 545   0.0000       3.810152       103.6795 
 546   0.0000       3.819241       103.9268 
 547   0.0000       3.825607       104.1001 
 548   0.0000       3.831923       104.2719 
 549   0.0000       3.836486       104.3961 
 550   0.0000       3.847185       104.6872 
 551   0.0000       3.852254       104.8252 
 552   0.0000       3.872225       105.3686 
 553   0.0000       3.874489       105.4302 
 554   0.0000       3.883772       105.6828 
 555   0.0000       3.902894       106.2032 
 556   0.0000       3.910143       106.4004 
 557   0.0000       3.912087       106.4533 
 558   0.0000       3.915903       106.5571 
 559   0.0000       3.937007       107.1314 
 560   0.0000       3.941509       107.2539 
 561   0.0000       3.953611       107.5832 
 562   0.0000       3.958497       107.7162 
 563   0.0000       3.969531       108.0164 
 564   0.0000       3.979996       108.3012 
 565   0.0000       3.987518       108.5059 
 566   0.0000       3.993644       108.6726 
 567   0.0000       3.994713       108.7017 
 568   0.0000       4.003596       108.9434 
 569   0.0000       4.019405       109.3736 
 570   0.0000       4.025449       109.5380 
 571   0.0000       4.032008       109.7165 
 572   0.0000       4.043418       110.0270 
 573   0.0000       4.048563       110.1670 
 574   0.0000       4.058518       110.4379 
 575   0.0000       4.074245       110.8658 
 576   0.0000       4.076800       110.9354 
 577   0.0000       4.088876       111.2640 
 578   0.0000       4.100685       111.5853 
 579   0.0000       4.103704       111.6675 
 580   0.0000       4.112692       111.9120 
 581   0.0000       4.118017       112.0569 
 582   0.0000       4.127159       112.3057 
 583   0.0000       4.133843       112.4876 
 584   0.0000       4.138613       112.6174 
 585   0.0000       4.147221       112.8516 
 586   0.0000       4.150412       112.9384 
 587   0.0000       4.151895       112.9788 
 588   0.0000       4.155999       113.0905 
 589   0.0000       4.177232       113.6682 
 590   0.0000       4.181619       113.7876 
 591   0.0000       4.185933       113.9050 
 592   0.0000       4.192908       114.0948 
 593   0.0000       4.197309       114.2146 
 594   0.0000       4.199500       114.2742 
 595   0.0000       4.210745       114.5802 
 596   0.0000       4.215536       114.7106 
 597   0.0000       4.228053       115.0512 
 598   0.0000       4.231481       115.1445 
 599   0.0000       4.240949       115.4021 
 600   0.0000       4.246960       115.5657 
 601   0.0000       4.255717       115.8040 
 602   0.0000       4.267865       116.1345 
 603   0.0000       4.276186       116.3609 
 604   0.0000       4.285321       116.6095 
 605   0.0000       4.295434       116.8847 
 606   0.0000       4.297949       116.9531 
 607   0.0000       4.301922       117.0613 
 608   0.0000       4.317946       117.4973 
 609   0.0000       4.323970       117.6612 
 610   0.0000       4.336565       118.0039 
 611   0.0000       4.344614       118.2230 
 612   0.0000       4.345446       118.2456 
 613   0.0000       4.353189       118.4563 
 614   0.0000       4.362777       118.7172 
 615   0.0000       4.364752       118.7710 
 616   0.0000       4.370809       118.9358 
 617   0.0000       4.375825       119.0723 
 618   0.0000       4.380603       119.2023 
 619   0.0000       4.388786       119.4249 
 620   0.0000       4.395380       119.6044 
 621   0.0000       4.400970       119.7565 
 622   0.0000       4.417058       120.1943 
 623   0.0000       4.427328       120.4737 
 624   0.0000       4.432681       120.6194 
 625   0.0000       4.446539       120.9965 
 626   0.0000       4.453190       121.1775 
 627   0.0000       4.461361       121.3998 
 628   0.0000       4.467131       121.5568 
 629   0.0000       4.477244       121.8320 
 630   0.0000       4.497420       122.3810 
 631   0.0000       4.506266       122.6217 
 632   0.0000       4.515231       122.8657 
 633   0.0000       4.532602       123.3384 
 634   0.0000       4.537654       123.4759 
 635   0.0000       4.538095       123.4878 
 636   0.0000       4.547739       123.7503 
 637   0.0000       4.559253       124.0636 
 638   0.0000       4.567038       124.2754 
 639   0.0000       4.572247       124.4172 
 640   0.0000       4.578099       124.5764 
 641   0.0000       4.580939       124.6537 
 642   0.0000       4.593560       124.9971 
 643   0.0000       4.610731       125.4644 
 644   0.0000       4.619909       125.7141 
 645   0.0000       4.626244       125.8865 
 646   0.0000       4.629804       125.9834 
 647   0.0000       4.631015       126.0163 
 648   0.0000       4.642645       126.3328 
 649   0.0000       4.646274       126.4315 
 650   0.0000       4.655144       126.6729 
 651   0.0000       4.663449       126.8989 
 652   0.0000       4.674271       127.1934 
 653   0.0000       4.680125       127.3527 
 654   0.0000       4.690459       127.6339 
 655   0.0000       4.697841       127.8347 
 656   0.0000       4.712232       128.2263 
 657   0.0000       4.721635       128.4822 
 658   0.0000       4.726971       128.6274 
 659   0.0000       4.743787       129.0850 
 660   0.0000       4.749040       129.2280 
 661   0.0000       4.761123       129.5567 
 662   0.0000       4.762325       129.5894 
 663   0.0000       4.782617       130.1416 
 664   0.0000       4.790946       130.3683 
 665   0.0000       4.809460       130.8721 
 666   0.0000       4.835745       131.5873 
 667   0.0000       4.851192       132.0076 
 668   0.0000       4.874404       132.6393 
 669   0.0000       4.890407       133.0747 
 670   0.0000       4.900140       133.3396 
 671   0.0000       4.914431       133.7285 
 672   0.0000       4.922692       133.9533 
 673   0.0000       4.946434       134.5993 
 674   0.0000       4.968678       135.2046 
 675   0.0000       4.988918       135.7554 
 676   0.0000       5.013015       136.4111 
 677   0.0000       5.017676       136.5379 
 678   0.0000       5.030573       136.8889 
 679   0.0000       5.032647       136.9453 
 680   0.0000       5.055732       137.5735 
 681   0.0000       5.071638       138.0063 
 682   0.0000       5.084529       138.3571 
 683   0.0000       5.095778       138.6632 
 684   0.0000       5.109652       139.0407 
 685   0.0000       5.111777       139.0985 
 686   0.0000       5.121856       139.3728 
 687   0.0000       5.137817       139.8071 
 688   0.0000       5.141192       139.8990 
 689   0.0000       5.147895       140.0814 
 690   0.0000       5.165243       140.5534 
 691   0.0000       5.168301       140.6366 
 692   0.0000       5.190251       141.2339 
 693   0.0000       5.193235       141.3151 
 694   0.0000       5.205775       141.6563 
 695   0.0000       5.215186       141.9124 
 696   0.0000       5.221824       142.0930 
 697   0.0000       5.234191       142.4296 
 698   0.0000       5.237528       142.5204 
 699   0.0000       5.250336       142.8689 
 700   0.0000       5.259442       143.1167 
 701   0.0000       5.271749       143.4516 
 702   0.0000       5.288143       143.8977 
 703   0.0000       5.308840       144.4609 
 704   0.0000       5.322011       144.8193 
 705   0.0000       5.339638       145.2989 
 706   0.0000       5.343906       145.4151 
 707   0.0000       5.357137       145.7751 
 708   0.0000       5.370622       146.1421 
 709   0.0000       5.385653       146.5511 
 710   0.0000       5.409692       147.2052 
 711   0.0000       5.427236       147.6826 
 712   0.0000       5.433050       147.8408 
 713   0.0000       5.452873       148.3802 
 714   0.0000       5.468338       148.8011 
 715   0.0000       5.487671       149.3271 
 716   0.0000       5.496552       149.5688 
 717   0.0000       5.515191       150.0760 
 718   0.0000       5.519732       150.1995 
 719   0.0000       5.531576       150.5218 
 720   0.0000       5.541225       150.7844 
 721   0.0000       5.545402       150.8981 
 722   0.0000       5.554503       151.1457 
 723   0.0000       5.577951       151.7838 
 724   0.0000       5.587869       152.0536 
 725   0.0000       5.603655       152.4832 
 726   0.0000       5.608889       152.6256 
 727   0.0000       5.630041       153.2012 
 728   0.0000       5.631229       153.2335 
 729   0.0000       5.645503       153.6220 
 730   0.0000       5.646219       153.6414 
 731   0.0000       5.651774       153.7926 
 732   0.0000       5.670345       154.2979 
 733   0.0000       5.681441       154.5999 
 734   0.0000       5.699147       155.0817 
 735   0.0000       5.707603       155.3118 
 736   0.0000       5.721963       155.7025 
 737   0.0000       5.730820       155.9435 
 738   0.0000       5.752683       156.5385 
 739   0.0000       5.760689       156.7563 
 740   0.0000       5.769230       156.9887 
 741   0.0000       5.779123       157.2579 
 742   0.0000       5.799899       157.8233 
 743   0.0000       5.800703       157.8452 
 744   0.0000       5.821694       158.4163 
 745   0.0000       5.834810       158.7732 
 746   0.0000       5.859913       159.4563 
 747   0.0000       5.871701       159.7771 
 748   0.0000       5.909831       160.8147 
 749   0.0000       5.934292       161.4803 
 750   0.0000       5.946456       161.8113 
 751   0.0000       5.958996       162.1525 
 752   0.0000       5.980158       162.7284 
 753   0.0000       5.996970       163.1858 
 754   0.0000       6.013402       163.6330 
 755   0.0000       6.014796       163.6709 
 756   0.0000       6.060483       164.9141 
 757   0.0000       6.071576       165.2160 
 758   0.0000       6.087558       165.6509 
 759   0.0000       6.104095       166.1009 
 760   0.0000       6.105358       166.1352 
 761   0.0000       6.186374       168.3398 
 762   0.0000       6.208635       168.9455 
 763   0.0000       6.218900       169.2249 
 764   0.0000       6.229278       169.5073 
 765   0.0000       6.251281       170.1060 
 766   0.0000       6.287451       171.0902 
 767   0.0000       6.326709       172.1585 
 768   0.0000       6.333995       172.3568 
 769   0.0000       6.354770       172.9221 
 770   0.0000       6.372986       173.4178 
 771   0.0000       6.385847       173.7677 
 772   0.0000       6.408013       174.3709 
 773   0.0000       6.452545       175.5827 
 774   0.0000       6.462646       175.8575 
 775   0.0000       6.475478       176.2067 
 776   0.0000       6.511547       177.1882 
 777   0.0000       6.541189       177.9948 
 778   0.0000       6.562117       178.5643 
 779   0.0000       6.593726       179.4244 
 780   0.0000       6.655720       181.1113 
 781   0.0000       6.682504       181.8402 
 782   0.0000       6.707139       182.5105 
 783   0.0000       6.750085       183.6791 
 784   0.0000       6.786867       184.6800 
 785   0.0000       6.903896       187.8646 
 786   0.0000       6.918320       188.2571 
 787   0.0000       6.927135       188.4969 
 788   0.0000       6.938816       188.8148 
 789   0.0000       7.043032       191.6507 
 790   0.0000       7.058246       192.0646 
 791   0.0000       7.071555       192.4268 
 792   0.0000       7.087512       192.8610 
 793   0.0000       7.136734       194.2004 
 794   0.0000       7.161524       194.8750 
 795   0.0000       7.263905       197.6609 
 796   0.0000       7.269676       197.8179 
 797   0.0000       7.287050       198.2907 
 798   0.0000       7.346427       199.9064 
 799   0.0000       7.356060       200.1686 
 800   0.0000       7.457768       202.9362 
 801   0.0000       7.513624       204.4561 
 802   0.0000       7.581095       206.2921 
 803   0.0000       7.589759       206.5279 
 804   0.0000       7.692198       209.3154 
 805   0.0000       7.820870       212.8167 
 806   0.0000       7.831185       213.0974 
 807   0.0000       7.939847       216.0542 
 808   0.0000       7.973980       216.9830 
 809   0.0000       9.355592       254.5786 
 810   0.0000       9.572890       260.4916 
 811   0.0000      10.854085       295.3547 
 812   0.0000      11.255947       306.2899 
 813   0.0000      11.918250       324.3121 
 814   0.0000      12.585038       342.4563 
 815   0.0000      12.919224       351.5500 
 816   0.0000      13.064141       355.4933 
 817   0.0000      13.098528       356.4291 
 818   0.0000      13.170350       358.3834 
 819   0.0000      13.405974       364.7951 
 820   0.0000      13.479163       366.7867 
 821   0.0000      13.830409       376.3446 
 822   0.0000      13.905855       378.3976 
 823   0.0000      13.949284       379.5793 
 824   0.0000      14.012920       381.3109 
 825   0.0000      14.542527       395.7223 
 826   0.0000      14.766252       401.8102 
 827   0.0000      15.950059       434.0232 

                    ********************************
                    * MULLIKEN POPULATION ANALYSIS *
                    ********************************

-----------------------
MULLIKEN ATOMIC CHARGES
-----------------------
   0 C :   -0.273125
   1 C :    0.020959
   2 O :   -0.344276
   3 C :    0.458312
   4 O :   -0.435142
   5 C :   -0.184190
   6 C :    0.143887
   7 C :   -0.285215
   8 N :   -0.120443
   9 C :    0.200742
  10 S :   -0.439094
  11 N :   -0.196412
  12 C :    0.032763
  13 C :    0.058536
  14 C :   -0.160464
  15 C :   -0.133919
  16 C :   -0.278652
  17 C :    0.311674
  18 O :   -0.359261
  19 C :   -0.272233
  20 H :    0.090380
  21 H :    0.095827
  22 H :    0.101478
  23 H :    0.101772
  24 H :    0.121600
  25 H :    0.126855
  26 H :    0.102506
  27 H :    0.128085
  28 H :    0.196624
  29 H :    0.193500
  30 H :    0.153474
  31 H :    0.153000
  32 H :    0.158670
  33 H :    0.127680
  34 H :    0.239953
  35 H :    0.164151
Sum of atomic charges:   -0.0000000

--------------------------------
MULLIKEN REDUCED ORBITAL CHARGES
--------------------------------
  0 C s       :     3.257742  s :     3.257742
      pz      :     0.911963  p :     2.938861
      px      :     1.018153
      py      :     1.008745
      dz2     :     0.020093  d :     0.072041
      dxz     :     0.011450
      dyz     :     0.015610
      dx2y2   :     0.013463
      dxy     :     0.011425
      f0      :     0.001923  f :     0.004480
      f+1     :     0.000560
      f-1     :     0.000529
      f+2     :     0.000138
      f-2     :     0.000125
      f+3     :     0.000758
      f-3     :     0.000446
  1 C s       :     3.176046  s :     3.176046
      pz      :     0.910380  p :     2.641717
      px      :     0.902327
      py      :     0.829010
      dz2     :     0.029023  d :     0.149754
      dxz     :     0.023514
      dyz     :     0.036785
      dx2y2   :     0.032317
      dxy     :     0.028116
      f0      :     0.002156  f :     0.011524
      f+1     :     0.001467
      f-1     :     0.001676
      f+2     :     0.000767
      f-2     :     0.001583
      f+3     :     0.001826
      f-3     :     0.002050
  2 O s       :     3.715087  s :     3.715087
      pz      :     1.607889  p :     4.593468
      px      :     1.396166
      py      :     1.589414
      dz2     :     0.005675  d :     0.033461
      dxz     :     0.006477
      dyz     :     0.005222
      dx2y2   :     0.007875
      dxy     :     0.008211
      f0      :     0.000302  f :     0.002260
      f+1     :     0.000422
      f-1     :     0.000131
      f+2     :     0.000440
      f-2     :     0.000429
[...]
 15 C s       :     2.705713  s :     2.705713
      pz      :     0.937790  p :     2.796724
      px      :     0.895328
      py      :     0.963606
      dz2     :     0.104750  d :     0.415684
      dxz     :     0.070699
      dyz     :     0.086169
      dx2y2   :     0.097870
      dxy     :     0.056195
      f0      :     0.005146  f :     0.041002
      f+1     :     0.005839
      f-1     :     0.007039
      f+2     :     0.007242
      f-2     :     0.006021
      f+3     :     0.004628
      f-3     :     0.005086
 16 C s       :     2.701827  s :     2.701827
      pz      :     0.946772  p :     2.869031
      px      :     0.940414
      py      :     0.981845
      dz2     :     0.062330  d :     0.391073
      dxz     :     0.054712
      dyz     :     0.097196
      dx2y2   :     0.089310
      dxy     :     0.087526
      f0      :     0.003563  f :     0.040337
      f+1     :     0.004399
      f-1     :     0.007409
      f+2     :     0.006501
      f-2     :     0.004728
      f+3     :     0.008191
      f-3     :     0.005545
 17 C s       :     2.701500  s :     2.701500
      pz      :     0.894250  p :     2.684027
      px      :     0.823079
      py      :     0.966697
      dz2     :     0.144283  d :     0.707773
      dxz     :     0.097261
      dyz     :     0.169486
      dx2y2   :     0.143380
      dxy     :     0.153363
      f0      :     0.010998  f :     0.099216
      f+1     :     0.012381
      f-1     :     0.015960
      f+2     :     0.018174
      f-2     :     0.013192
      f+3     :     0.016224
      f-3     :     0.012287
 18 O s       :     3.177276  s :     3.177276
      pz      :     1.354295  p :     4.349151
      px      :     1.474842
      py      :     1.520014
      dz2     :     0.011565  d :     0.075571
      dxz     :     0.014957
      dyz     :     0.022661
      dx2y2   :     0.010176
      dxy     :     0.016212
      f0      :     0.000620  f :     0.005078
      f+1     :     0.000536
      f-1     :     0.000840
      f+2     :     0.000744
      f-2     :     0.001039
      f+3     :     0.000697
      f-3     :     0.000603
 19 C s       :     2.695310  s :     2.695310
      pz      :     0.951153  p :     2.847117
      px      :     0.930924
      py      :     0.965040
      dz2     :     0.091810  d :     0.388345
      dxz     :     0.070840
      dyz     :     0.080466
      dx2y2   :     0.087221
      dxy     :     0.058008
      f0      :     0.004944  f :     0.040810
      f+1     :     0.006574
      f-1     :     0.006679
      f+2     :     0.007019
      f-2     :     0.006364
      f+3     :     0.004517
      f-3     :     0.004712
 20 H s       :     0.851698  s :     0.851698
      pz      :     0.045307  p :     0.150725
      px      :     0.041110
      py      :     0.064308
      dz2     :     0.005112  d :     0.027504
      dxz     :     0.001711
      dyz     :     0.007363
      dx2y2   :     0.006170
      dxy     :     0.007148
 21 H s       :     0.847241  s :     0.847241
      pz      :     0.043998  p :     0.150879
      px      :     0.050573
      py      :     0.056308
      dz2     :     0.004529  d :     0.027393
      dxz     :     0.003587
      dyz     :     0.005208
      dx2y2   :     0.008360
      dxy     :     0.005709
 22 H s       :     0.847161  s :     0.847161
      pz      :     0.039623  p :     0.150392
      px      :     0.070224
      py      :     0.040545
      dz2     :     0.003227  d :     0.027489
      dxz     :     0.008193
      dyz     :     0.000655
      dx2y2   :     0.006852
      dxy     :     0.008561
 23 H s       :     0.857064  s :     0.857064
      pz      :     0.040465  p :     0.145325
      px      :     0.073082
      py      :     0.031778
      dz2     :     0.003471  d :     0.026922
      dxz     :     0.008465
      dyz     :     0.000432
      dx2y2   :     0.007254
      dxy     :     0.007300
 24 H s       :     0.848031  s :     0.848031
      pz      :     0.046701  p :     0.151604
      px      :     0.038018
      py      :     0.066886
      dz2     :     0.005133  d :     0.027221
      dxz     :     0.001260
      dyz     :     0.007671
      dx2y2   :     0.006562
      dxy     :     0.006595
 25 H s       :     0.829815  s :     0.829815
      pz      :     0.065482  p :     0.151357
      px      :     0.040458
      py      :     0.045416
      dz2     :     0.009016  d :     0.027773
      dxz     :     0.007458
      dyz     :     0.007158
      dx2y2   :     0.002721
      dxy     :     0.001420
 26 H s       :     0.843370  s :     0.843370
      pz      :     0.038367  p :     0.150133
      px      :     0.038973
      py      :     0.072793
      dz2     :     0.002305  d :     0.027722
      dxz     :     0.000224
      dyz     :     0.009286
      dx2y2   :     0.006952
      dxy     :     0.008954
 27 H s       :     0.830017  s :     0.830017
      pz      :     0.039186  p :     0.151666
      px      :     0.070996
      py      :     0.041484
      dz2     :     0.002894  d :     0.027765
      dxz     :     0.008408
      dyz     :     0.000559
      dx2y2   :     0.007863
      dxy     :     0.008041
 28 H s       :     0.742858  s :     0.742858
      pz      :     0.072034  p :     0.254462
      px      :     0.067804
      py      :     0.114624
      dz2     :     0.006674  d :     0.061935
      dxz     :     0.001731
      dyz     :     0.019402
      dx2y2   :     0.015250
      dxy     :     0.018878
 29 H s       :     0.748448  s :     0.748448
      pz      :     0.107476  p :     0.253813
      px      :     0.103966
      py      :     0.042371
      dz2     :     0.019196  d :     0.061314
      dxz     :     0.015213
      dyz     :     0.007068
      dx2y2   :     0.011027
      dxy     :     0.008811
 30 H s       :     0.828302  s :     0.828302
      pz      :     0.041469  p :     0.148492
      px      :     0.051242
      py      :     0.055781
      dz2     :     0.003623  d :     0.028410
      dxz     :     0.005311
      dyz     :     0.005100
      dx2y2   :     0.006649
      dxy     :     0.007727
 31 H s       :     0.841968  s :     0.841968
      pz      :     0.051710  p :     0.155933
      px      :     0.056326
      py      :     0.047897
      dz2     :     0.005458  d :     0.027477
      dxz     :     0.005238
      dyz     :     0.005335
      dx2y2   :     0.005823
      dxy     :     0.005624
 32 H s       :     0.843517  s :     0.843517
      pz      :     0.037841  p :     0.151349
      px      :     0.037747
      py      :     0.075761
      dz2     :     0.003150  d :     0.026482
      dxz     :     0.000580
      dyz     :     0.008019
      dx2y2   :     0.007264
      dxy     :     0.007469
 33 H s       :     0.849476  s :     0.849476
      pz      :     0.065967  p :     0.159236
      px      :     0.052485
      py      :     0.040784
      dz2     :     0.007989  d :     0.027778
      dxz     :     0.006617
      dyz     :     0.006404
      dx2y2   :     0.003445
      dxy     :     0.003324
 34 H s       :     0.707139  s :     0.707139
      pz      :     0.128630  p :     0.348202
      px      :     0.097215
      py      :     0.122357
      dz2     :     0.028809  d :     0.099651
      dxz     :     0.018896
      dyz     :     0.024410
      dx2y2   :     0.013163
      dxy     :     0.014372
 35 H s       :     0.840079  s :     0.840079
      pz      :     0.039537  p :     0.157151
      px      :     0.040484
      py      :     0.077130
      dz2     :     0.003201  d :     0.028038
      dxz     :     0.000684
      dyz     :     0.008480
      dx2y2   :     0.007442
      dxy     :     0.008231


                      *****************************
                      * MAYER POPULATION ANALYSIS *
                      *****************************

  NA   - Mulliken gross atomic population
  ZA   - Total nuclear charge
  QA   - Mulliken gross atomic charge
  VA   - Mayer's total valence
  BVA  - Mayer's bonded valence
  FA   - Mayer's free valence

  ATOM       NA         ZA         QA         VA         BVA        FA
  0 C      6.2731     6.0000    -0.2731     3.8897     3.8897    -0.0000
  1 C      5.9790     6.0000     0.0210     3.8408     3.8408    -0.0000
  2 O      8.3443     8.0000    -0.3443     2.0687     2.0687    -0.0000
  3 C      5.5417     6.0000     0.4583     4.2278     4.2278    -0.0000
  4 O      8.4351     8.0000    -0.4351     2.0812     2.0812     0.0000
  5 C      6.1842     6.0000    -0.1842     3.6202     3.6202    -0.0000
  6 C      5.8561     6.0000     0.1439     3.8527     3.8527    -0.0000
  7 C      6.2852     6.0000    -0.2852     3.8930     3.8930    -0.0000
  8 N      7.1204     7.0000    -0.1204     3.2934     3.2934    -0.0000
  9 C      5.7993     6.0000     0.2007     4.1550     4.1550     0.0000
 10 S     16.4391    16.0000    -0.4391     1.7570     1.7570     0.0000
 11 N      7.1964     7.0000    -0.1964     3.2617     3.2617    -0.0000
 12 C      5.9672     6.0000     0.0328     3.9733     3.9733     0.0000
 13 C      5.9415     6.0000     0.0585     3.7376     3.7376     0.0000
 14 C      6.1605     6.0000    -0.1605     3.8656     3.8656    -0.0000
 15 C      6.1339     6.0000    -0.1339     3.8081     3.8081    -0.0000
 16 C      6.2787     6.0000    -0.2787     3.7935     3.7935     0.0000
 17 C      5.6883     6.0000     0.3117     3.8765     3.8765    -0.0000
 18 O      8.3593     8.0000    -0.3593     2.1154     2.1154    -0.0000
 19 C      6.2722     6.0000    -0.2722     3.8527     3.8527     0.0000
 20 H      0.9096     1.0000     0.0904     0.9825     0.9825    -0.0000
 21 H      0.9042     1.0000     0.0958     0.9843     0.9843     0.0000
 22 H      0.8985     1.0000     0.1015     0.9848     0.9848     0.0000
 23 H      0.8982     1.0000     0.1018     0.9752     0.9752     0.0000
 24 H      0.8784     1.0000     0.1216     0.9886     0.9886    -0.0000
 25 H      0.8731     1.0000     0.1269     0.9812     0.9812     0.0000
 26 H      0.8975     1.0000     0.1025     0.9867     0.9867    -0.0000
 27 H      0.8719     1.0000     0.1281     0.9804     0.9804    -0.0000
 28 H      0.8034     1.0000     0.1966     1.0240     1.0240    -0.0000
 29 H      0.8065     1.0000     0.1935     1.0186     1.0186     0.0000
 30 H      0.8465     1.0000     0.1535     0.9970     0.9970     0.0000
 31 H      0.8470     1.0000     0.1530     0.9903     0.9903     0.0000
 32 H      0.8413     1.0000     0.1587     0.9777     0.9777    -0.0000
 33 H      0.8723     1.0000     0.1277     0.9923     0.9923     0.0000
 34 H      0.7600     1.0000     0.2400     1.0112     1.0112    -0.0000
 35 H      0.8358     1.0000     0.1642     0.9889     0.9889     0.0000

  Mayer bond orders larger than 0.100000
B(  0-C ,  1-C ) :   0.9696 B(  0-C , 20-H ) :   0.9791 B(  0-C , 21-H ) :   0.9759 
B(  0-C , 22-H ) :   0.9785 B(  1-C ,  2-O ) :   0.8833 B(  1-C , 23-H ) :   0.9831 
B(  1-C , 24-H ) :   0.9728 B(  2-O ,  3-C ) :   1.1697 B(  3-C ,  4-O ) :   1.9699 
B(  3-C ,  5-C ) :   1.0606 B(  5-C ,  6-C ) :   1.6438 B(  5-C , 12-C ) :   0.9660 
B(  6-C ,  7-C ) :   0.9550 B(  6-C ,  8-N ) :   1.1524 B(  7-C , 25-H ) :   0.9653 
B(  7-C , 26-H ) :   0.9916 B(  7-C , 27-H ) :   0.9640 B(  8-N ,  9-C ) :   1.1770 
B(  8-N , 28-H ) :   0.9487 B(  9-C , 10-S ) :   1.6109 B(  9-C , 11-N ) :   1.3051 
B( 11-N , 12-C ) :   0.9930 B( 11-N , 29-H ) :   0.9520 B( 12-C , 13-C ) :   0.9480 
B( 12-C , 30-H ) :   1.0006 B( 13-C , 14-C ) :   1.3755 B( 13-C , 19-C ) :   1.3691 
B( 14-C , 15-C ) :   1.3946 B( 14-C , 31-H ) :   0.9651 B( 15-C , 16-C ) :   1.3625 
B( 15-C , 32-H ) :   0.9715 B( 16-C , 17-C ) :   1.3316 B( 16-C , 33-H ) :   0.9861 
B( 17-C , 18-O ) :   1.1078 B( 17-C , 19-C ) :   1.3795 B( 18-O , 34-H ) :   0.9807 
B( 19-C , 35-H ) :   0.9585 

-------
TIMINGS
-------

Total SCF time: 0 days 1 hours 21 min 28 sec 

Total time                  ....    4888.381 sec
Sum of individual times     ....    4879.929 sec  ( 99.8%)

Fock matrix formation       ....    4863.783 sec  ( 99.5%)
Diagonalization             ....       1.368 sec  (  0.0%)
Density matrix formation    ....       0.195 sec  (  0.0%)
Population analysis         ....       0.276 sec  (  0.0%)
Initial guess               ....       5.445 sec  (  0.1%)
Orbital Transformation      ....       0.000 sec  (  0.0%)
Orbital Orthonormalization  ....       0.000 sec  (  0.0%)
DIIS solution               ....       4.281 sec  (  0.1%)
SOSCF solution              ....       2.831 sec  (  0.1%)

Maximum memory used throughout the entire SCF-calculation: 717.3 MB

------------------------------------------------------------------------------
                                ORCA  MP2 
------------------------------------------------------------------------------

Freezing NCore=48 chemical core electrons

-------------
RI-MP2 ENERGY
-------------
Dimension of the basis                    ...  828
Memory devoted to MP2                     ...  256 MB   
Data format for buffers                   ... DOUBLE
Compression type for matrix containers    ... UNCOMPRESSED
Overall scaling of the MP2 energy         ...   1.000e+00
Calculating two index integrals           ... done (    0.034 sec)
Cholesky decomposition of V**-1           ... done (    0.505 sec)

-----------------
RI-TRANSFORMATION (AUX index driven)
-----------------

Dimension of the orbital-basis         ... 828
Dimension of the aux-basis             ... 2141
Transformation of internal/external MOs...   24-  76 to   77- 827
Number Format for Storage              ... Double (8 Byte)
Integral mode                          ... Direct

First Phase: integral generation and transformation of MO indices
  Aux angular momentum 0               ... done (    4.019 sec)
  Aux angular momentum 1               ... done (    6.911 sec)
  Aux angular momentum 2               ... done (    8.241 sec)
  Aux angular momentum 3               ... done (    6.581 sec)
  Aux angular momentum 4               ... done (    2.319 sec)
Closing buffer VIA ( 0.63 GB; CompressionRatio= 1.00)
  Phase 1 completed in    28.314 sec
Second Phase: sorting and transformation of aux index

IA-Transformation
Memory available                       ... 158 MB 
Max. # MO pairs treated in a batch     ... 11    
# of internal orbitals                 ... 53
# batches for internal orbitals        ... 5
Closing buffer IAV ( 0.63 GB; CompressionRatio= 1.00)
(ia|v) transformation done in    33.039 sec

  Phase 2 completed in    33.060 sec
RI-Integral transformation completed in    61.408 sec
Opening buffers                              ... done

Starting loop over batches of integrals:

Operator 0  - window                       ... ( 24- 76)x( 77-827)
Operator 0  - Memory available             ...   256 MB
Operator 0  - Memory needed per MO         ...  12.3 MB
Operator 0  - Number of orbitals per batch ... 13
Operator 0  - Number of batches            ... 5

OPERATOR  0   PASS   0:  MOs    24 ...   36
  Reading integrals       ... ok
  Internal MO  26
  Internal MO  29
  Internal MO  32
  Internal MO  35
OPERATOR  0   PASS   1:  MOs    37 ...   49
  Reading integrals       ... ok
  Internal MO  38
  Internal MO  41
  Internal MO  44
  Internal MO  47
OPERATOR  0   PASS   2:  MOs    50 ...   62
  Reading integrals       ... ok
  Internal MO  50
  Internal MO  53
  Internal MO  56
  Internal MO  59
  Internal MO  62
OPERATOR  0   PASS   3:  MOs    63 ...   75
  Reading integrals       ... ok
  Internal MO  65
  Internal MO  68
  Internal MO  71
  Internal MO  74
OPERATOR  0   PASS   4:  MOs    76 ...   76
  Reading integrals       ... ok
Time spent in pair loops =   144.176 sec
Deleting buffer (Ka|jb)[aa] ...done

-----------------------------------------------
 RI-MP2 CORRELATION ENERGY:     -3.529887279 Eh
-----------------------------------------------


-------
TIMINGS
-------

Total time                :  206.302 sec
Integral trafo            :   61.425 sec ( 29.8%)
I/O of integrals          :    3.928 sec (  1.9%)
K(i,j) Operators          :   83.898 sec ( 40.7%)
T(i,j) pair energies      :    3.711 sec (  1.8%)
V-calculation             :    0.034 sec (  0.0%)
V**(-1/2)                 :    0.505 sec (  0.2%)
Gamma(ia|P)               :    0.000 sec (  0.0%)
Gamma-Trafo               :    0.000 sec (  0.0%)
D(virtual)                :    0.000 sec (  0.0%)
D(internal)               :    0.000 sec (  0.0%)
W(virtual)                :    0.000 sec (  0.0%)
W(internal)               :    0.000 sec (  0.0%)
L(virtual)                :    0.000 sec (  0.0%)
L(internal)               :    0.000 sec (  0.0%)
G(D)                      :    0.000 sec (  0.0%)
G(Z)                      :    0.000 sec (  0.0%)
Z-Vector Solution         :    0.000 sec (  0.0%)
3-Index Derivative        :    0.000 sec (  0.0%)
2-Index Derivative        :    0.000 sec (  0.0%)
Separable Gradient        :    0.000 sec (  0.0%)


---------------------------------------
MP2 TOTAL ENERGY:    -1274.348012116 Eh
---------------------------------------

Maximum memory used throughout the entire MP2-calculation: 302.8 MB

-------------------------   --------------------
FINAL SINGLE POINT ENERGY     -1274.348012115650
-------------------------   --------------------


                            ***************************************
                            *     ORCA property calculations      *
                            ***************************************


  WARNING: The energy has been calculated at the MP2 level but the densities
           used in the property calculations are still SCF densities
           MP2 response densities have not been calculated 
           use %mp2 Density relaxed end
           or  %mp2 Density unrelaxed end

                                    ---------------------
                                    Active property flags
                                    ---------------------
   (+) Dipole Moment


------------------------------------------------------------------------------
                       ORCA ELECTRIC PROPERTIES CALCULATION
------------------------------------------------------------------------------

Dipole Moment Calculation                       ... on
Quadrupole Moment Calculation                   ... off
Polarizability Calculation                      ... off
GBWName                                         ... CONFS/Conf157.orca.gbw
Electron density file                           ... CONFS/Conf157.orca.scfp
The origin for moment calculation is the CENTER OF MASS  = (32.930497, 31.417399 35.544654)

-------------
DIPOLE MOMENT
-------------
                                X             Y             Z
Electronic contribution:     10.47004       8.58274      12.59777
Nuclear contribution   :    -12.17413      -9.70206     -13.49087
                        -----------------------------------------
Total Dipole Moment    :     -1.70409      -1.11932      -0.89310
                        -----------------------------------------
Magnitude (a.u.)       :      2.22586
Magnitude (Debye)      :      5.65768



--------------------
Rotational spectrum 
--------------------
 
Rotational constants in cm-1:     0.010556     0.008615     0.005663 
Rotational constants in MHz :   316.457533   258.265386   169.781045 

 Dipole components along the rotational axes: 
x,y,z [a.u.] :    -1.809434    -1.022220     0.797151 
x,y,z [Debye]:    -4.599215    -2.598276     2.026197 

 

Timings for individual modules:

Sum of individual times         ...     5099.334 sec (=  84.989 min)
GTO integral calculation        ...        3.439 sec (=   0.057 min)   0.1 %
SCF iterations                  ...     4888.459 sec (=  81.474 min)  95.9 %
MP2 module                      ...      207.437 sec (=   3.457 min)   4.1 %
                             ****ORCA TERMINATED NORMALLY****
TOTAL RUN TIME: 0 days 1 hours 25 minutes 1 seconds 813 msec
