
                                 *****************
                                 * O   R   C   A *
                                 *****************

           --- An Ab Initio, DFT and Semiempirical electronic structure package ---

                  #######################################################
                  #                        -***-                        #
                  #          Department of theory and spectroscopy      #
                  #               Directorship: Frank Neese             #
                  #        Max Planck Institute fuer Kohlenforschung    #
                  #                Kaiser Wilhelm Platz 1               #
                  #                 D-45470 Muelheim/Ruhr               #
                  #                      Germany                        #
                  #                                                     #
                  #                  All rights reserved                #
                  #                        -***-                        #
                  #######################################################


                         Program Version 4.2.0 -  RELEASE  -


 With contributions from (in alphabetic order):
   Daniel Aravena         : Magnetic Suceptibility
   Michael Atanasov       : Ab Initio Ligand Field Theory (pilot matlab implementation)
   Alexander A. Auer      : GIAO ZORA, VPT2
   Ute Becker             : Parallelization
   Giovanni Bistoni       : ED, misc. LED, open-shell LED, HFLED
   Martin Brehm           : Molecular dynamics
   Dmytro Bykov           : SCF Hessian
   Vijay G. Chilkuri      : MRCI spin determinant printing, contributions to CSF-ICE
   Dipayan Datta          : RHF DLPNO-CCSD density
   Achintya Kumar Dutta   : EOM-CC, STEOM-CC
   Dmitry Ganyushin       : Spin-Orbit,Spin-Spin,Magnetic field MRCI
   Miquel Garcia          : C-PCM Hessian, Gaussian charge scheme
   Yang Guo               : DLPNO-NEVPT2, CIM, IAO-localization
   Andreas Hansen         : Spin unrestricted coupled pair/coupled cluster methods
   Benjamin Helmich-Paris : CASSCF linear response (MC-RPA)
   Lee Huntington         : MR-EOM, pCC
   Robert Izsak           : Overlap fitted RIJCOSX, COSX-SCS-MP3, EOM
   Christian Kollmar      : KDIIS, OOCD, Brueckner-CCSD(T), CCSD density
   Simone Kossmann        : Meta GGA functionals, TD-DFT gradient, OOMP2, MP2 Hessian
   Martin Krupicka        : AUTO-CI
   Lucas Lang             : DCDCAS
   Dagmar Lenk            : GEPOL surface, SMD
   Dimitrios Liakos       : Extrapolation schemes; Compound Job, initial MDCI parallelization
   Dimitrios Manganas     : Further ROCIS development; embedding schemes
   Dimitrios Pantazis     : SARC Basis sets
   Taras Petrenko         : DFT Hessian,TD-DFT gradient, ASA, ECA, R-Raman, ABS, FL, XAS/XES, NRVS
   Peter Pinski           : DLPNO-MP2, DLPNO-MP2 Gradient
   Christoph Reimann      : Effective Core Potentials
   Marius Retegan         : Local ZFS, SOC
   Christoph Riplinger    : Optimizer, TS searches, QM/MM, DLPNO-CCSD(T), (RO)-DLPNO pert. Triples
   Tobias Risthaus        : Range-separated hybrids, TD-DFT gradient, RPA, STAB
   Michael Roemelt        : Original ROCIS implementation
   Masaaki Saitow         : Open-shell DLPNO-CCSD energy and density
   Barbara Sandhoefer     : DKH picture change effects
   Avijit Sen             : IP-ROCIS
   Kantharuban Sivalingam : CASSCF convergence, NEVPT2, FIC-MRCI
   Bernardo de Souza      : ESD, SOC TD-DFT
   Georgi Stoychev        : AutoAux, RI-MP2 NMR
   Willem Van den Heuvel  : Paramagnetic NMR
   Boris Wezisla          : Elementary symmetry handling
   Frank Wennmohs         : Technical directorship


 We gratefully acknowledge several colleagues who have allowed us to
 interface, adapt or use parts of their codes:
   Stefan Grimme, W. Hujo, H. Kruse,             : VdW corrections, initial TS optimization,
                  C. Bannwarth                     DFT functionals, gCP, sTDA/sTD-DF
   Ed Valeev, F. Pavosevic, A. Kumar             : LibInt (2-el integral package), F12 methods
   Garnet Chan, S. Sharma, J. Yang, R. Olivares  : DMRG
   Ulf Ekstrom                                   : XCFun DFT Library
   Mihaly Kallay                                 : mrcc  (arbitrary order and MRCC methods)
   Andreas Klamt, Michael Diedenhofen            : otool_cosmo (COSMO solvation model)
   Jiri Pittner, Ondrej Demel                    : Mk-CCSD
   Frank Weinhold                                : gennbo (NPA and NBO analysis)
   Christopher J. Cramer and Donald G. Truhlar   : smd solvation model
   Lars Goerigk                                  : TD-DFT with DH, B97 family of functionals
   V. Asgeirsson, H. Jonsson                     : NEB implementation
   FAccTs GmbH                                   : IRC, NEB, NEB-TS, Multilevel, MM, QM/MM, CI optimization
   S Lehtola, MJT Oliveira, MAL Marques          : LibXC Library


 Your calculation uses the libint2 library for the computation of 2-el integrals
 For citations please refer to: http://libint.valeyev.net

 Your ORCA version has been built with support for libXC version: 4.2.3
 For citations please refer to: https://tddft.org/programs/libxc/

 This ORCA versions uses:
   CBLAS   interface :  Fast vector & matrix operations
   LAPACKE interface :  Fast linear algebra routines
   SCALAPACK package :  Parallel linear algebra routines


----- Orbital basis set information -----
Your calculation utilizes the basis: cc-pVTZ 
       H, B-Ne : Obtained from the ccRepo (grant-hill.group.shef.ac.uk/ccrepo) Feb. 2017
                 T. H. Dunning, Jr., J. Chem. Phys. 90, 1007 (1989)
            He : Obtained from the ccRepo (grant-hill.group.shef.ac.uk/ccrepo) Feb. 2017
                 D. E. Woon, T. H. Dunning, Jr., J. Chem. Phys. 100, 2975 (1994)
  Li-Be, Na-Mg : Obtained from the ccRepo (grant-hill.group.shef.ac.uk/ccrepo) Feb. 2017
                 B. P. Prascher, D. E. Woon, K. A. Peterson, T. H. Dunning, Jr., A. K. Wilson, Theor. Chem. Acc. 128, 69 (2011)
         Al-Ar : Obtained from the ccRepo (grant-hill.group.shef.ac.uk/ccrepo) Feb. 2017
                 D. E. Woon, T. H. Dunning, Jr., J. Chem. Phys. 98, 1358 (1993)
            Ca : Obtained from the Peterson Research Group Website (tyr0.chem.wsu.edu/~kipeters) Feb. 2017
                 J. Koput, K. A. Peterson, J. Phys. Chem. 106, 9595 (2002)
         Sc-Zn : Obtained from the ccRepo (grant-hill.group.shef.ac.uk/ccrepo) Feb. 2017
                 N. B. Balabanov, K. A. Peterson, J. Chem. Phys. 123, 064107 (2005)
                 N. B. Balabanov, K. A. Peterson, J. Chem. Phys. 125, 074110 (2006)
         Ga-Kr : Obtained from the ccRepo (grant-hill.group.shef.ac.uk/ccrepo) Feb. 2017
                 A. K. Wilson, D. E. Woon, K. A. Peterson, T. H. Dunning, Jr., J. Chem. Phys. 110, 7667 (1999)
             Y : Obtained from the ccRepo (grant-hill.group.shef.ac.uk/ccrepo) Feb. 2017
                 K. A. Peterson, D. Figgen, M. Dolg, H. Stoll, J. Chem. Phys. 126, 124101 (2007)
        Ag, Au : Obtained from the Peterson Research Group Website (tyr0.chem.wsu.edu/~kipeters) Feb. 2017
                 K. A. Peterson, C. Puzzarini, Theor. Chem. Acc. 114, 283 (2005)

----- AuxC basis set information -----
Your calculation utilizes the auxiliary basis: cc-pVTZ/C 
  Obtained from the EMSL Basis Set Exchange (bse.pnl.gov) Feb. 2017
  H-He, B-F, Al-Ar, Ga-Kr : F. Weigend, A. Kohn, C. Hattig, J. Chem. Phys. 116, 3175 (2002)
             Li-Be, Na-Mg : C. Haettig, Phys. Chem. Chem. Phys. 7, 59 (2005)
                       Ne : C. Haettig, Phys. Chem. Chem. Phys. 7, 59 (2005)
                            F. Weigend, A. Kohn, C. Hattig, J. Chem. Phys. 116, 3175 (2002)
                    Sc-Zn : J. G. Hill, J. A. Platts, J. Chem. Phys. 128, 044104 (2008)

================================================================================
                                        WARNINGS
                       Please study these warnings very carefully!
================================================================================


WARNING: No MP2 level density has been requested!
         To caclulate MP2 level properties use
         %mp2 Density relaxed end
         or
         %mp2 Density unrelaxed end

WARNING: Post HF methods need fully converged wavefunctions
  ===> : Setting SCFConvForced true
         You can overwrite this default with %scf ConvForced false 


INFO   : the flag for use of LIBINT has been found!

================================================================================
                                       INPUT FILE
================================================================================
NAME = CONFS/Conf170.orca
|  1> ! ri-mp2 cc-pvtz cc-pvtz/c TightSCF  NoKeepInts
|  2> 
|  3> %scf
|  4>   MaxCore 4096
|  5> end
|  6> *xyz  0  1
|  7>     C       14.8616673   14.4282033   17.2728311
|  8>     C       15.5157253   15.6641385   16.6338650
|  9>     O       16.7819419   15.2320405   16.0921366
| 10>     C       18.0133695   15.6627801   16.5217875
| 11>     O       18.9664435   14.9071710   16.4754057
| 12>     C       18.0481999   16.8888785   17.3761427
| 13>     C       17.5599034   18.0843731   16.9702373
| 14>     C       16.9430969   18.4075497   15.6261488
| 15>     N       17.6642247   19.1979170   17.8066151
| 16>     C       18.3257139   19.2115167   19.0073868
| 17>     S       18.4510328   20.5892947   19.9128135
| 18>     N       18.8732378   18.0226438   19.4244560
| 19>     C       18.7229537   16.7250138   18.7359422
| 20>     C       17.9407985   15.7302880   19.5878291
| 21>     C       18.3918151   14.4045031   19.7210543
| 22>     C       17.6603373   13.4715707   20.4747421
| 23>     C       16.4637880   13.8653554   21.0974832
| 24>     C       16.0065048   15.1827338   20.9601265
| 25>     O       14.8425554   15.5621609   21.5445944
| 26>     C       16.7369001   16.1097275   20.2099780
| 27>     H       15.4940659   14.0302254   18.0767710
| 28>     H       14.7164741   13.6372447   16.5264181
| 29>     H       13.8846384   14.6841419   17.7001676
| 30>     H       14.8743433   16.0418411   15.8272611
| 31>     H       15.6083613   16.4417459   17.3998986
| 32>     H       17.1407125   17.6260902   14.8817909
| 33>     H       17.3557419   19.3388179   15.2174262
| 34>     H       15.8562390   18.5286028   15.7083300
| 35>     H       17.2810059   20.0831850   17.5138484
| 36>     H       19.3354458   18.0581064   20.3243793
| 37>     H       19.7298690   16.3164148   18.5641580
| 38>     H       19.3056314   14.0910538   19.2205768
| 39>     H       18.0182161   12.4473101   20.5654188
| 40>     H       15.8938211   13.1460901   21.6763540
| 41>     H       14.5199901   14.8099012   22.0639321
| 42>     H       16.3622341   17.1233686   20.1156934
| 43> *
| 44> 
| 45>                          ****END OF INPUT****
================================================================================

                       ****************************
                       * Single Point Calculation *
                       ****************************

---------------------------------
CARTESIAN COORDINATES (ANGSTROEM)
---------------------------------
  C     14.861667   14.428203   17.272831
  C     15.515725   15.664138   16.633865
  O     16.781942   15.232040   16.092137
  C     18.013369   15.662780   16.521787
  O     18.966444   14.907171   16.475406
  C     18.048200   16.888879   17.376143
  C     17.559903   18.084373   16.970237
  C     16.943097   18.407550   15.626149
  N     17.664225   19.197917   17.806615
  C     18.325714   19.211517   19.007387
  S     18.451033   20.589295   19.912813
  N     18.873238   18.022644   19.424456
  C     18.722954   16.725014   18.735942
  C     17.940798   15.730288   19.587829
  C     18.391815   14.404503   19.721054
  C     17.660337   13.471571   20.474742
  C     16.463788   13.865355   21.097483
  C     16.006505   15.182734   20.960127
  O     14.842555   15.562161   21.544594
  C     16.736900   16.109728   20.209978
  H     15.494066   14.030225   18.076771
  H     14.716474   13.637245   16.526418
  H     13.884638   14.684142   17.700168
  H     14.874343   16.041841   15.827261
  H     15.608361   16.441746   17.399899
  H     17.140712   17.626090   14.881791
  H     17.355742   19.338818   15.217426
  H     15.856239   18.528603   15.708330
  H     17.281006   20.083185   17.513848
  H     19.335446   18.058106   20.324379
  H     19.729869   16.316415   18.564158
  H     19.305631   14.091054   19.220577
  H     18.018216   12.447310   20.565419
  H     15.893821   13.146090   21.676354
  H     14.519990   14.809901   22.063932
  H     16.362234   17.123369   20.115693

----------------------------
CARTESIAN COORDINATES (A.U.)
----------------------------
  NO LB      ZA    FRAG     MASS         X           Y           Z
   0 C     6.0000    0    12.011   28.084481   27.265353   32.640920
   1 C     6.0000    0    12.011   29.320472   29.600932   31.433449
   2 O     8.0000    0    15.999   31.713274   28.784385   30.409731
   3 C     6.0000    0    12.011   34.040335   29.598365   31.221654
   4 O     8.0000    0    15.999   35.841384   28.170471   31.134005
   5 C     6.0000    0    12.011   34.106155   31.915355   32.836151
   6 C     6.0000    0    12.011   33.183408   34.174512   32.069101
   7 C     6.0000    0    12.011   32.017813   34.785228   29.529142
   8 N     7.0000    0    14.007   33.380547   36.278805   33.649626
   9 C     6.0000    0    12.011   34.630580   36.304505   35.918756
  10 S    16.0000    0    32.060   34.867399   38.908128   37.629764
  11 N     7.0000    0    14.007   35.665251   34.057861   36.706902
  12 C     6.0000    0    12.011   35.381255   31.605696   35.405800
  13 C     6.0000    0    12.011   33.903196   29.725936   37.015633
  14 C     6.0000    0    12.011   34.755494   27.220566   37.267392
  15 C     6.0000    0    12.011   33.373201   25.457579   38.691655
  16 C     6.0000    0    12.011   31.112050   26.201724   39.868465
  17 C     6.0000    0    12.011   30.247910   28.691209   39.608899
  18 O     8.0000    0    15.999   28.048365   29.408222   40.713383
  19 C     6.0000    0    12.011   31.628158   30.442973   38.191324
  20 H     1.0000    0     1.008   29.279541   26.513284   34.160147
  21 H     1.0000    0     1.008   27.810106   25.770658   31.230404
  22 H     1.0000    0     1.008   26.238164   27.749007   33.448469
  23 H     1.0000    0     1.008   28.108435   30.314686   29.909189
  24 H     1.0000    0     1.008   29.495528   31.070397   32.881043
  25 H     1.0000    0     1.008   32.391252   33.308483   28.122509
  26 H     1.0000    0     1.008   32.797599   36.545070   28.756768
  27 H     1.0000    0     1.008   29.963949   35.013985   29.684442
  28 H     1.0000    0     1.008   32.656368   37.951720   33.096377
  29 H     1.0000    0     1.008   36.538697   34.124876   38.407511
  30 H     1.0000    0     1.008   37.284049   30.833555   35.081175
  31 H     1.0000    0     1.008   36.482356   26.628233   36.321626
  32 H     1.0000    0     1.008   34.049494   23.522007   38.863009
  33 H     1.0000    0     1.008   30.034969   24.842510   40.962373
  34 H     1.0000    0     1.008   27.438805   27.986657   41.694789
  35 H     1.0000    0     1.008   30.920141   32.358477   38.013152

--------------------------------
INTERNAL COORDINATES (ANGSTROEM)
--------------------------------
 C      0   0   0     0.000000000000     0.00000000     0.00000000
 C      1   0   0     1.537402147427     0.00000000     0.00000000
 O      2   1   0     1.443427455429   106.76983259     0.00000000
 C      3   2   1     1.373517540085   125.11372100   244.46976718
 O      4   3   2     1.217146841121   119.69797557   147.92149468
 C      4   3   2     1.494808767373   117.18763610   344.87302074
 C      6   4   3     1.353661702306   122.99800237   301.43529886
 C      7   6   4     1.513759316755   126.99730806   358.49290908
 N      7   6   4     1.396563917332   119.84502402   181.99901056
 C      9   7   6     1.370987085671   124.64422102     5.04741939
 S     10   9   7     1.653413001356   121.63175437   177.66974233
 N     10   9   7     1.373735022126   116.71983636   357.34383604
 C     12  10   9     1.476644906673   125.33738686   355.35993477
 C     13  12  10     1.525436811036   111.39727594   245.20625737
 C     14  13  12     1.406723330459   120.20327748   225.11159992
 C     15  14  13     1.404801742144   120.64778345   181.66652656
 C     16  15  14     1.405205712668   119.67240850     0.24072252
 C     17  16  15     1.401235396650   119.86151933     0.17410321
 O     18  17  16     1.356593474887   120.04767897   179.10335186
 C     18  17  16     1.398398150082   120.35513655   359.78696814
 H      1   2   3     1.097558090026   110.53640338    60.58896957
 H      1   2   3     1.097191386591   110.67660886   300.66807417
 H      1   2   3     1.096679772147   110.69243021   180.47284504
 H      2   1   3     1.097560921073   109.47998281   118.88580372
 H      2   1   3     1.095473492769   108.42084381   237.21250113
 H      8   7   6     1.097177997772   112.14415678   345.87752921
 H      8   7   6     1.097538391177   111.01498333   226.87956328
 H      8   7   6     1.096662070761   111.15251752   106.80597515
 H      9   7   6     1.008101394269   119.85932527   181.46406528
 H     12  10   9     1.012302216310   114.93327960   181.42637502
 H     13  12  10     1.100155159759   107.82033572   126.48572893
 H     15  14  13     1.088020414249   119.81708852     0.47039267
 H     16  15  14     1.088765023375   119.88664508   179.68669280
 H     17  16  15     1.085032829905   119.86545878   179.70270016
 H     19  18  17     0.969357867688   107.41425546     4.51202064
 H     20  18  17     1.084773007114   119.05541096   179.86292978

---------------------------
INTERNAL COORDINATES (A.U.)
---------------------------
 C      0   0   0     0.000000000000     0.00000000     0.00000000
 C      1   0   0     2.905269016339     0.00000000     0.00000000
 O      2   1   0     2.727682584944   106.76983259     0.00000000
 C      3   2   1     2.595571990898   125.11372100   244.46976718
 O      4   3   2     2.300074194485   119.69797557   147.92149468
 C      4   3   2     2.824779192918   117.18763610   344.87302074
 C      6   4   3     2.558049895336   122.99800237   301.43529886
 C      7   6   4     2.860590541338   126.99730806   358.49290908
 N      7   6   4     2.639123332274   119.84502402   181.99901056
 C      9   7   6     2.590790125062   124.64422102     5.04741939
 S     10   9   7     3.124497758828   121.63175437   177.66974233
 N     10   9   7     2.595982972394   116.71983636   357.34383604
 C     12  10   9     2.790454470662   125.33738686   355.35993477
 C     13  12  10     2.882657807461   111.39727594   245.20625737
 C     14  13  12     2.658321840766   120.20327748   225.11159992
 C     15  14  13     2.654690565108   120.64778345   181.66652656
 C     16  15  14     2.655453958763   119.67240850     0.24072252
 C     17  16  15     2.647951148824   119.86151933     0.17410321
 O     18  17  16     2.563590142600   120.04767897   179.10335186
 C     18  17  16     2.642589529838   120.35513655   359.78696814
 H      1   2   3     2.074084206220   110.53640338    60.58896957
 H      1   2   3     2.073391237154   110.67660886   300.66807417
 H      1   2   3     2.072424425970   110.69243021   180.47284504
 H      2   1   3     2.074089556122   109.47998281   118.88580372
 H      2   1   3     2.070144888304   108.42084381   237.21250113
 H      8   7   6     2.073365935954   112.14415678   345.87752921
 H      8   7   6     2.074046980789   111.01498333   226.87956328
 H      8   7   6     2.072390975197   111.15251752   106.80597515
 H      9   7   6     1.905035550392   119.85932527   181.46406528
 H     12  10   9     1.912973953587   114.93327960   181.42637502
 H     13  12  10     2.078991956765   107.82033572   126.48572893
 H     15  14  13     2.056060611046   119.81708852     0.47039267
 H     16  15  14     2.057467718371   119.88664508   179.68669280
 H     17  16  15     2.050414894835   119.86545878   179.70270016
 H     19  18  17     1.831820895693   107.41425546     4.51202064
 H     20  18  17     2.049923900915   119.05541096   179.86292978

---------------------
BASIS SET INFORMATION
---------------------
There are 5 groups of distinct atoms

 Group   1 Type C   : 18s5p2d1f contracted to 4s3p2d1f pattern {8811/311/11/1}
 Group   2 Type O   : 18s5p2d1f contracted to 4s3p2d1f pattern {8811/311/11/1}
 Group   3 Type N   : 18s5p2d1f contracted to 4s3p2d1f pattern {8811/311/11/1}
 Group   4 Type S   : 41s16p2d1f contracted to 5s4p2d1f pattern {13131311/7711/11/1}
 Group   5 Type H   : 5s2p1d contracted to 3s2p1d pattern {311/11/1}

Atom   0C    basis set group =>   1
Atom   1C    basis set group =>   1
Atom   2O    basis set group =>   2
Atom   3C    basis set group =>   1
Atom   4O    basis set group =>   2
Atom   5C    basis set group =>   1
Atom   6C    basis set group =>   1
Atom   7C    basis set group =>   1
Atom   8N    basis set group =>   3
Atom   9C    basis set group =>   1
Atom  10S    basis set group =>   4
Atom  11N    basis set group =>   3
Atom  12C    basis set group =>   1
Atom  13C    basis set group =>   1
Atom  14C    basis set group =>   1
Atom  15C    basis set group =>   1
Atom  16C    basis set group =>   1
Atom  17C    basis set group =>   1
Atom  18O    basis set group =>   2
Atom  19C    basis set group =>   1
Atom  20H    basis set group =>   5
Atom  21H    basis set group =>   5
Atom  22H    basis set group =>   5
Atom  23H    basis set group =>   5
Atom  24H    basis set group =>   5
Atom  25H    basis set group =>   5
Atom  26H    basis set group =>   5
Atom  27H    basis set group =>   5
Atom  28H    basis set group =>   5
Atom  29H    basis set group =>   5
Atom  30H    basis set group =>   5
Atom  31H    basis set group =>   5
Atom  32H    basis set group =>   5
Atom  33H    basis set group =>   5
Atom  34H    basis set group =>   5
Atom  35H    basis set group =>   5
---------------------------------
AUXILIARY/C BASIS SET INFORMATION
---------------------------------
There are 5 groups of distinct atoms

 Group   1 Type C   : 8s6p5d3f1g contracted to 8s6p5d3f1g pattern {11111111/111111/11111/111/1}
 Group   2 Type O   : 8s6p5d3f1g contracted to 8s6p5d3f1g pattern {11111111/111111/11111/111/1}
 Group   3 Type N   : 8s6p5d3f1g contracted to 8s6p5d3f1g pattern {11111111/111111/11111/111/1}
 Group   4 Type S   : 10s8p7d5f2g contracted to 10s8p7d5f2g pattern {1111111111/11111111/1111111/11111/11}
 Group   5 Type H   : 4s3p2d1f contracted to 4s3p2d1f pattern {1111/111/11/1}

Atom   0C    basis set group =>   1
Atom   1C    basis set group =>   1
Atom   2O    basis set group =>   2
Atom   3C    basis set group =>   1
Atom   4O    basis set group =>   2
Atom   5C    basis set group =>   1
Atom   6C    basis set group =>   1
Atom   7C    basis set group =>   1
Atom   8N    basis set group =>   3
Atom   9C    basis set group =>   1
Atom  10S    basis set group =>   4
Atom  11N    basis set group =>   3
Atom  12C    basis set group =>   1
Atom  13C    basis set group =>   1
Atom  14C    basis set group =>   1
Atom  15C    basis set group =>   1
Atom  16C    basis set group =>   1
Atom  17C    basis set group =>   1
Atom  18O    basis set group =>   2
Atom  19C    basis set group =>   1
Atom  20H    basis set group =>   5
Atom  21H    basis set group =>   5
Atom  22H    basis set group =>   5
Atom  23H    basis set group =>   5
Atom  24H    basis set group =>   5
Atom  25H    basis set group =>   5
Atom  26H    basis set group =>   5
Atom  27H    basis set group =>   5
Atom  28H    basis set group =>   5
Atom  29H    basis set group =>   5
Atom  30H    basis set group =>   5
Atom  31H    basis set group =>   5
Atom  32H    basis set group =>   5
Atom  33H    basis set group =>   5
Atom  34H    basis set group =>   5
Atom  35H    basis set group =>   5
------------------------------------------------------------------------------
                           ORCA GTO INTEGRAL CALCULATION
------------------------------------------------------------------------------

                         BASIS SET STATISTICS AND STARTUP INFO

 # of primitive gaussian shells          ...  682
 # of primitive gaussian functions       ... 1312
 # of contracted shells                  ...  298
 # of contracted basis functions         ...  828
 Highest angular momentum                ...    3
 Maximum contraction depth               ...   13
 Integral package used                   ... LIBINT
 Integral threshhold            Thresh   ...  2.500e-11
 Primitive cut-off              TCut     ...  2.500e-12


------------------------------ INTEGRAL EVALUATION ----------------------------


 * One electron integrals 
 Pre-screening matrix                    ... done
 Shell pair data                         ... done (   0.015 sec)

-------------------------------------------------------------------------------
                                 ORCA SCF
-------------------------------------------------------------------------------

------------
SCF SETTINGS
------------
Hamiltonian:
 Ab initio Hamiltonian  Method          .... Hartree-Fock(GTOs)


General Settings:
 Integral files         IntName         .... CONFS/Conf170.orca
 Hartree-Fock type      HFTyp           .... RHF
 Total Charge           Charge          ....    0
 Multiplicity           Mult            ....    1
 Number of Electrons    NEL             ....  154
 Basis Dimension        Dim             ....  828
 Nuclear Repulsion      ENuc            ....   1735.9232403367 Eh

Convergence Acceleration:
 DIIS                   CNVDIIS         .... on
   Start iteration      DIISMaxIt       ....    12
   Startup error        DIISStart       ....  0.200000
   # of expansion vecs  DIISMaxEq       ....     5
   Bias factor          DIISBfac        ....   1.050
   Max. coefficient     DIISMaxC        ....  10.000
 Newton-Raphson         CNVNR           .... off
 SOSCF                  CNVSOSCF        .... on
   Start iteration      SOSCFMaxIt      ....   150
   Startup grad/error   SOSCFStart      ....  0.003300
 Level Shifting         CNVShift        .... on
   Level shift para.    LevelShift      ....    0.2500
   Turn off err/grad.   ShiftErr        ....    0.0010
 Zerner damping         CNVZerner       .... off
 Static damping         CNVDamp         .... on
   Fraction old density DampFac         ....    0.7000
   Max. Damping (<1)    DampMax         ....    0.9800
   Min. Damping (>=0)   DampMin         ....    0.0000
   Turn off err/grad.   DampErr         ....    0.1000
 Fernandez-Rico         CNVRico         .... off

SCF Procedure:
 Maximum # iterations   MaxIter         ....   125
 SCF integral mode      SCFMode         .... Direct
   Integral package                     .... LIBINT
 Reset frequency        DirectResetFreq ....    20
 Integral Threshold     Thresh          ....  2.500e-11 Eh
 Primitive CutOff       TCut            ....  2.500e-12 Eh

Convergence Tolerance:
 Convergence Check Mode ConvCheckMode   .... Total+1el-Energy
 Convergence forced     ConvForced      .... 1
 Energy Change          TolE            ....  1.000e-08 Eh
 1-El. energy change                    ....  1.000e-05 Eh
 Orbital Gradient       TolG            ....  1.000e-05
 Orbital Rotation angle TolX            ....  1.000e-05
 DIIS Error             TolErr          ....  5.000e-07


Diagonalization of the overlap matrix:
Smallest eigenvalue                        ... 3.358e-05
Time for diagonalization                   ...    0.117 sec
Threshold for overlap eigenvalues          ... 1.000e-08
Number of eigenvalues below threshold      ... 0
Time for construction of square roots      ...    0.085 sec
Total time needed                          ...    0.204 sec

-------------------
DFT GRID GENERATION
-------------------

General Integration Accuracy     IntAcc      ...  4.340
Radial Grid Type                 RadialGrid  ... Gauss-Chebyshev
Angular Grid (max. acc.)         AngularGrid ... Lebedev-110
Angular grid pruning method      GridPruning ... 3 (G Style)
Weight generation scheme         WeightScheme... Becke
Basis function cutoff            BFCut       ...    1.0000e-11
Integration weight cutoff        WCut        ...    1.0000e-14
Grids for H and He will be reduced by one unit

# of grid points (after initial pruning)     ...  46246 (   0.0 sec)
# of grid points (after weights+screening)   ...  41069 (   0.3 sec)
nearest neighbour list constructed           ...    0.0 sec
Grid point re-assignment to atoms done       ...    0.0 sec
Grid point division into batches done        ...    0.0 sec
Reduced shell lists constructed in    1.0 sec

Total number of grid points                  ...    41069
Total number of batches                      ...      661
Average number of points per batch           ...       62
Average number of grid points per atom       ...     1141
Average number of shells per batch           ...   156.02 (52.36%)
Average number of basis functions per batch  ...   397.38 (47.99%)
Average number of large shells per batch     ...   100.64 (64.50%)
Average number of large basis fcns per batch ...   256.61 (64.58%)
Maximum spatial batch extension              ...  21.71, 20.91, 18.16 au
Average spatial batch extension              ...   3.50,  3.37,  3.33 au

Time for grid setup =    1.369 sec

------------------------------
INITIAL GUESS: MODEL POTENTIAL
------------------------------
Loading Hartree-Fock densities                     ... done
Calculating cut-offs                               ... done
Setting up the integral package                    ... done
Initializing the effective Hamiltonian             ... done
Starting the Coulomb interaction                   ... done (   3.3 sec)
Reading the grid                                   ... done
Mapping shells                                     ... done
Starting the XC term evaluation                    ... done (   1.5 sec)
Transforming the Hamiltonian                       ... done (   0.1 sec)
Diagonalizing the Hamiltonian                      ... done (   0.1 sec)
Back transforming the eigenvectors                 ... done (   0.0 sec)
Now organizing SCF variables                       ... done
                      ------------------
                      INITIAL GUESS DONE (   7.3 sec)
                      ------------------
--------------
SCF ITERATIONS
--------------
ITER       Energy         Delta-E        Max-DP      RMS-DP      [F,P]     Damp
               ***  Starting incremental Fock matrix formation  ***
  0  -1270.0007649719   0.000000000000 0.04927685  0.00044913  0.3196450 0.7000
  1  -1270.2679609141  -0.267195942192 0.03606864  0.00036575  0.1890051 0.7000
                               ***Turning on DIIS***
  2  -1270.4343405410  -0.166379626896 0.02583992  0.00024376  0.1098750 0.7000
  3  -1272.5511328405  -2.116792299470 0.06318679  0.00052055  0.0830578 0.0000
  4  -1270.7462622481   1.804870592419 0.01308958  0.00010354  0.0066647 0.0000
  5  -1270.8015318138  -0.055269565781 0.00662002  0.00005521  0.0038713 0.0000
                      *** Initiating the SOSCF procedure ***
                           *** Shutting down DIIS ***
                      *** Re-Reading the Fockian *** 
                      *** Removing any level shift *** 
ITER      Energy       Delta-E        Grad      Rot      Max-DP    RMS-DP
  6  -1270.78103637   0.0204954432  0.001637  0.001637  0.003147  0.000028
               *** Restarting incremental Fock matrix formation ***
  7  -1270.79594776  -0.0149113854  0.000890  0.002228  0.001719  0.000018
  8  -1270.79599512  -0.0000473668  0.000450  0.002620  0.001871  0.000019
  9  -1270.79601365  -0.0000185281  0.000154  0.000315  0.000392  0.000005
 10  -1270.79601603  -0.0000023812  0.000045  0.000121  0.000126  0.000001
 11  -1270.79601626  -0.0000002230  0.000019  0.000101  0.000084  0.000001
 12  -1270.79601632  -0.0000000609  0.000009  0.000034  0.000029  0.000000
 13  -1270.79601632  -0.0000000073  0.000003  0.000009  0.000007  0.000000
                  ***Gradient check signals convergence***
              ***Rediagonalizing the Fockian in SOSCF/NRSCF***

               *****************************************************
               *                     SUCCESS                       *
               *           SCF CONVERGED AFTER  14 CYCLES          *
               *****************************************************


----------------
TOTAL SCF ENERGY
----------------

Total Energy       :        -1270.79601632 Eh          -34580.11762 eV

Components:
Nuclear Repulsion  :         1735.92324034 Eh           47236.87285 eV
Electronic Energy  :        -3006.71925665 Eh          -81816.99047 eV
One Electron Energy:        -5192.48898022 Eh         -141294.80844 eV
Two Electron Energy:         2185.76972357 Eh           59477.81797 eV

Virial components:
Potential Energy   :        -2539.78042683 Eh          -69110.93895 eV
Kinetic Energy     :         1268.98441052 Eh           34530.82132 eV
Virial Ratio       :            2.00142760


---------------
SCF CONVERGENCE
---------------

  Last Energy change         ...    5.4160e-09  Tolerance :   1.0000e-08
  Last MAX-Density change    ...    3.8909e-06  Tolerance :   1.0000e-07
  Last RMS-Density change    ...    3.8155e-08  Tolerance :   5.0000e-09
  Last Orbital Gradient      ...    1.7081e-06  Tolerance :   1.0000e-05
  Last Orbital Rotation      ...    4.0846e-06  Tolerance :   1.0000e-05

             **** THE GBW FILE WAS UPDATED (CONFS/Conf170.orca.gbw) ****
             **** DENSITY FILE WAS UPDATED (CONFS/Conf170.orca.scfp) ****
             **** ENERGY FILE WAS UPDATED (CONFS/Conf170.orca.en.tmp) ****
             **** THE GBW FILE WAS UPDATED (CONFS/Conf170.orca.gbw) ****
             **** DENSITY FILE WAS UPDATED (CONFS/Conf170.orca.scfp) ****
----------------
ORBITAL ENERGIES
----------------

  NO   OCC          E(Eh)            E(eV) 
   0   2.0000     -91.890994     -2500.4811 
   1   2.0000     -20.600617      -560.5713 
   2   2.0000     -20.600423      -560.5660 
   3   2.0000     -20.548279      -559.1471 
   4   2.0000     -15.628915      -425.2844 
   5   2.0000     -15.612135      -424.8278 
   6   2.0000     -11.397647      -310.1457 
   7   2.0000     -11.387665      -309.8741 
   8   2.0000     -11.331932      -308.3575 
   9   2.0000     -11.317356      -307.9609 
  10   2.0000     -11.314223      -307.8757 
  11   2.0000     -11.304020      -307.5980 
  12   2.0000     -11.268919      -306.6429 
  13   2.0000     -11.264543      -306.5238 
  14   2.0000     -11.263902      -306.5064 
  15   2.0000     -11.257334      -306.3276 
  16   2.0000     -11.246614      -306.0359 
  17   2.0000     -11.243099      -305.9403 
  18   2.0000     -11.239903      -305.8533 
  19   2.0000     -11.226614      -305.4917 
  20   2.0000      -8.896096      -242.0751 
  21   2.0000      -6.577679      -178.9877 
  22   2.0000      -6.575658      -178.9327 
  23   2.0000      -6.575078      -178.9170 
  24   2.0000      -1.446864       -39.3712 
  25   2.0000      -1.420381       -38.6505 
  26   2.0000      -1.358517       -36.9671 
  27   2.0000      -1.341574       -36.5061 
  28   2.0000      -1.240873       -33.7659 
  29   2.0000      -1.162176       -31.6244 
  30   2.0000      -1.126347       -30.6494 
  31   2.0000      -1.049557       -28.5599 
  32   2.0000      -1.037448       -28.2304 
  33   2.0000      -1.019398       -27.7392 
  34   2.0000      -1.005771       -27.3684 
  35   2.0000      -0.990135       -26.9430 
  36   2.0000      -0.928463       -25.2648 
  37   2.0000      -0.883206       -24.0333 
  38   2.0000      -0.855690       -23.2845 
  39   2.0000      -0.842643       -22.9295 
  40   2.0000      -0.837654       -22.7937 
  41   2.0000      -0.836091       -22.7512 
  42   2.0000      -0.754187       -20.5225 
  43   2.0000      -0.741043       -20.1648 
  44   2.0000      -0.731779       -19.9127 
  45   2.0000      -0.698740       -19.0137 
  46   2.0000      -0.688971       -18.7479 
  47   2.0000      -0.680468       -18.5165 
  48   2.0000      -0.677607       -18.4386 
  49   2.0000      -0.659526       -17.9466 
  50   2.0000      -0.657760       -17.8986 
  51   2.0000      -0.648274       -17.6404 
  52   2.0000      -0.640808       -17.4373 
  53   2.0000      -0.612342       -16.6627 
  54   2.0000      -0.609205       -16.5773 
  55   2.0000      -0.605979       -16.4895 
  56   2.0000      -0.599947       -16.3254 
  57   2.0000      -0.583686       -15.8829 
  58   2.0000      -0.579256       -15.7624 
  59   2.0000      -0.570067       -15.5123 
  60   2.0000      -0.560674       -15.2567 
  61   2.0000      -0.558490       -15.1973 
  62   2.0000      -0.547610       -14.9012 
  63   2.0000      -0.529022       -14.3954 
  64   2.0000      -0.519243       -14.1293 
  65   2.0000      -0.514573       -14.0022 
  66   2.0000      -0.503099       -13.6900 
  67   2.0000      -0.501502       -13.6466 
  68   2.0000      -0.488956       -13.3052 
  69   2.0000      -0.471840       -12.8394 
  70   2.0000      -0.452975       -12.3261 
  71   2.0000      -0.449098       -12.2206 
  72   2.0000      -0.357573        -9.7300 
  73   2.0000      -0.353118        -9.6088 
  74   2.0000      -0.330571        -8.9953 
  75   2.0000      -0.325126        -8.8471 
  76   2.0000      -0.319200        -8.6859 
  77   0.0000       0.080896         2.2013 
  78   0.0000       0.103051         2.8041 
  79   0.0000       0.114362         3.1119 
  80   0.0000       0.127210         3.4616 
  81   0.0000       0.134842         3.6692 
  82   0.0000       0.145133         3.9493 
  83   0.0000       0.149414         4.0658 
  84   0.0000       0.153585         4.1793 
  85   0.0000       0.157626         4.2892 
  86   0.0000       0.167751         4.5647 
  87   0.0000       0.171760         4.6738 
  88   0.0000       0.189836         5.1657 
  89   0.0000       0.190686         5.1888 
  90   0.0000       0.200632         5.4595 
  91   0.0000       0.205770         5.5993 
  92   0.0000       0.209865         5.7107 
  93   0.0000       0.218761         5.9528 
  94   0.0000       0.227423         6.1885 
  95   0.0000       0.233975         6.3668 
  96   0.0000       0.243187         6.6175 
  97   0.0000       0.244031         6.6404 
  98   0.0000       0.256381         6.9765 
  99   0.0000       0.276171         7.5150 
 100   0.0000       0.284232         7.7343 
 101   0.0000       0.294445         8.0123 
 102   0.0000       0.304988         8.2991 
 103   0.0000       0.315651         8.5893 
 104   0.0000       0.318547         8.6681 
 105   0.0000       0.334757         9.1092 
 106   0.0000       0.342049         9.3076 
 107   0.0000       0.344609         9.3773 
 108   0.0000       0.351474         9.5641 
 109   0.0000       0.352478         9.5914 
 110   0.0000       0.366037         9.9604 
 111   0.0000       0.371310        10.1038 
 112   0.0000       0.381173        10.3722 
 113   0.0000       0.384699        10.4682 
 114   0.0000       0.402162        10.9434 
 115   0.0000       0.407287        11.0828 
 116   0.0000       0.416634        11.3372 
 117   0.0000       0.425514        11.5788 
 118   0.0000       0.429925        11.6989 
 119   0.0000       0.436092        11.8667 
 120   0.0000       0.442827        12.0499 
 121   0.0000       0.445741        12.1292 
 122   0.0000       0.452872        12.3233 
 123   0.0000       0.460680        12.5357 
 124   0.0000       0.469816        12.7843 
 125   0.0000       0.473002        12.8710 
 126   0.0000       0.479784        13.0556 
 127   0.0000       0.485878        13.2214 
 128   0.0000       0.490650        13.3513 
 129   0.0000       0.503473        13.7002 
 130   0.0000       0.507870        13.8198 
 131   0.0000       0.511049        13.9064 
 132   0.0000       0.514213        13.9924 
 133   0.0000       0.521364        14.1870 
 134   0.0000       0.525133        14.2896 
 135   0.0000       0.530590        14.4381 
 136   0.0000       0.533791        14.5252 
 137   0.0000       0.541977        14.7479 
 138   0.0000       0.551622        15.0104 
 139   0.0000       0.555444        15.1144 
 140   0.0000       0.558943        15.2096 
 141   0.0000       0.564056        15.3487 
 142   0.0000       0.568966        15.4823 
 143   0.0000       0.570063        15.5122 
 144   0.0000       0.574453        15.6316 
 145   0.0000       0.582850        15.8601 
 146   0.0000       0.589405        16.0385 
 147   0.0000       0.591865        16.1055 
 148   0.0000       0.595676        16.2092 
 149   0.0000       0.598030        16.2732 
 150   0.0000       0.603148        16.4125 
 151   0.0000       0.608327        16.5534 
 152   0.0000       0.610375        16.6091 
 153   0.0000       0.617516        16.8035 
 154   0.0000       0.624419        16.9913 
 155   0.0000       0.625053        17.0086 
 156   0.0000       0.626600        17.0506 
 157   0.0000       0.631520        17.1845 
 158   0.0000       0.639914        17.4129 
 159   0.0000       0.644490        17.5375 
 160   0.0000       0.651079        17.7168 
 161   0.0000       0.653322        17.7778 
 162   0.0000       0.660892        17.9838 
 163   0.0000       0.663516        18.0552 
 164   0.0000       0.669191        18.2096 
 165   0.0000       0.683298        18.5935 
 166   0.0000       0.687942        18.7199 
 167   0.0000       0.692494        18.8437 
 168   0.0000       0.695752        18.9324 
 169   0.0000       0.703929        19.1549 
 170   0.0000       0.705595        19.2002 
 171   0.0000       0.710058        19.3217 
 172   0.0000       0.714210        19.4346 
 173   0.0000       0.732355        19.9284 
 174   0.0000       0.737646        20.0724 
 175   0.0000       0.739802        20.1310 
 176   0.0000       0.743050        20.2194 
 177   0.0000       0.745257        20.2795 
 178   0.0000       0.745314        20.2810 
 179   0.0000       0.763347        20.7717 
 180   0.0000       0.772199        21.0126 
 181   0.0000       0.779675        21.2160 
 182   0.0000       0.785665        21.3790 
 183   0.0000       0.789970        21.4962 
 184   0.0000       0.802005        21.8237 
 185   0.0000       0.807068        21.9614 
 186   0.0000       0.813275        22.1304 
 187   0.0000       0.829887        22.5824 
 188   0.0000       0.835313        22.7300 
 189   0.0000       0.842505        22.9257 
 190   0.0000       0.852973        23.2106 
 191   0.0000       0.857871        23.3439 
 192   0.0000       0.863070        23.4853 
 193   0.0000       0.867120        23.5955 
 194   0.0000       0.871873        23.7249 
 195   0.0000       0.884022        24.0555 
 196   0.0000       0.887959        24.1626 
 197   0.0000       0.898809        24.4578 
 198   0.0000       0.906653        24.6713 
 199   0.0000       0.908709        24.7272 
 200   0.0000       0.919135        25.0109 
 201   0.0000       0.924619        25.1602 
 202   0.0000       0.928473        25.2650 
 203   0.0000       0.938109        25.5272 
 204   0.0000       0.947737        25.7892 
 205   0.0000       0.950898        25.8752 
 206   0.0000       0.955834        26.0096 
 207   0.0000       0.960952        26.1488 
 208   0.0000       0.971290        26.4301 
 209   0.0000       0.974426        26.5155 
 210   0.0000       0.977471        26.5983 
 211   0.0000       0.994239        27.0546 
 212   0.0000       1.002929        27.2911 
 213   0.0000       1.010582        27.4993 
 214   0.0000       1.014814        27.6145 
 215   0.0000       1.018932        27.7266 
 216   0.0000       1.031603        28.0713 
 217   0.0000       1.032703        28.1013 
 218   0.0000       1.038784        28.2667 
 219   0.0000       1.042350        28.3638 
 220   0.0000       1.053882        28.6776 
 221   0.0000       1.060642        28.8615 
 222   0.0000       1.071470        29.1562 
 223   0.0000       1.077002        29.3067 
 224   0.0000       1.082685        29.4614 
 225   0.0000       1.089439        29.6452 
 226   0.0000       1.098079        29.8803 
 227   0.0000       1.104776        30.0625 
 228   0.0000       1.108483        30.1634 
 229   0.0000       1.122482        30.5443 
 230   0.0000       1.127742        30.6874 
 231   0.0000       1.134229        30.8639 
 232   0.0000       1.139026        30.9945 
 233   0.0000       1.143220        31.1086 
 234   0.0000       1.159038        31.5390 
 235   0.0000       1.170076        31.8394 
 236   0.0000       1.171877        31.8884 
 237   0.0000       1.176278        32.0082 
 238   0.0000       1.186173        32.2774 
 239   0.0000       1.190521        32.3957 
 240   0.0000       1.200367        32.6637 
 241   0.0000       1.206032        32.8178 
 242   0.0000       1.212585        32.9961 
 243   0.0000       1.224151        33.3109 
 244   0.0000       1.226681        33.3797 
 245   0.0000       1.233083        33.5539 
 246   0.0000       1.241736        33.7894 
 247   0.0000       1.244580        33.8667 
 248   0.0000       1.247327        33.9415 
 249   0.0000       1.266384        34.4601 
 250   0.0000       1.271388        34.5962 
 251   0.0000       1.273636        34.6574 
 252   0.0000       1.284187        34.9445 
 253   0.0000       1.292714        35.1765 
 254   0.0000       1.299432        35.3594 
 255   0.0000       1.304012        35.4840 
 256   0.0000       1.312599        35.7176 
 257   0.0000       1.321553        35.9613 
 258   0.0000       1.330080        36.1933 
 259   0.0000       1.332088        36.2480 
 260   0.0000       1.335893        36.3515 
 261   0.0000       1.351466        36.7753 
 262   0.0000       1.356495        36.9121 
 263   0.0000       1.369500        37.2660 
 264   0.0000       1.379176        37.5293 
 265   0.0000       1.385150        37.6918 
 266   0.0000       1.402235        38.1568 
 267   0.0000       1.403980        38.2042 
 268   0.0000       1.411894        38.4196 
 269   0.0000       1.420591        38.6562 
 270   0.0000       1.428558        38.8730 
 271   0.0000       1.441716        39.2311 
 272   0.0000       1.442405        39.2498 
 273   0.0000       1.451516        39.4978 
 274   0.0000       1.455729        39.6124 
 275   0.0000       1.460661        39.7466 
 276   0.0000       1.477017        40.1917 
 277   0.0000       1.482584        40.3431 
 278   0.0000       1.487820        40.4857 
 279   0.0000       1.498894        40.7870 
 280   0.0000       1.501461        40.8568 
 281   0.0000       1.510854        41.1124 
 282   0.0000       1.518420        41.3183 
 283   0.0000       1.519616        41.3509 
 284   0.0000       1.532972        41.7143 
 285   0.0000       1.536875        41.8205 
 286   0.0000       1.541470        41.9455 
 287   0.0000       1.546424        42.0803 
 288   0.0000       1.549437        42.1623 
 289   0.0000       1.556693        42.3598 
 290   0.0000       1.564999        42.5858 
 291   0.0000       1.571086        42.7514 
 292   0.0000       1.583376        43.0859 
 293   0.0000       1.589825        43.2613 
 294   0.0000       1.596434        43.4412 
 295   0.0000       1.610352        43.8199 
 296   0.0000       1.615096        43.9490 
 297   0.0000       1.620933        44.1078 
 298   0.0000       1.625349        44.2280 
 299   0.0000       1.632283        44.4167 
 300   0.0000       1.638865        44.5958 
 301   0.0000       1.639681        44.6180 
 302   0.0000       1.657239        45.0958 
 303   0.0000       1.663055        45.2540 
 304   0.0000       1.675061        45.5807 
 305   0.0000       1.686121        45.8817 
 306   0.0000       1.693254        46.0758 
 307   0.0000       1.701383        46.2970 
 308   0.0000       1.710688        46.5502 
 309   0.0000       1.720786        46.8250 
 310   0.0000       1.726410        46.9780 
 311   0.0000       1.735142        47.2156 
 312   0.0000       1.739590        47.3366 
 313   0.0000       1.746198        47.5165 
 314   0.0000       1.749962        47.6189 
 315   0.0000       1.768135        48.1134 
 316   0.0000       1.784636        48.5624 
 317   0.0000       1.794558        48.8324 
 318   0.0000       1.797933        48.9242 
 319   0.0000       1.811354        49.2894 
 320   0.0000       1.829729        49.7895 
 321   0.0000       1.835210        49.9386 
 322   0.0000       1.840030        50.0698 
 323   0.0000       1.855584        50.4930 
 324   0.0000       1.858896        50.5831 
 325   0.0000       1.861571        50.6559 
 326   0.0000       1.871777        50.9337 
 327   0.0000       1.904243        51.8171 
 328   0.0000       1.907762        51.9129 
 329   0.0000       1.923271        52.3349 
 330   0.0000       1.927084        52.4386 
 331   0.0000       1.931136        52.5489 
 332   0.0000       1.943795        52.8933 
 333   0.0000       1.950404        53.0732 
 334   0.0000       1.975312        53.7510 
 335   0.0000       1.978886        53.8482 
 336   0.0000       1.993044        54.2335 
 337   0.0000       1.999908        54.4203 
 338   0.0000       2.015902        54.8555 
 339   0.0000       2.022763        55.0422 
 340   0.0000       2.027431        55.1692 
 341   0.0000       2.037533        55.4441 
 342   0.0000       2.051893        55.8348 
 343   0.0000       2.080233        56.6060 
 344   0.0000       2.088656        56.8352 
 345   0.0000       2.089924        56.8697 
 346   0.0000       2.120776        57.7093 
 347   0.0000       2.141017        58.2600 
 348   0.0000       2.157808        58.7169 
 349   0.0000       2.165914        58.9375 
 350   0.0000       2.177550        59.2541 
 351   0.0000       2.197422        59.7949 
 352   0.0000       2.211448        60.1766 
 353   0.0000       2.226666        60.5907 
 354   0.0000       2.244714        61.0818 
 355   0.0000       2.278170        61.9922 
 356   0.0000       2.287743        62.2527 
 357   0.0000       2.297630        62.5217 
 358   0.0000       2.302044        62.6418 
 359   0.0000       2.318360        63.0858 
 360   0.0000       2.323687        63.2307 
 361   0.0000       2.342650        63.7468 
 362   0.0000       2.350829        63.9693 
 363   0.0000       2.364495        64.3412 
 364   0.0000       2.369858        64.4871 
 365   0.0000       2.379312        64.7444 
 366   0.0000       2.388903        65.0054 
 367   0.0000       2.403032        65.3898 
 368   0.0000       2.408192        65.5302 
 369   0.0000       2.423427        65.9448 
 370   0.0000       2.435960        66.2859 
 371   0.0000       2.462489        67.0077 
 372   0.0000       2.468443        67.1698 
 373   0.0000       2.483969        67.5922 
 374   0.0000       2.504989        68.1642 
 375   0.0000       2.506559        68.2069 
 376   0.0000       2.525211        68.7145 
 377   0.0000       2.541249        69.1509 
 378   0.0000       2.557470        69.5923 
 379   0.0000       2.559134        69.6376 
 380   0.0000       2.578884        70.1750 
 381   0.0000       2.593817        70.5813 
 382   0.0000       2.597992        70.6950 
 383   0.0000       2.606022        70.9135 
 384   0.0000       2.622250        71.3550 
 385   0.0000       2.632901        71.6449 
 386   0.0000       2.647814        72.0507 
 387   0.0000       2.653660        72.2097 
 388   0.0000       2.661959        72.4356 
 389   0.0000       2.680197        72.9319 
 390   0.0000       2.691209        73.2315 
 391   0.0000       2.705339        73.6160 
 392   0.0000       2.711157        73.7743 
 393   0.0000       2.715898        73.9033 
 394   0.0000       2.722954        74.0953 
 395   0.0000       2.740925        74.5844 
 396   0.0000       2.749974        74.8306 
 397   0.0000       2.757984        75.0486 
 398   0.0000       2.763750        75.2055 
 399   0.0000       2.767486        75.3071 
 400   0.0000       2.777801        75.5878 
 401   0.0000       2.788782        75.8866 
 402   0.0000       2.793355        76.0111 
 403   0.0000       2.810170        76.4686 
 404   0.0000       2.815896        76.6244 
 405   0.0000       2.824352        76.8545 
 406   0.0000       2.842316        77.3433 
 407   0.0000       2.848214        77.5039 
 408   0.0000       2.857151        77.7470 
 409   0.0000       2.872840        78.1740 
 410   0.0000       2.874331        78.2145 
 411   0.0000       2.885814        78.5270 
 412   0.0000       2.892415        78.7066 
 413   0.0000       2.910316        79.1937 
 414   0.0000       2.919737        79.4501 
 415   0.0000       2.929350        79.7117 
 416   0.0000       2.939162        79.9787 
 417   0.0000       2.946694        80.1836 
 418   0.0000       2.956922        80.4619 
 419   0.0000       2.963629        80.6444 
 420   0.0000       2.971700        80.8641 
 421   0.0000       2.982034        81.1453 
 422   0.0000       2.989201        81.3403 
 423   0.0000       2.998530        81.5941 
 424   0.0000       3.002167        81.6931 
 425   0.0000       3.013812        82.0100 
 426   0.0000       3.019713        82.1706 
 427   0.0000       3.028217        82.4020 
 428   0.0000       3.034009        82.5596 
 429   0.0000       3.035454        82.5989 
 430   0.0000       3.047313        82.9216 
 431   0.0000       3.057154        83.1894 
 432   0.0000       3.062826        83.3437 
 433   0.0000       3.071753        83.5866 
 434   0.0000       3.082544        83.8803 
 435   0.0000       3.085878        83.9710 
 436   0.0000       3.096350        84.2560 
 437   0.0000       3.102868        84.4333 
 438   0.0000       3.107808        84.5678 
 439   0.0000       3.117446        84.8300 
 440   0.0000       3.122369        84.9640 
 441   0.0000       3.129994        85.1715 
 442   0.0000       3.133960        85.2794 
 443   0.0000       3.143208        85.5310 
 444   0.0000       3.150882        85.7399 
 445   0.0000       3.158592        85.9497 
 446   0.0000       3.167147        86.1824 
 447   0.0000       3.174793        86.3905 
 448   0.0000       3.179818        86.5273 
 449   0.0000       3.198150        87.0261 
 450   0.0000       3.204102        87.1880 
 451   0.0000       3.212395        87.4137 
 452   0.0000       3.214685        87.4760 
 453   0.0000       3.222795        87.6967 
 454   0.0000       3.227000        87.8111 
 455   0.0000       3.237773        88.1043 
 456   0.0000       3.240628        88.1820 
 457   0.0000       3.248929        88.4078 
 458   0.0000       3.257410        88.6386 
 459   0.0000       3.267205        88.9052 
 460   0.0000       3.271003        89.0085 
 461   0.0000       3.279706        89.2454 
 462   0.0000       3.282310        89.3162 
 463   0.0000       3.287517        89.4579 
 464   0.0000       3.303811        89.9013 
 465   0.0000       3.304661        89.9244 
 466   0.0000       3.313987        90.1782 
 467   0.0000       3.318879        90.3113 
 468   0.0000       3.323091        90.4259 
 469   0.0000       3.338427        90.8432 
 470   0.0000       3.340399        90.8969 
 471   0.0000       3.346380        91.0596 
 472   0.0000       3.354885        91.2911 
 473   0.0000       3.357217        91.3545 
 474   0.0000       3.362295        91.4927 
 475   0.0000       3.363234        91.5182 
 476   0.0000       3.369458        91.6876 
 477   0.0000       3.374961        91.8374 
 478   0.0000       3.384446        92.0955 
 479   0.0000       3.387363        92.1748 
 480   0.0000       3.397431        92.4488 
 481   0.0000       3.399987        92.5184 
 482   0.0000       3.402164        92.5776 
 483   0.0000       3.402613        92.5898 
 484   0.0000       3.412109        92.8482 
 485   0.0000       3.417268        92.9886 
 486   0.0000       3.426740        93.2463 
 487   0.0000       3.429171        93.3125 
 488   0.0000       3.436416        93.5096 
 489   0.0000       3.441732        93.6543 
 490   0.0000       3.452521        93.9479 
 491   0.0000       3.455141        94.0192 
 492   0.0000       3.458634        94.1142 
 493   0.0000       3.467286        94.3496 
 494   0.0000       3.475082        94.5618 
 495   0.0000       3.480410        94.7068 
 496   0.0000       3.486513        94.8728 
 497   0.0000       3.491788        95.0164 
 498   0.0000       3.502925        95.3194 
 499   0.0000       3.514349        95.6303 
 500   0.0000       3.517301        95.7106 
 501   0.0000       3.519971        95.7833 
 502   0.0000       3.522952        95.8644 
 503   0.0000       3.535842        96.2152 
 504   0.0000       3.542313        96.3912 
 505   0.0000       3.562421        96.9384 
 506   0.0000       3.571277        97.1794 
 507   0.0000       3.576602        97.3243 
 508   0.0000       3.579561        97.4048 
 509   0.0000       3.586815        97.6022 
 510   0.0000       3.597719        97.8989 
 511   0.0000       3.605450        98.1093 
 512   0.0000       3.605850        98.1202 
 513   0.0000       3.614411        98.3531 
 514   0.0000       3.623229        98.5931 
 515   0.0000       3.625710        98.6606 
 516   0.0000       3.629165        98.7546 
 517   0.0000       3.636216        98.9465 
 518   0.0000       3.642368        99.1139 
 519   0.0000       3.649446        99.3065 
 520   0.0000       3.652798        99.3977 
 521   0.0000       3.659442        99.5785 
 522   0.0000       3.667616        99.8009 
 523   0.0000       3.674610        99.9912 
 524   0.0000       3.677919       100.0813 
 525   0.0000       3.681108       100.1680 
 526   0.0000       3.694708       100.5381 
 527   0.0000       3.697879       100.6244 
 528   0.0000       3.703821       100.7861 
 529   0.0000       3.708199       100.9052 
 530   0.0000       3.717229       101.1509 
 531   0.0000       3.722534       101.2953 
 532   0.0000       3.737896       101.7133 
 533   0.0000       3.739345       101.7528 
 534   0.0000       3.750689       102.0614 
 535   0.0000       3.753970       102.1507 
 536   0.0000       3.761225       102.3481 
 537   0.0000       3.764099       102.4263 
 538   0.0000       3.771759       102.6348 
 539   0.0000       3.776683       102.7688 
 540   0.0000       3.781362       102.8961 
 541   0.0000       3.789582       103.1198 
 542   0.0000       3.800280       103.4109 
 543   0.0000       3.804397       103.5229 
 544   0.0000       3.812200       103.7352 
 545   0.0000       3.819956       103.9463 
 546   0.0000       3.828400       104.1761 
 547   0.0000       3.835359       104.3654 
 548   0.0000       3.847731       104.7021 
 549   0.0000       3.853352       104.8550 
 550   0.0000       3.860534       105.0505 
 551   0.0000       3.863539       105.1322 
 552   0.0000       3.877381       105.5089 
 553   0.0000       3.889650       105.8428 
 554   0.0000       3.898406       106.0810 
 555   0.0000       3.900556       106.1395 
 556   0.0000       3.911728       106.4435 
 557   0.0000       3.916092       106.5623 
 558   0.0000       3.923983       106.7770 
 559   0.0000       3.925197       106.8100 
 560   0.0000       3.945387       107.3594 
 561   0.0000       3.955414       107.6323 
 562   0.0000       3.959302       107.7381 
 563   0.0000       3.973084       108.1131 
 564   0.0000       3.979815       108.2963 
 565   0.0000       3.991990       108.6276 
 566   0.0000       3.997742       108.7841 
 567   0.0000       4.007333       109.0451 
 568   0.0000       4.015981       109.2804 
 569   0.0000       4.026229       109.5593 
 570   0.0000       4.037352       109.8619 
 571   0.0000       4.047945       110.1502 
 572   0.0000       4.051192       110.2385 
 573   0.0000       4.057476       110.4095 
 574   0.0000       4.067117       110.6719 
 575   0.0000       4.080481       111.0355 
 576   0.0000       4.088304       111.2484 
 577   0.0000       4.088969       111.2665 
 578   0.0000       4.098382       111.5226 
 579   0.0000       4.104615       111.6923 
 580   0.0000       4.115506       111.9886 
 581   0.0000       4.120600       112.1272 
 582   0.0000       4.125780       112.2682 
 583   0.0000       4.129219       112.3618 
 584   0.0000       4.137560       112.5887 
 585   0.0000       4.149002       112.9001 
 586   0.0000       4.156746       113.1108 
 587   0.0000       4.166556       113.3778 
 588   0.0000       4.175722       113.6272 
 589   0.0000       4.179988       113.7433 
 590   0.0000       4.184571       113.8680 
 591   0.0000       4.188722       113.9809 
 592   0.0000       4.197096       114.2088 
 593   0.0000       4.200062       114.2895 
 594   0.0000       4.209171       114.5374 
 595   0.0000       4.210281       114.5676 
 596   0.0000       4.230169       115.1087 
 597   0.0000       4.236164       115.2719 
 598   0.0000       4.238850       115.3450 
 599   0.0000       4.255842       115.8074 
 600   0.0000       4.263370       116.0122 
 601   0.0000       4.268856       116.1615 
 602   0.0000       4.271990       116.2468 
 603   0.0000       4.277479       116.3961 
 604   0.0000       4.298107       116.9574 
 605   0.0000       4.304707       117.1370 
 606   0.0000       4.311930       117.3336 
 607   0.0000       4.320578       117.5689 
 608   0.0000       4.331375       117.8627 
 609   0.0000       4.336252       117.9954 
 610   0.0000       4.348426       118.3267 
 611   0.0000       4.353957       118.4772 
 612   0.0000       4.358723       118.6069 
 613   0.0000       4.368509       118.8732 
 614   0.0000       4.378285       119.1392 
 615   0.0000       4.379675       119.1770 
 616   0.0000       4.392883       119.5364 
 617   0.0000       4.403556       119.8268 
 618   0.0000       4.408638       119.9651 
 619   0.0000       4.410659       120.0201 
 620   0.0000       4.414117       120.1142 
 621   0.0000       4.422227       120.3349 
 622   0.0000       4.429420       120.5307 
 623   0.0000       4.442824       120.8954 
 624   0.0000       4.450828       121.1132 
 625   0.0000       4.454814       121.2217 
 626   0.0000       4.464572       121.4872 
 627   0.0000       4.478965       121.8788 
 628   0.0000       4.491348       122.2158 
 629   0.0000       4.500723       122.4709 
 630   0.0000       4.504028       122.5608 
 631   0.0000       4.515362       122.8693 
 632   0.0000       4.524285       123.1121 
 633   0.0000       4.531858       123.3181 
 634   0.0000       4.538730       123.5051 
 635   0.0000       4.542316       123.6027 
 636   0.0000       4.557128       124.0058 
 637   0.0000       4.568205       124.3072 
 638   0.0000       4.569557       124.3440 
 639   0.0000       4.585088       124.7666 
 640   0.0000       4.593084       124.9842 
 641   0.0000       4.603664       125.2721 
 642   0.0000       4.614357       125.5630 
 643   0.0000       4.623264       125.8054 
 644   0.0000       4.624621       125.8423 
 645   0.0000       4.629854       125.9847 
 646   0.0000       4.640169       126.2654 
 647   0.0000       4.644014       126.3701 
 648   0.0000       4.645511       126.4108 
 649   0.0000       4.660045       126.8063 
 650   0.0000       4.665404       126.9521 
 651   0.0000       4.673862       127.1823 
 652   0.0000       4.684636       127.4754 
 653   0.0000       4.689503       127.6079 
 654   0.0000       4.697961       127.8380 
 655   0.0000       4.705863       128.0530 
 656   0.0000       4.716719       128.3484 
 657   0.0000       4.722916       128.5171 
 658   0.0000       4.732038       128.7653 
 659   0.0000       4.744768       129.1117 
 660   0.0000       4.774016       129.9076 
 661   0.0000       4.778761       130.0367 
 662   0.0000       4.794355       130.4610 
 663   0.0000       4.803873       130.7200 
 664   0.0000       4.819787       131.1531 
 665   0.0000       4.825392       131.3056 
 666   0.0000       4.848616       131.9375 
 667   0.0000       4.861254       132.2815 
 668   0.0000       4.890776       133.0848 
 669   0.0000       4.905195       133.4772 
 670   0.0000       4.910024       133.6085 
 671   0.0000       4.921403       133.9182 
 672   0.0000       4.937131       134.3462 
 673   0.0000       4.965573       135.1201 
 674   0.0000       4.977766       135.4519 
 675   0.0000       4.998225       136.0086 
 676   0.0000       5.014864       136.4614 
 677   0.0000       5.020953       136.6271 
 678   0.0000       5.023633       136.7000 
 679   0.0000       5.031559       136.9157 
 680   0.0000       5.047865       137.3594 
 681   0.0000       5.063985       137.7980 
 682   0.0000       5.090227       138.5121 
 683   0.0000       5.095942       138.6676 
 684   0.0000       5.106592       138.9574 
 685   0.0000       5.124282       139.4388 
 686   0.0000       5.127525       139.5271 
 687   0.0000       5.133648       139.6937 
 688   0.0000       5.155808       140.2967 
 689   0.0000       5.158267       140.3636 
 690   0.0000       5.161628       140.4550 
 691   0.0000       5.176591       140.8622 
 692   0.0000       5.183094       141.0392 
 693   0.0000       5.201768       141.5473 
 694   0.0000       5.214918       141.9051 
 695   0.0000       5.216743       141.9548 
 696   0.0000       5.222170       142.1025 
 697   0.0000       5.227730       142.2538 
 698   0.0000       5.239496       142.5739 
 699   0.0000       5.245621       142.7406 
 700   0.0000       5.261659       143.1770 
 701   0.0000       5.274736       143.5329 
 702   0.0000       5.297843       144.1616 
 703   0.0000       5.318908       144.7348 
 704   0.0000       5.324885       144.8975 
 705   0.0000       5.333369       145.1284 
 706   0.0000       5.337978       145.2538 
 707   0.0000       5.352658       145.6532 
 708   0.0000       5.364026       145.9626 
 709   0.0000       5.379489       146.3833 
 710   0.0000       5.391195       146.7019 
 711   0.0000       5.407416       147.1433 
 712   0.0000       5.445097       148.1686 
 713   0.0000       5.467879       148.7886 
 714   0.0000       5.476108       149.0125 
 715   0.0000       5.484532       149.2417 
 716   0.0000       5.492986       149.4717 
 717   0.0000       5.510839       149.9576 
 718   0.0000       5.518327       150.1613 
 719   0.0000       5.533941       150.5862 
 720   0.0000       5.544777       150.8811 
 721   0.0000       5.546972       150.9408 
 722   0.0000       5.556146       151.1904 
 723   0.0000       5.568249       151.5198 
 724   0.0000       5.576970       151.7571 
 725   0.0000       5.599102       152.3593 
 726   0.0000       5.627165       153.1229 
 727   0.0000       5.632285       153.2623 
 728   0.0000       5.639884       153.4691 
 729   0.0000       5.647705       153.6819 
 730   0.0000       5.655781       153.9016 
 731   0.0000       5.668381       154.2445 
 732   0.0000       5.676305       154.4601 
 733   0.0000       5.681309       154.5963 
 734   0.0000       5.688437       154.7902 
 735   0.0000       5.705388       155.2515 
 736   0.0000       5.724032       155.7588 
 737   0.0000       5.739247       156.1728 
 738   0.0000       5.741487       156.2338 
 739   0.0000       5.751887       156.5168 
 740   0.0000       5.756446       156.6409 
 741   0.0000       5.779354       157.2642 
 742   0.0000       5.789791       157.5482 
 743   0.0000       5.804203       157.9404 
 744   0.0000       5.817212       158.2944 
 745   0.0000       5.834437       158.7631 
 746   0.0000       5.859400       159.4424 
 747   0.0000       5.870072       159.7328 
 748   0.0000       5.889088       160.2502 
 749   0.0000       5.911398       160.8573 
 750   0.0000       5.933541       161.4599 
 751   0.0000       5.957643       162.1157 
 752   0.0000       5.973185       162.5386 
 753   0.0000       5.999020       163.2416 
 754   0.0000       6.003509       163.3638 
 755   0.0000       6.031422       164.1233 
 756   0.0000       6.044732       164.4855 
 757   0.0000       6.053607       164.7270 
 758   0.0000       6.068978       165.1453 
 759   0.0000       6.077500       165.3772 
 760   0.0000       6.093495       165.8124 
 761   0.0000       6.173370       167.9859 
 762   0.0000       6.223957       169.3625 
 763   0.0000       6.233385       169.6190 
 764   0.0000       6.253269       170.1601 
 765   0.0000       6.292000       171.2140 
 766   0.0000       6.312240       171.7648 
 767   0.0000       6.337540       172.4532 
 768   0.0000       6.349209       172.7708 
 769   0.0000       6.360189       173.0695 
 770   0.0000       6.372202       173.3964 
 771   0.0000       6.384827       173.7400 
 772   0.0000       6.400743       174.1731 
 773   0.0000       6.437807       175.1816 
 774   0.0000       6.457528       175.7183 
 775   0.0000       6.462655       175.8578 
 776   0.0000       6.500426       176.8856 
 777   0.0000       6.553623       178.3331 
 778   0.0000       6.581895       179.1025 
 779   0.0000       6.614274       179.9835 
 780   0.0000       6.650978       180.9823 
 781   0.0000       6.694014       182.1534 
 782   0.0000       6.740961       183.4309 
 783   0.0000       6.750451       183.6891 
 784   0.0000       6.832745       185.9284 
 785   0.0000       6.842086       186.1826 
 786   0.0000       6.907670       187.9672 
 787   0.0000       6.920036       188.3038 
 788   0.0000       6.958873       189.3606 
 789   0.0000       7.002309       190.5425 
 790   0.0000       7.054190       191.9543 
 791   0.0000       7.068342       192.3394 
 792   0.0000       7.080783       192.6779 
 793   0.0000       7.132181       194.0765 
 794   0.0000       7.179879       195.3745 
 795   0.0000       7.256309       197.4542 
 796   0.0000       7.278547       198.0593 
 797   0.0000       7.281203       198.1316 
 798   0.0000       7.342956       199.8120 
 799   0.0000       7.388593       201.0538 
 800   0.0000       7.409008       201.6094 
 801   0.0000       7.517006       204.5481 
 802   0.0000       7.571580       206.0332 
 803   0.0000       7.585136       206.4021 
 804   0.0000       7.603513       206.9021 
 805   0.0000       7.758095       211.1085 
 806   0.0000       7.823038       212.8757 
 807   0.0000       7.931066       215.8153 
 808   0.0000       8.011217       217.9963 
 809   0.0000       9.433614       256.7017 
 810   0.0000       9.707571       264.1564 
 811   0.0000      10.835568       294.8508 
 812   0.0000      11.204173       304.8811 
 813   0.0000      12.132768       330.1494 
 814   0.0000      12.595407       342.7385 
 815   0.0000      12.948309       352.3414 
 816   0.0000      13.115741       356.8975 
 817   0.0000      13.262851       360.9005 
 818   0.0000      13.414171       365.0182 
 819   0.0000      13.513619       367.7243 
 820   0.0000      13.593423       369.8958 
 821   0.0000      13.693269       372.6128 
 822   0.0000      13.965013       380.0073 
 823   0.0000      14.034283       381.8922 
 824   0.0000      14.258253       387.9868 
 825   0.0000      14.492921       394.3724 
 826   0.0000      14.664732       399.0477 
 827   0.0000      15.991235       435.1436 

                    ********************************
                    * MULLIKEN POPULATION ANALYSIS *
                    ********************************

-----------------------
MULLIKEN ATOMIC CHARGES
-----------------------
   0 C :   -0.263748
   1 C :    0.003417
   2 O :   -0.318823
   3 C :    0.405618
   4 O :   -0.386224
   5 C :   -0.196233
   6 C :    0.135684
   7 C :   -0.319130
   8 N :   -0.135031
   9 C :    0.202035
  10 S :   -0.439056
  11 N :   -0.209718
  12 C :    0.069162
  13 C :    0.030308
  14 C :   -0.190367
  15 C :   -0.127724
  16 C :   -0.280499
  17 C :    0.315864
  18 O :   -0.360991
  19 C :   -0.282617
  20 H :    0.107807
  21 H :    0.108034
  22 H :    0.090543
  23 H :    0.111107
  24 H :    0.102223
  25 H :    0.133034
  26 H :    0.133347
  27 H :    0.121782
  28 H :    0.197161
  29 H :    0.197292
  30 H :    0.163034
  31 H :    0.167131
  32 H :    0.164045
  33 H :    0.132410
  34 H :    0.242092
  35 H :    0.177030
Sum of atomic charges:    0.0000000

--------------------------------
MULLIKEN REDUCED ORBITAL CHARGES
--------------------------------
  0 C s       :     3.258144  s :     3.258144
      pz      :     1.004229  p :     2.928925
      px      :     0.979268
      py      :     0.945428
      dz2     :     0.007187  d :     0.072169
      dxz     :     0.012970
      dyz     :     0.026025
      dx2y2   :     0.013166
      dxy     :     0.012821
      f0      :     0.000333  f :     0.004509
      f+1     :     0.000226
      f-1     :     0.000695
      f+2     :     0.001224
      f-2     :     0.001081
      f+3     :     0.000675
      f-3     :     0.000275
  1 C s       :     3.174652  s :     3.174652
      pz      :     0.947500  p :     2.647809
      px      :     0.711730
      py      :     0.988580
      dz2     :     0.018579  d :     0.162307
      dxz     :     0.040844
      dyz     :     0.031771
      dx2y2   :     0.034383
      dxy     :     0.036730
      f0      :     0.000842  f :     0.011814
      f+1     :     0.001922
      f-1     :     0.001042
      f+2     :     0.002201
      f-2     :     0.001742
      f+3     :     0.002181
      f-3     :     0.001883
  2 O s       :     3.721512  s :     3.721512
      pz      :     1.695839  p :     4.561926
      px      :     1.152739
      py      :     1.713348
      dz2     :     0.003810  d :     0.033104
      dxz     :     0.010204
      dyz     :     0.003082
      dx2y2   :     0.004578
      dxy     :     0.011429
      f0      :     0.000228  f :     0.002281
      f+1     :     0.000295
      f-1     :     0.000060
      f+2     :     0.000382
      f-2     :     0.000305
      f+3     :     0.000472
      f-3     :     0.000539
  3 C s       :     3.085171  s :     3.085171
      pz      :     0.679027  p :     2.194110
      px      :     0.697998
      py      :     0.817085
      dz2     :     0.022350  d :     0.288972
      dxz     :     0.078743
      dyz     :     0.027068
      dx2y2   :     0.092552
      dxy     :     0.068258
      f0      :     0.002301  f :     0.026129
      f+1     :     0.002413
      f-1     :     0.001634
      f+2     :     0.002390
      f-2     :     0.004525
      f+3     :     0.007421
      f-3     :     0.005445
  4 O s       :     3.768461  s :     3.768461
      pz      :     1.497573  p :     4.579291
      px      :     1.520854
      py      :     1.560864
      dz2     :     0.003704  d :     0.035986
      dxz     :     0.007048
      dyz     :     0.004682
      dx2y2   :     0.008456
      dxy     :     0.012096
      f0      :     0.000227  f :     0.002486
      f+1     :     0.000246
      f-1     :     0.000153
      f+2     :     0.000034
      f-2     :     0.000454
      f+3     :     0.000607
      f-3     :     0.000766
  5 C s       :     3.178595  s :     3.178595
      pz      :     0.957699  p :     2.920617
      px      :     1.069072
      py      :     0.893847
      dz2     :     0.016951  d :     0.086259
      dxz     :     0.011731
      dyz     :     0.026520
      dx2y2   :     0.013950
      dxy     :     0.017107
      f0      :     0.001157  f :     0.010761
      f+1     :     0.001291
      f-1     :     0.001786
      f+2     :     0.002080
      f-2     :     0.001109
      f+3     :     0.001383
      f-3     :     0.001957
  6 C s       :     3.186015  s :     3.186015
      pz      :     0.876776  p :     2.490745
      px      :     0.853359
      py      :     0.760609
      dz2     :     0.032657  d :     0.173321
      dxz     :     0.020437
      dyz     :     0.046312
      dx2y2   :     0.029818
      dxy     :     0.044097
      f0      :     0.001648  f :     0.014235
      f+1     :     0.001181
      f-1     :     0.003078
      f+2     :     0.002502
      f-2     :     0.002220
      f+3     :     0.001769
      f-3     :     0.001836
  7 C s       :     3.290602  s :     3.290602
      pz      :     0.897071  p :     2.951724
      px      :     0.995005
      py      :     1.059648
      dz2     :     0.016335  d :     0.072159
      dxz     :     0.012189
      dyz     :     0.017382
      dx2y2   :     0.018208
      dxy     :     0.008044
      f0      :     0.000758  f :     0.004645
      f+1     :     0.001070
      f-1     :     0.000788
      f+2     :     0.000810
      f-2     :     0.000303
      f+3     :     0.000823
      f-3     :     0.000093
  8 N s       :     3.349832  s :     3.349832
      pz      :     1.143720  p :     3.721270
      px      :     1.482366
      py      :     1.095184
      dz2     :     0.014825  d :     0.058960
      dxz     :     0.009193
      dyz     :     0.017019
      dx2y2   :     0.008139
      dxy     :     0.009785
      f0      :     0.000734  f :     0.004969
      f+1     :     0.000966
      f-1     :     0.000819
      f+2     :     0.000889
      f-2     :     0.000729
      f+3     :     0.000442
      f-3     :     0.000391
  9 C s       :     3.165798  s :     3.165798
      pz      :     0.777160  p :     2.352628
      px      :     0.693061
      py      :     0.882407
      dz2     :     0.067605  d :     0.261961
      dxz     :     0.036069
      dyz     :     0.052243
      dx2y2   :     0.045216
      dxy     :     0.060828
      f0      :     0.003202  f :     0.017578
      f+1     :     0.002056
      f-1     :     0.002951
      f+2     :     0.002693
      f-2     :     0.002013
      f+3     :     0.002179
      f-3     :     0.002484
 10 S s       :     5.855189  s :     5.855189
      pz      :     3.559032  p :    10.489036
      px      :     3.693718
      py      :     3.236286
      dz2     :     0.007371  d :     0.084690
      dxz     :     0.004972
      dyz     :     0.038763
      dx2y2   :     0.020381
      dxy     :     0.013202
      f0      :     0.001265  f :     0.010141
      f+1     :     0.000053
      f-1     :     0.001781
      f+2     :     0.003385
      f-2     :     0.001183
      f+3     :     0.001154
      f-3     :     0.001322
 11 N s       :     3.378191  s :     3.378191
      pz      :     1.227521  p :     3.769749
      px      :     1.499431
      py      :     1.042797
      dz2     :     0.011566  d :     0.057343
      dxz     :     0.005910
      dyz     :     0.015449
      dx2y2   :     0.011698
      dxy     :     0.012720
      f0      :     0.000366  f :     0.004435
      f+1     :     0.000534
      f-1     :     0.000566
      f+2     :     0.000735
      f-2     :     0.000607
      f+3     :     0.000805
      f-3     :     0.000823
 12 C s       :     3.113674  s :     3.113674
      pz      :     0.834458  p :     2.621888
      px      :     1.009778
      py      :     0.777651
      dz2     :     0.039150  d :     0.184008
      dxz     :     0.027250
      dyz     :     0.038103
      dx2y2   :     0.036563
      dxy     :     0.042942
      f0      :     0.001385  f :     0.011268
      f+1     :     0.001284
      f-1     :     0.001899
      f+2     :     0.002037
      f-2     :     0.001684
      f+3     :     0.001519
      f-3     :     0.001460
 13 C s       :     3.099812  s :     3.099812
      pz      :     0.915968  p :     2.751693
      px      :     0.901628
      py      :     0.934096
      dz2     :     0.015538  d :     0.106984
      dxz     :     0.013885
      dyz     :     0.027818
      dx2y2   :     0.021364
      dxy     :     0.028378
      f0      :     0.001122  f :     0.011204
      f+1     :     0.001479
      f-1     :     0.001081
[...]
      f-1     :     0.004704
      f+2     :     0.006821
      f-2     :     0.005257
      f+3     :     0.007328
      f-3     :     0.009836
 15 C s       :     2.705687  s :     2.705687
      pz      :     0.875233  p :     2.792571
      px      :     0.950732
      py      :     0.966607
      dz2     :     0.078062  d :     0.415655
      dxz     :     0.072441
      dyz     :     0.048599
      dx2y2   :     0.115971
      dxy     :     0.100581
      f0      :     0.002710  f :     0.041048
      f+1     :     0.004781
      f-1     :     0.005275
      f+2     :     0.006864
      f-2     :     0.006085
      f+3     :     0.007830
      f-3     :     0.007502
 16 C s       :     2.701735  s :     2.701735
      pz      :     0.928791  p :     2.867611
      px      :     0.968989
      py      :     0.969831
      dz2     :     0.036284  d :     0.390647
      dxz     :     0.059231
      dyz     :     0.076381
      dx2y2   :     0.099502
      dxy     :     0.119249
      f0      :     0.003889  f :     0.040339
      f+1     :     0.004385
      f-1     :     0.003246
      f+2     :     0.006048
      f-2     :     0.005002
      f+3     :     0.009019
      f-3     :     0.008750
 17 C s       :     2.701328  s :     2.701328
      pz      :     0.840752  p :     2.683457
      px      :     0.822108
      py      :     1.020597
      dz2     :     0.109015  d :     0.709321
      dxz     :     0.116291
      dyz     :     0.121952
      dx2y2   :     0.180197
      dxy     :     0.181866
      f0      :     0.007614  f :     0.099385
      f+1     :     0.015845
      f-1     :     0.007542
      f+2     :     0.015472
      f-2     :     0.013548
      f+3     :     0.018222
      f-3     :     0.021141
 18 O s       :     3.177170  s :     3.177170
      pz      :     1.479883  p :     4.347268
      px      :     1.373263
      py      :     1.494121
      dz2     :     0.006998  d :     0.075556
      dxz     :     0.017079
      dyz     :     0.014637
      dx2y2   :     0.018706
      dxy     :     0.018135
      f0      :     0.000550  f :     0.005072
      f+1     :     0.000754
      f-1     :     0.000290
      f+2     :     0.000656
      f-2     :     0.000831
      f+3     :     0.000890
      f-3     :     0.001101
 19 C s       :     2.695293  s :     2.695293
      pz      :     0.922018  p :     2.848352
      px      :     0.961489
      py      :     0.964846
      dz2     :     0.063610  d :     0.388392
      dxz     :     0.067778
      dyz     :     0.050306
      dx2y2   :     0.102384
      dxy     :     0.104314
      f0      :     0.002919  f :     0.040804
      f+1     :     0.004682
      f-1     :     0.004784
      f+2     :     0.006893
      f-2     :     0.006538
      f+3     :     0.007928
      f-3     :     0.007060
 20 H s       :     0.842897  s :     0.842897
      pz      :     0.058597  p :     0.152019
      px      :     0.049539
      py      :     0.043883
      dz2     :     0.007473  d :     0.027562
      dxz     :     0.006012
      dyz     :     0.006118
      dx2y2   :     0.004112
      dxy     :     0.003847
 21 H s       :     0.847446  s :     0.847446
      pz      :     0.054054  p :     0.150557
      px      :     0.039002
      py      :     0.057500
      dz2     :     0.006559  d :     0.027477
      dxz     :     0.004761
      dyz     :     0.006864
      dx2y2   :     0.004426
      dxy     :     0.004867
 22 H s       :     0.847739  s :     0.847739
      pz      :     0.045436  p :     0.151224
      px      :     0.065893
      py      :     0.039895
      dz2     :     0.003782  d :     0.027448
      dxz     :     0.007877
      dyz     :     0.002320
      dx2y2   :     0.006512
      dxy     :     0.006956
 23 H s       :     0.859336  s :     0.859336
      pz      :     0.057294  p :     0.145877
      px      :     0.042635
      py      :     0.045948
      dz2     :     0.005536  d :     0.026883
      dxz     :     0.006952
      dyz     :     0.006673
      dx2y2   :     0.004013
      dxy     :     0.003708
 24 H s       :     0.852175  s :     0.852175
      pz      :     0.062463  p :     0.159122
      px      :     0.031295
      py      :     0.065365
      dz2     :     0.007875  d :     0.028042
      dxz     :     0.003617
      dyz     :     0.007972
      dx2y2   :     0.004946
      dxy     :     0.003633
 25 H s       :     0.829119  s :     0.829119
      pz      :     0.052324  p :     0.149854
      px      :     0.039527
      py      :     0.058003
      dz2     :     0.007120  d :     0.027579
      dxz     :     0.004249
      dyz     :     0.006840
      dx2y2   :     0.004804
      dxy     :     0.004567
 26 H s       :     0.832865  s :     0.832865
      pz      :     0.041586  p :     0.150408
      px      :     0.044018
      py      :     0.064805
      dz2     :     0.003885  d :     0.027654
      dxz     :     0.002317
      dyz     :     0.007411
      dx2y2   :     0.007768
      dxy     :     0.006273
 27 H s       :     0.835605  s :     0.835605
      pz      :     0.037459  p :     0.152931
      px      :     0.074094
      py      :     0.041378
      dz2     :     0.002342  d :     0.027698
      dxz     :     0.008585
      dyz     :     0.000385
      dx2y2   :     0.006950
      dxy     :     0.009436
 28 H s       :     0.742492  s :     0.742492
      pz      :     0.056232  p :     0.253386
      px      :     0.090106
      py      :     0.107048
      dz2     :     0.007346  d :     0.061654
      dxz     :     0.003554
      dyz     :     0.015678
      dx2y2   :     0.016565
      dxy     :     0.018510
 29 H s       :     0.747813  s :     0.747813
      pz      :     0.117295  p :     0.254359
      px      :     0.093348
      py      :     0.043716
      dz2     :     0.022281  d :     0.061345
      dxz     :     0.018164
      dyz     :     0.012474
      dx2y2   :     0.005077
      dxy     :     0.003348
 30 H s       :     0.825659  s :     0.825659
      pz      :     0.037371  p :     0.148596
      px      :     0.073451
      py      :     0.037774
      dz2     :     0.002712  d :     0.028284
      dxz     :     0.008006
      dyz     :     0.001749
      dx2y2   :     0.008115
      dxy     :     0.007702
 31 H s       :     0.838078  s :     0.838078
      pz      :     0.051574  p :     0.156198
      px      :     0.068946
      py      :     0.035678
      dz2     :     0.004539  d :     0.027400
      dxz     :     0.007118
      dyz     :     0.002609
      dx2y2   :     0.006393
      dxy     :     0.006741
 32 H s       :     0.841148  s :     0.841148
      pz      :     0.037497  p :     0.150852
      px      :     0.039317
      py      :     0.074039
      dz2     :     0.002614  d :     0.026420
      dxz     :     0.000920
      dyz     :     0.006907
      dx2y2   :     0.007928
      dxy     :     0.008052
 33 H s       :     0.847941  s :     0.847941
      pz      :     0.056091  p :     0.158949
      px      :     0.048657
      py      :     0.054201
      dz2     :     0.005362  d :     0.027741
      dxz     :     0.004468
      dyz     :     0.005749
      dx2y2   :     0.006392
      dxy     :     0.005770
 34 H s       :     0.705881  s :     0.705881
      pz      :     0.114730  p :     0.347349
      px      :     0.082161
      py      :     0.150458
      dz2     :     0.022153  d :     0.099458
      dxz     :     0.010640
      dyz     :     0.024426
      dx2y2   :     0.021961
      dxy     :     0.020277
 35 H s       :     0.838511  s :     0.838511
      pz      :     0.042475  p :     0.158383
      px      :     0.040795
      py      :     0.075113
      dz2     :     0.002606  d :     0.028065
      dxz     :     0.001166
      dyz     :     0.007715
      dx2y2   :     0.008164
      dxy     :     0.008415


                      *****************************
                      * MAYER POPULATION ANALYSIS *
                      *****************************

  NA   - Mulliken gross atomic population
  ZA   - Total nuclear charge
  QA   - Mulliken gross atomic charge
  VA   - Mayer's total valence
  BVA  - Mayer's bonded valence
  FA   - Mayer's free valence

  ATOM       NA         ZA         QA         VA         BVA        FA
  0 C      6.2637     6.0000    -0.2637     3.8985     3.8985     0.0000
  1 C      5.9966     6.0000     0.0034     3.8485     3.8485     0.0000
  2 O      8.3188     8.0000    -0.3188     2.0575     2.0575     0.0000
  3 C      5.5944     6.0000     0.4056     4.2634     4.2634    -0.0000
  4 O      8.3862     8.0000    -0.3862     2.1260     2.1260     0.0000
  5 C      6.1962     6.0000    -0.1962     3.5541     3.5541     0.0000
  6 C      5.8643     6.0000     0.1357     3.7976     3.7976    -0.0000
  7 C      6.3191     6.0000    -0.3191     3.8749     3.8749    -0.0000
  8 N      7.1350     7.0000    -0.1350     3.2636     3.2636    -0.0000
  9 C      5.7980     6.0000     0.2020     4.1495     4.1495    -0.0000
 10 S     16.4391    16.0000    -0.4391     1.7547     1.7547     0.0000
 11 N      7.2097     7.0000    -0.2097     3.2580     3.2580    -0.0000
 12 C      5.9308     6.0000     0.0692     3.9495     3.9495     0.0000
 13 C      5.9697     6.0000     0.0303     3.7243     3.7243     0.0000
 14 C      6.1904     6.0000    -0.1904     3.8787     3.8787     0.0000
 15 C      6.1277     6.0000    -0.1277     3.8041     3.8041     0.0000
 16 C      6.2805     6.0000    -0.2805     3.7908     3.7908    -0.0000
 17 C      5.6841     6.0000     0.3159     3.8636     3.8636    -0.0000
 18 O      8.3610     8.0000    -0.3610     2.1129     2.1129    -0.0000
 19 C      6.2826     6.0000    -0.2826     3.8301     3.8301     0.0000
 20 H      0.8922     1.0000     0.1078     0.9825     0.9825     0.0000
 21 H      0.8920     1.0000     0.1080     0.9851     0.9851    -0.0000
 22 H      0.9095     1.0000     0.0905     0.9820     0.9820     0.0000
 23 H      0.8889     1.0000     0.1111     0.9707     0.9707    -0.0000
 24 H      0.8978     1.0000     0.1022     0.9679     0.9679    -0.0000
 25 H      0.8670     1.0000     0.1330     0.9838     0.9838    -0.0000
 26 H      0.8667     1.0000     0.1333     0.9809     0.9809    -0.0000
 27 H      0.8782     1.0000     0.1218     0.9709     0.9709    -0.0000
 28 H      0.8028     1.0000     0.1972     1.0216     1.0216     0.0000
 29 H      0.8027     1.0000     0.1973     1.0164     1.0164    -0.0000
 30 H      0.8370     1.0000     0.1630     0.9938     0.9938     0.0000
 31 H      0.8329     1.0000     0.1671     0.9867     0.9867    -0.0000
 32 H      0.8360     1.0000     0.1640     0.9766     0.9766    -0.0000
 33 H      0.8676     1.0000     0.1324     0.9913     0.9913    -0.0000
 34 H      0.7579     1.0000     0.2421     1.0097     1.0097     0.0000
 35 H      0.8230     1.0000     0.1770     0.9839     0.9839     0.0000

  Mayer bond orders larger than 0.100000
B(  0-C ,  1-C ) :   0.9827 B(  0-C , 20-H ) :   0.9712 B(  0-C , 21-H ) :   0.9804 
B(  0-C , 22-H ) :   0.9758 B(  1-C ,  2-O ) :   0.8987 B(  1-C , 23-H ) :   0.9778 
B(  1-C , 24-H ) :   0.9598 B(  2-O ,  3-C ) :   1.1911 B(  3-C ,  4-O ) :   2.0880 
B(  3-C ,  5-C ) :   0.9317 B(  5-C ,  6-C ) :   1.6805 B(  5-C , 12-C ) :   0.9600 
B(  6-C ,  7-C ) :   0.9449 B(  6-C ,  8-N ) :   1.1223 B(  7-C , 25-H ) :   0.9781 
B(  7-C , 26-H ) :   0.9748 B(  7-C , 27-H ) :   0.9640 B(  8-N ,  9-C ) :   1.1913 
B(  8-N , 28-H ) :   0.9515 B(  9-C , 10-S ) :   1.6134 B(  9-C , 11-N ) :   1.2898 
B( 11-N , 12-C ) :   0.9998 B( 11-N , 29-H ) :   0.9499 B( 12-C , 13-C ) :   0.9415 
B( 12-C , 30-H ) :   0.9971 B( 13-C , 14-C ) :   1.3883 B( 13-C , 19-C ) :   1.3463 
B( 14-C , 15-C ) :   1.3940 B( 14-C , 31-H ) :   0.9608 B( 15-C , 16-C ) :   1.3614 
B( 15-C , 32-H ) :   0.9705 B( 16-C , 17-C ) :   1.3299 B( 16-C , 33-H ) :   0.9851 
B( 17-C , 18-O ) :   1.1061 B( 17-C , 19-C ) :   1.3714 B( 18-O , 34-H ) :   0.9789 
B( 19-C , 35-H ) :   0.9562 

-------
TIMINGS
-------

Total SCF time: 0 days 1 hours 50 min 57 sec 

Total time                  ....    6657.780 sec
Sum of individual times     ....    6648.760 sec  ( 99.9%)

Fock matrix formation       ....    6617.548 sec  ( 99.4%)
Diagonalization             ....       1.546 sec  (  0.0%)
Density matrix formation    ....       0.287 sec  (  0.0%)
Population analysis         ....       0.278 sec  (  0.0%)
Initial guess               ....       5.910 sec  (  0.1%)
Orbital Transformation      ....       0.000 sec  (  0.0%)
Orbital Orthonormalization  ....       0.000 sec  (  0.0%)
DIIS solution               ....      19.405 sec  (  0.3%)
SOSCF solution              ....       2.417 sec  (  0.0%)

------------------------------------------------------------------------------
                                ORCA  MP2 
------------------------------------------------------------------------------

Freezing NCore=48 chemical core electrons

-------------
RI-MP2 ENERGY
-------------
Dimension of the basis                    ...  828
Memory devoted to MP2                     ...  256 MB   
Data format for buffers                   ... DOUBLE
Compression type for matrix containers    ... UNCOMPRESSED
Overall scaling of the MP2 energy         ...   1.000e+00
Calculating two index integrals           ... done (    0.041 sec)
Cholesky decomposition of V**-1           ... done (    0.333 sec)

-----------------
RI-TRANSFORMATION (AUX index driven)
-----------------

Dimension of the orbital-basis         ... 828
Dimension of the aux-basis             ... 2141
Transformation of internal/external MOs...   24-  76 to   77- 827
Number Format for Storage              ... Double (8 Byte)
Integral mode                          ... Direct

First Phase: integral generation and transformation of MO indices
  Aux angular momentum 0               ... done (    5.333 sec)
  Aux angular momentum 1               ... done (    8.757 sec)
  Aux angular momentum 2               ... done (   11.139 sec)
  Aux angular momentum 3               ... done (    9.410 sec)
  Aux angular momentum 4               ... done (    2.940 sec)
Closing buffer VIA ( 0.63 GB; CompressionRatio= 1.00)
  Phase 1 completed in    37.788 sec
Second Phase: sorting and transformation of aux index

IA-Transformation
Memory available                       ... 167 MB 
Max. # MO pairs treated in a batch     ... 12    
# of internal orbitals                 ... 53
# batches for internal orbitals        ... 5
Closing buffer IAV ( 0.63 GB; CompressionRatio= 1.00)
(ia|v) transformation done in    40.662 sec

  Phase 2 completed in    40.670 sec
RI-Integral transformation completed in    78.465 sec
Opening buffers                              ... done

Starting loop over batches of integrals:

Operator 0  - window                       ... ( 24- 76)x( 77-827)
Operator 0  - Memory available             ...   256 MB
Operator 0  - Memory needed per MO         ...  12.3 MB
Operator 0  - Number of orbitals per batch ... 13
Operator 0  - Number of batches            ... 5

OPERATOR  0   PASS   0:  MOs    24 ...   36
  Reading integrals       ... ok
  Internal MO  26
  Internal MO  29
  Internal MO  32
  Internal MO  35
OPERATOR  0   PASS   1:  MOs    37 ...   49
  Reading integrals       ... ok
  Internal MO  38
  Internal MO  41
  Internal MO  44
  Internal MO  47
OPERATOR  0   PASS   2:  MOs    50 ...   62
  Reading integrals       ... ok
  Internal MO  50
  Internal MO  53
  Internal MO  56
  Internal MO  59
  Internal MO  62
OPERATOR  0   PASS   3:  MOs    63 ...   75
  Reading integrals       ... ok
  Internal MO  65
  Internal MO  68
  Internal MO  71
  Internal MO  74
OPERATOR  0   PASS   4:  MOs    76 ...   76
  Reading integrals       ... ok
Time spent in pair loops =    73.104 sec
Deleting buffer (Ka|jb)[aa] ...done

-----------------------------------------------
 RI-MP2 CORRELATION ENERGY:     -3.540478496 Eh
-----------------------------------------------


-------
TIMINGS
-------

Total time                :  152.104 sec
Integral trafo            :   78.505 sec ( 51.6%)
I/O of integrals          :    4.528 sec (  3.0%)
K(i,j) Operators          :   41.242 sec ( 27.1%)
T(i,j) pair energies      :    7.651 sec (  5.0%)
V-calculation             :    0.041 sec (  0.0%)
V**(-1/2)                 :    0.333 sec (  0.2%)
Gamma(ia|P)               :    0.000 sec (  0.0%)
Gamma-Trafo               :    0.000 sec (  0.0%)
D(virtual)                :    0.000 sec (  0.0%)
D(internal)               :    0.000 sec (  0.0%)
W(virtual)                :    0.000 sec (  0.0%)
W(internal)               :    0.000 sec (  0.0%)
L(virtual)                :    0.000 sec (  0.0%)
L(internal)               :    0.000 sec (  0.0%)
G(D)                      :    0.000 sec (  0.0%)
G(Z)                      :    0.000 sec (  0.0%)
Z-Vector Solution         :    0.000 sec (  0.0%)
3-Index Derivative        :    0.000 sec (  0.0%)
2-Index Derivative        :    0.000 sec (  0.0%)
Separable Gradient        :    0.000 sec (  0.0%)


---------------------------------------
MP2 TOTAL ENERGY:    -1274.336494814 Eh
---------------------------------------

-------------------------   --------------------
FINAL SINGLE POINT ENERGY     -1274.336494813964
-------------------------   --------------------


                            ***************************************
                            *     ORCA property calculations      *
                            ***************************************


  WARNING: The energy has been calculated at the MP2 level but the densities
           used in the property calculations are still SCF densities
           MP2 response densities have not been calculated 
           use %mp2 Density relaxed end
           or  %mp2 Density unrelaxed end

                                    ---------------------
                                    Active property flags
                                    ---------------------
   (+) Dipole Moment


------------------------------------------------------------------------------
                       ORCA ELECTRIC PROPERTIES CALCULATION
------------------------------------------------------------------------------

Dipole Moment Calculation                       ... on
Quadrupole Moment Calculation                   ... off
Polarizability Calculation                      ... off
GBWName                                         ... CONFS/Conf170.orca.gbw
Electron density file                           ... CONFS/Conf170.orca.scfp
The origin for moment calculation is the CENTER OF MASS  = (32.818049, 31.411565 35.192841)

-------------
DIPOLE MOMENT
-------------
                                X             Y             Z
Electronic contribution:     10.24362       8.20554       5.87638
Nuclear contribution   :    -11.75993      -9.11639      -6.24558
                        -----------------------------------------
Total Dipole Moment    :     -1.51631      -0.91085      -0.36920
                        -----------------------------------------
Magnitude (a.u.)       :      1.80698
Magnitude (Debye)      :      4.59298



--------------------
Rotational spectrum 
--------------------
 
Rotational constants in cm-1:     0.012449     0.009130     0.006903 
Rotational constants in MHz :   373.224902   273.717654   206.945706 

 Dipole components along the rotational axes: 
x,y,z [a.u.] :    -1.287758    -0.524962     1.153807 
x,y,z [Debye]:    -3.273220    -1.334347     2.932743 

 

Timings for individual modules:

Sum of individual times         ...     6812.190 sec (= 113.537 min)
GTO integral calculation        ...        1.582 sec (=   0.026 min)   0.0 %
SCF iterations                  ...     6657.915 sec (= 110.965 min)  97.7 %
MP2 module                      ...      152.693 sec (=   2.545 min)   2.2 %
                             ****ORCA TERMINATED NORMALLY****
TOTAL RUN TIME: 0 days 1 hours 53 minutes 33 seconds 322 msec
