
                                 *****************
                                 * O   R   C   A *
                                 *****************

           --- An Ab Initio, DFT and Semiempirical electronic structure package ---

                  #######################################################
                  #                        -***-                        #
                  #          Department of theory and spectroscopy      #
                  #               Directorship: Frank Neese             #
                  #        Max Planck Institute fuer Kohlenforschung    #
                  #                Kaiser Wilhelm Platz 1               #
                  #                 D-45470 Muelheim/Ruhr               #
                  #                      Germany                        #
                  #                                                     #
                  #                  All rights reserved                #
                  #                        -***-                        #
                  #######################################################


                         Program Version 4.2.0 -  RELEASE  -


 With contributions from (in alphabetic order):
   Daniel Aravena         : Magnetic Suceptibility
   Michael Atanasov       : Ab Initio Ligand Field Theory (pilot matlab implementation)
   Alexander A. Auer      : GIAO ZORA, VPT2
   Ute Becker             : Parallelization
   Giovanni Bistoni       : ED, misc. LED, open-shell LED, HFLED
   Martin Brehm           : Molecular dynamics
   Dmytro Bykov           : SCF Hessian
   Vijay G. Chilkuri      : MRCI spin determinant printing, contributions to CSF-ICE
   Dipayan Datta          : RHF DLPNO-CCSD density
   Achintya Kumar Dutta   : EOM-CC, STEOM-CC
   Dmitry Ganyushin       : Spin-Orbit,Spin-Spin,Magnetic field MRCI
   Miquel Garcia          : C-PCM Hessian, Gaussian charge scheme
   Yang Guo               : DLPNO-NEVPT2, CIM, IAO-localization
   Andreas Hansen         : Spin unrestricted coupled pair/coupled cluster methods
   Benjamin Helmich-Paris : CASSCF linear response (MC-RPA)
   Lee Huntington         : MR-EOM, pCC
   Robert Izsak           : Overlap fitted RIJCOSX, COSX-SCS-MP3, EOM
   Christian Kollmar      : KDIIS, OOCD, Brueckner-CCSD(T), CCSD density
   Simone Kossmann        : Meta GGA functionals, TD-DFT gradient, OOMP2, MP2 Hessian
   Martin Krupicka        : AUTO-CI
   Lucas Lang             : DCDCAS
   Dagmar Lenk            : GEPOL surface, SMD
   Dimitrios Liakos       : Extrapolation schemes; Compound Job, initial MDCI parallelization
   Dimitrios Manganas     : Further ROCIS development; embedding schemes
   Dimitrios Pantazis     : SARC Basis sets
   Taras Petrenko         : DFT Hessian,TD-DFT gradient, ASA, ECA, R-Raman, ABS, FL, XAS/XES, NRVS
   Peter Pinski           : DLPNO-MP2, DLPNO-MP2 Gradient
   Christoph Reimann      : Effective Core Potentials
   Marius Retegan         : Local ZFS, SOC
   Christoph Riplinger    : Optimizer, TS searches, QM/MM, DLPNO-CCSD(T), (RO)-DLPNO pert. Triples
   Tobias Risthaus        : Range-separated hybrids, TD-DFT gradient, RPA, STAB
   Michael Roemelt        : Original ROCIS implementation
   Masaaki Saitow         : Open-shell DLPNO-CCSD energy and density
   Barbara Sandhoefer     : DKH picture change effects
   Avijit Sen             : IP-ROCIS
   Kantharuban Sivalingam : CASSCF convergence, NEVPT2, FIC-MRCI
   Bernardo de Souza      : ESD, SOC TD-DFT
   Georgi Stoychev        : AutoAux, RI-MP2 NMR
   Willem Van den Heuvel  : Paramagnetic NMR
   Boris Wezisla          : Elementary symmetry handling
   Frank Wennmohs         : Technical directorship


 We gratefully acknowledge several colleagues who have allowed us to
 interface, adapt or use parts of their codes:
   Stefan Grimme, W. Hujo, H. Kruse,             : VdW corrections, initial TS optimization,
                  C. Bannwarth                     DFT functionals, gCP, sTDA/sTD-DF
   Ed Valeev, F. Pavosevic, A. Kumar             : LibInt (2-el integral package), F12 methods
   Garnet Chan, S. Sharma, J. Yang, R. Olivares  : DMRG
   Ulf Ekstrom                                   : XCFun DFT Library
   Mihaly Kallay                                 : mrcc  (arbitrary order and MRCC methods)
   Andreas Klamt, Michael Diedenhofen            : otool_cosmo (COSMO solvation model)
   Jiri Pittner, Ondrej Demel                    : Mk-CCSD
   Frank Weinhold                                : gennbo (NPA and NBO analysis)
   Christopher J. Cramer and Donald G. Truhlar   : smd solvation model
   Lars Goerigk                                  : TD-DFT with DH, B97 family of functionals
   V. Asgeirsson, H. Jonsson                     : NEB implementation
   FAccTs GmbH                                   : IRC, NEB, NEB-TS, Multilevel, MM, QM/MM, CI optimization
   S Lehtola, MJT Oliveira, MAL Marques          : LibXC Library


 Your calculation uses the libint2 library for the computation of 2-el integrals
 For citations please refer to: http://libint.valeyev.net

 Your ORCA version has been built with support for libXC version: 4.2.3
 For citations please refer to: https://tddft.org/programs/libxc/

 This ORCA versions uses:
   CBLAS   interface :  Fast vector & matrix operations
   LAPACKE interface :  Fast linear algebra routines
   SCALAPACK package :  Parallel linear algebra routines


----- Orbital basis set information -----
Your calculation utilizes the basis: cc-pVTZ 
       H, B-Ne : Obtained from the ccRepo (grant-hill.group.shef.ac.uk/ccrepo) Feb. 2017
                 T. H. Dunning, Jr., J. Chem. Phys. 90, 1007 (1989)
            He : Obtained from the ccRepo (grant-hill.group.shef.ac.uk/ccrepo) Feb. 2017
                 D. E. Woon, T. H. Dunning, Jr., J. Chem. Phys. 100, 2975 (1994)
  Li-Be, Na-Mg : Obtained from the ccRepo (grant-hill.group.shef.ac.uk/ccrepo) Feb. 2017
                 B. P. Prascher, D. E. Woon, K. A. Peterson, T. H. Dunning, Jr., A. K. Wilson, Theor. Chem. Acc. 128, 69 (2011)
         Al-Ar : Obtained from the ccRepo (grant-hill.group.shef.ac.uk/ccrepo) Feb. 2017
                 D. E. Woon, T. H. Dunning, Jr., J. Chem. Phys. 98, 1358 (1993)
            Ca : Obtained from the Peterson Research Group Website (tyr0.chem.wsu.edu/~kipeters) Feb. 2017
                 J. Koput, K. A. Peterson, J. Phys. Chem. 106, 9595 (2002)
         Sc-Zn : Obtained from the ccRepo (grant-hill.group.shef.ac.uk/ccrepo) Feb. 2017
                 N. B. Balabanov, K. A. Peterson, J. Chem. Phys. 123, 064107 (2005)
                 N. B. Balabanov, K. A. Peterson, J. Chem. Phys. 125, 074110 (2006)
         Ga-Kr : Obtained from the ccRepo (grant-hill.group.shef.ac.uk/ccrepo) Feb. 2017
                 A. K. Wilson, D. E. Woon, K. A. Peterson, T. H. Dunning, Jr., J. Chem. Phys. 110, 7667 (1999)
             Y : Obtained from the ccRepo (grant-hill.group.shef.ac.uk/ccrepo) Feb. 2017
                 K. A. Peterson, D. Figgen, M. Dolg, H. Stoll, J. Chem. Phys. 126, 124101 (2007)
        Ag, Au : Obtained from the Peterson Research Group Website (tyr0.chem.wsu.edu/~kipeters) Feb. 2017
                 K. A. Peterson, C. Puzzarini, Theor. Chem. Acc. 114, 283 (2005)

----- AuxC basis set information -----
Your calculation utilizes the auxiliary basis: cc-pVTZ/C 
  Obtained from the EMSL Basis Set Exchange (bse.pnl.gov) Feb. 2017
  H-He, B-F, Al-Ar, Ga-Kr : F. Weigend, A. Kohn, C. Hattig, J. Chem. Phys. 116, 3175 (2002)
             Li-Be, Na-Mg : C. Haettig, Phys. Chem. Chem. Phys. 7, 59 (2005)
                       Ne : C. Haettig, Phys. Chem. Chem. Phys. 7, 59 (2005)
                            F. Weigend, A. Kohn, C. Hattig, J. Chem. Phys. 116, 3175 (2002)
                    Sc-Zn : J. G. Hill, J. A. Platts, J. Chem. Phys. 128, 044104 (2008)

================================================================================
                                        WARNINGS
                       Please study these warnings very carefully!
================================================================================


WARNING: No MP2 level density has been requested!
         To caclulate MP2 level properties use
         %mp2 Density relaxed end
         or
         %mp2 Density unrelaxed end

WARNING: Post HF methods need fully converged wavefunctions
  ===> : Setting SCFConvForced true
         You can overwrite this default with %scf ConvForced false 


INFO   : the flag for use of LIBINT has been found!

================================================================================
                                       INPUT FILE
================================================================================
NAME = CONFS/Conf97.orca
|  1> ! ri-mp2 cc-pvtz cc-pvtz/c TightSCF  NoKeepInts
|  2> 
|  3> %scf
|  4>   MaxCore 4096
|  5> end
|  6> *xyz  0  1
|  7>     C       14.8257778   14.5946425   14.5691420
|  8>     C       15.3548100   14.5395705   16.0121297
|  9>     O       16.2827565   15.6288647   16.1674490
| 10>     C       17.4061602   15.4675653   16.9266597
| 11>     O       17.8520728   14.3663654   17.2047173
| 12>     C       17.8379143   16.7096883   17.6529426
| 13>     C       17.5055073   17.9772601   17.2923465
| 14>     C       16.6696024   18.4229291   16.1097595
| 15>     N       18.0188793   19.0610183   18.0126812
| 16>     C       18.9761898   18.9709975   18.9883935
| 17>     S       19.6255384   20.3157057   19.6995482
| 18>     N       19.3686026   17.7056805   19.3439477
| 19>     C       18.7270141   16.4623239   18.8772292
| 20>     C       17.9342640   15.8139407   20.0093643
| 21>     C       18.1813923   14.4786741   20.3783161
| 22>     C       17.4533528   13.8757732   21.4177446
| 23>     C       16.4683359   14.6137573   22.0957701
| 24>     C       16.2162200   15.9426973   21.7291331
| 25>     O       15.2613686   16.6560786   22.3777741
| 26>     C       16.9421262   16.5398658   20.6937897
| 27>     H       14.3220863   15.5500645   14.3770714
| 28>     H       14.1072051   13.7851376   14.3920657
| 29>     H       15.6490073   14.4852633   13.8520371
| 30>     H       14.5328115   14.6329118   16.7336749
| 31>     H       15.8408365   13.5663150   16.1648488
| 32>     H       17.0031475   17.9298134   15.1881177
| 33>     H       16.7276131   19.5038604   15.9335825
| 34>     H       15.6134917   18.1693621   16.2650623
| 35>     H       17.7436082   19.9982151   17.7660143
| 36>     H       20.0527864   17.6651620   20.0883730
| 37>     H       19.5261919   15.7694885   18.5763727
| 38>     H       18.9308079   13.9002460   19.8434678
| 39>     H       17.6504181   12.8402061   21.6889908
| 40>     H       15.9025657   14.1514708   22.8977026
| 41>     H       14.9032567   16.0903702   23.0781231
| 42>     H       16.7332808   17.5707143   20.4296572
| 43> *
| 44> 
| 45>                          ****END OF INPUT****
================================================================================

                       ****************************
                       * Single Point Calculation *
                       ****************************

---------------------------------
CARTESIAN COORDINATES (ANGSTROEM)
---------------------------------
  C     14.825778   14.594642   14.569142
  C     15.354810   14.539570   16.012130
  O     16.282757   15.628865   16.167449
  C     17.406160   15.467565   16.926660
  O     17.852073   14.366365   17.204717
  C     17.837914   16.709688   17.652943
  C     17.505507   17.977260   17.292347
  C     16.669602   18.422929   16.109759
  N     18.018879   19.061018   18.012681
  C     18.976190   18.970997   18.988394
  S     19.625538   20.315706   19.699548
  N     19.368603   17.705680   19.343948
  C     18.727014   16.462324   18.877229
  C     17.934264   15.813941   20.009364
  C     18.181392   14.478674   20.378316
  C     17.453353   13.875773   21.417745
  C     16.468336   14.613757   22.095770
  C     16.216220   15.942697   21.729133
  O     15.261369   16.656079   22.377774
  C     16.942126   16.539866   20.693790
  H     14.322086   15.550064   14.377071
  H     14.107205   13.785138   14.392066
  H     15.649007   14.485263   13.852037
  H     14.532811   14.632912   16.733675
  H     15.840836   13.566315   16.164849
  H     17.003148   17.929813   15.188118
  H     16.727613   19.503860   15.933582
  H     15.613492   18.169362   16.265062
  H     17.743608   19.998215   17.766014
  H     20.052786   17.665162   20.088373
  H     19.526192   15.769488   18.576373
  H     18.930808   13.900246   19.843468
  H     17.650418   12.840206   21.688991
  H     15.902566   14.151471   22.897703
  H     14.903257   16.090370   23.078123
  H     16.733281   17.570714   20.429657

----------------------------
CARTESIAN COORDINATES (A.U.)
----------------------------
  NO LB      ZA    FRAG     MASS         X           Y           Z
   0 C     6.0000    0    12.011   28.016660   27.579877   27.531688
   1 C     6.0000    0    12.011   29.016386   27.475806   30.258540
   2 O     8.0000    0    15.999   30.769950   29.534274   30.552051
   3 C     6.0000    0    12.011   32.892876   29.229462   31.986751
   4 O     8.0000    0    15.999   33.735529   27.148496   32.512204
   5 C     6.0000    0    12.011   33.708773   31.576735   33.359227
   6 C     6.0000    0    12.011   33.080615   33.972098   32.677799
   7 C     6.0000    0    12.011   31.500983   34.814291   30.443034
   8 N     7.0000    0    14.007   34.050747   36.020104   34.039034
   9 C     6.0000    0    12.011   35.859802   35.849990   35.882863
  10 S    16.0000    0    32.060   37.086893   38.391120   37.226751
  11 N     7.0000    0    14.007   36.601355   33.458887   36.554764
  12 C     6.0000    0    12.011   35.388928   31.109284   35.672793
  13 C     6.0000    0    12.011   33.890847   29.884017   37.812219
  14 C     6.0000    0    12.011   34.357852   27.360729   38.509436
  15 C     6.0000    0    12.011   32.982057   26.221411   40.473672
  16 C     6.0000    0    12.011   31.120645   27.615999   41.754954
  17 C     6.0000    0    12.011   30.644215   30.127332   41.062111
  18 O     8.0000    0    15.999   28.839807   31.475427   42.287865
  19 C     6.0000    0    12.011   32.015979   31.255817   39.105595
  20 H     1.0000    0     1.008   27.064821   29.385363   27.168728
  21 H     1.0000    0     1.008   26.658754   26.050135   27.197063
  22 H     1.0000    0     1.008   29.572338   27.373181   26.176557
  23 H     1.0000    0     1.008   27.463034   27.652196   31.622063
  24 H     1.0000    0     1.008   29.934843   25.636620   30.547137
  25 H     1.0000    0     1.008   32.131292   33.882437   28.701383
  26 H     1.0000    0     1.008   31.610608   36.856955   30.110107
  27 H     1.0000    0     1.008   29.505223   34.335118   30.736513
  28 H     1.0000    0     1.008   33.530560   37.791150   33.572902
  29 H     1.0000    0     1.008   37.894275   33.382318   37.961523
  30 H     1.0000    0     1.008   36.899155   29.800015   35.104257
  31 H     1.0000    0     1.008   35.774042   26.267658   37.498720
  32 H     1.0000    0     1.008   33.354456   24.264473   40.986253
  33 H     1.0000    0     1.008   30.051494   26.742404   43.270387
  34 H     1.0000    0     1.008   28.163074   30.406393   43.611332
  35 H     1.0000    0     1.008   31.621318   33.203838   38.606457

--------------------------------
INTERNAL COORDINATES (ANGSTROEM)
--------------------------------
 C      0   0   0     0.000000000000     0.00000000     0.00000000
 C      1   0   0     1.537895151228     0.00000000     0.00000000
 O      2   1   0     1.439364667473   107.21275831     0.00000000
 C      3   2   1     1.365450202903   120.06686656   216.94523369
 O      4   3   2     1.220161995604   122.27552687    19.36073723
 C      4   3   2     1.502254306310   114.05389342   213.50278394
 C      6   4   3     1.359140253668   124.92992610   337.62302039
 C      7   6   4     1.515212814087   128.04694721   359.14689284
 N      7   6   4     1.398915553733   119.74567629   182.92726046
 C      9   7   6     1.369876501811   124.91123417     7.96275337
 S     10   9   7     1.653975439600   121.81526480   174.49745111
 N     10   9   7     1.371653638945   116.43461288   354.53985339
 C     12  10   9     1.474922911998   124.83200719   352.22523253
 C     13  12  10     1.526624832676   110.44178382   252.13304423
 C     14  13  12     1.407172597964   120.41492234   234.97816949
 C     15  14  13     1.404970681329   120.67477348   180.11815849
 C     16  15  14     1.405203687651   119.65957448     0.00000000
 C     17  16  15     1.401451619001   119.85978220     0.17963814
 O     18  17  16     1.356977974085   120.00309227   179.69322433
 C     18  17  16     1.398386922320   120.34826102   359.84500539
 H      1   2   3     1.097008405000   110.69636284   300.14874712
 H      1   2   3     1.096813988027   110.51310773   180.18754075
 H      1   2   3     1.097228352107   110.58293441    60.39500460
 H      2   1   3     1.097734762104   110.86117797   120.48717908
 H      2   1   3     1.098531360721   108.32241785   239.27619325
 H      8   7   6     1.097195987428   110.83624798   311.72591134
 H      8   7   6     1.096729707796   112.71122196   191.86347035
 H      8   7   6     1.097171360286   110.64505844    71.40663262
 H      9   7   6     1.007450534756   119.62639095   182.32429367
 H     12  10   9     1.011888456454   114.90244390   182.01747527
 H     13  12  10     1.099645707079   107.55189981   134.23524031
 H     15  14  13     1.087320335690   119.79268899   359.04108882
 H     16  15  14     1.088489068425   119.92070887   179.62855817
 H     17  16  15     1.084850432938   119.89788580   179.88354335
 H     19  18  17     0.968895685073   107.37639271     2.62795698
 H     20  18  17     1.084449633966   119.09731716   180.25865546

---------------------------
INTERNAL COORDINATES (A.U.)
---------------------------
 C      0   0   0     0.000000000000     0.00000000     0.00000000
 C      1   0   0     2.906200658507     0.00000000     0.00000000
 O      2   1   0     2.720005028366   107.21275831     0.00000000
 C      3   2   1     2.580326932994   120.06686656   216.94523369
 O      4   3   2     2.305772010711   122.27552687    19.36073723
 C      4   3   2     2.838849222431   114.05389342   213.50278394
 C      6   4   3     2.568402857020   124.92992610   337.62302039
 C      7   6   4     2.863337253233   128.04694721   359.14689284
 N      7   6   4     2.643567281038   119.74567629   182.92726046
 C      9   7   6     2.588691425717   124.91123417     7.96275337
 S     10   9   7     3.125560613077   121.81526480   174.49745111
 N     10   9   7     2.592049728202   116.43461288   354.53985339
 C     12  10   9     2.787200372323   124.83200719   352.22523253
 C     13  12  10     2.884902843002   110.44178382   252.13304423
 C     14  13  12     2.659170833310   120.41492234   234.97816949
 C     15  14  13     2.655009813900   120.67477348   180.11815849
 C     16  15  14     2.655450132037   119.65957448     0.00000000
 C     17  16  15     2.648359749853   119.85978220     0.17963814
 O     18  17  16     2.564316740785   120.00309227   179.69322433
 C     18  17  16     2.642568312441   120.34826102   359.84500539
 H      1   2   3     2.073045452060   110.69636284   300.14874712
 H      1   2   3     2.072678057224   110.51310773   180.18754075
 H      1   2   3     2.073461091855   110.58293441    60.39500460
 H      2   1   3     2.074418068061   110.86117797   120.48717908
 H      2   1   3     2.075923421286   108.32241785   239.27619325
 H      8   7   6     2.073399931476   110.83624798   311.72591134
 H      8   7   6     2.072518790671   112.71122196   191.86347035
 H      8   7   6     2.073353392922   110.64505844    71.40663262
 H      9   7   6     1.903805604162   119.62639095   182.32429367
 H     12  10   9     1.912192060774   114.90244390   182.01747527
 H     13  12  10     2.078029230722   107.55189981   134.23524031
 H     15  14  13     2.054737654298   119.79268899   359.04108882
 H     16  15  14     2.056946239091   119.92070887   179.62855817
 H     17  16  15     2.050070214519   119.89788580   179.88354335
 H     19  18  17     1.830947497126   107.37639271     2.62795698
 H     20  18  17     2.049312814227   119.09731716   180.25865546

---------------------
BASIS SET INFORMATION
---------------------
There are 5 groups of distinct atoms

 Group   1 Type C   : 18s5p2d1f contracted to 4s3p2d1f pattern {8811/311/11/1}
 Group   2 Type O   : 18s5p2d1f contracted to 4s3p2d1f pattern {8811/311/11/1}
 Group   3 Type N   : 18s5p2d1f contracted to 4s3p2d1f pattern {8811/311/11/1}
 Group   4 Type S   : 41s16p2d1f contracted to 5s4p2d1f pattern {13131311/7711/11/1}
 Group   5 Type H   : 5s2p1d contracted to 3s2p1d pattern {311/11/1}

Atom   0C    basis set group =>   1
Atom   1C    basis set group =>   1
Atom   2O    basis set group =>   2
Atom   3C    basis set group =>   1
Atom   4O    basis set group =>   2
Atom   5C    basis set group =>   1
Atom   6C    basis set group =>   1
Atom   7C    basis set group =>   1
Atom   8N    basis set group =>   3
Atom   9C    basis set group =>   1
Atom  10S    basis set group =>   4
Atom  11N    basis set group =>   3
Atom  12C    basis set group =>   1
Atom  13C    basis set group =>   1
Atom  14C    basis set group =>   1
Atom  15C    basis set group =>   1
Atom  16C    basis set group =>   1
Atom  17C    basis set group =>   1
Atom  18O    basis set group =>   2
Atom  19C    basis set group =>   1
Atom  20H    basis set group =>   5
Atom  21H    basis set group =>   5
Atom  22H    basis set group =>   5
Atom  23H    basis set group =>   5
Atom  24H    basis set group =>   5
Atom  25H    basis set group =>   5
Atom  26H    basis set group =>   5
Atom  27H    basis set group =>   5
Atom  28H    basis set group =>   5
Atom  29H    basis set group =>   5
Atom  30H    basis set group =>   5
Atom  31H    basis set group =>   5
Atom  32H    basis set group =>   5
Atom  33H    basis set group =>   5
Atom  34H    basis set group =>   5
Atom  35H    basis set group =>   5
---------------------------------
AUXILIARY/C BASIS SET INFORMATION
---------------------------------
There are 5 groups of distinct atoms

 Group   1 Type C   : 8s6p5d3f1g contracted to 8s6p5d3f1g pattern {11111111/111111/11111/111/1}
 Group   2 Type O   : 8s6p5d3f1g contracted to 8s6p5d3f1g pattern {11111111/111111/11111/111/1}
 Group   3 Type N   : 8s6p5d3f1g contracted to 8s6p5d3f1g pattern {11111111/111111/11111/111/1}
 Group   4 Type S   : 10s8p7d5f2g contracted to 10s8p7d5f2g pattern {1111111111/11111111/1111111/11111/11}
 Group   5 Type H   : 4s3p2d1f contracted to 4s3p2d1f pattern {1111/111/11/1}

Atom   0C    basis set group =>   1
Atom   1C    basis set group =>   1
Atom   2O    basis set group =>   2
Atom   3C    basis set group =>   1
Atom   4O    basis set group =>   2
Atom   5C    basis set group =>   1
Atom   6C    basis set group =>   1
Atom   7C    basis set group =>   1
Atom   8N    basis set group =>   3
Atom   9C    basis set group =>   1
Atom  10S    basis set group =>   4
Atom  11N    basis set group =>   3
Atom  12C    basis set group =>   1
Atom  13C    basis set group =>   1
Atom  14C    basis set group =>   1
Atom  15C    basis set group =>   1
Atom  16C    basis set group =>   1
Atom  17C    basis set group =>   1
Atom  18O    basis set group =>   2
Atom  19C    basis set group =>   1
Atom  20H    basis set group =>   5
Atom  21H    basis set group =>   5
Atom  22H    basis set group =>   5
Atom  23H    basis set group =>   5
Atom  24H    basis set group =>   5
Atom  25H    basis set group =>   5
Atom  26H    basis set group =>   5
Atom  27H    basis set group =>   5
Atom  28H    basis set group =>   5
Atom  29H    basis set group =>   5
Atom  30H    basis set group =>   5
Atom  31H    basis set group =>   5
Atom  32H    basis set group =>   5
Atom  33H    basis set group =>   5
Atom  34H    basis set group =>   5
Atom  35H    basis set group =>   5
------------------------------------------------------------------------------
                           ORCA GTO INTEGRAL CALCULATION
------------------------------------------------------------------------------

                         BASIS SET STATISTICS AND STARTUP INFO

 # of primitive gaussian shells          ...  682
 # of primitive gaussian functions       ... 1312
 # of contracted shells                  ...  298
 # of contracted basis functions         ...  828
 Highest angular momentum                ...    3
 Maximum contraction depth               ...   13
 Integral package used                   ... LIBINT
 Integral threshhold            Thresh   ...  2.500e-11
 Primitive cut-off              TCut     ...  2.500e-12


------------------------------ INTEGRAL EVALUATION ----------------------------


 * One electron integrals 
 Pre-screening matrix                    ... done
 Shell pair data                         ... done (   0.012 sec)

-------------------------------------------------------------------------------
                                 ORCA SCF
-------------------------------------------------------------------------------

------------
SCF SETTINGS
------------
Hamiltonian:
 Ab initio Hamiltonian  Method          .... Hartree-Fock(GTOs)


General Settings:
 Integral files         IntName         .... CONFS/Conf97.orca
 Hartree-Fock type      HFTyp           .... RHF
 Total Charge           Charge          ....    0
 Multiplicity           Mult            ....    1
 Number of Electrons    NEL             ....  154
 Basis Dimension        Dim             ....  828
 Nuclear Repulsion      ENuc            ....   1685.0627344509 Eh

Convergence Acceleration:
 DIIS                   CNVDIIS         .... on
   Start iteration      DIISMaxIt       ....    12
   Startup error        DIISStart       ....  0.200000
   # of expansion vecs  DIISMaxEq       ....     5
   Bias factor          DIISBfac        ....   1.050
   Max. coefficient     DIISMaxC        ....  10.000
 Newton-Raphson         CNVNR           .... off
 SOSCF                  CNVSOSCF        .... on
   Start iteration      SOSCFMaxIt      ....   150
   Startup grad/error   SOSCFStart      ....  0.003300
 Level Shifting         CNVShift        .... on
   Level shift para.    LevelShift      ....    0.2500
   Turn off err/grad.   ShiftErr        ....    0.0010
 Zerner damping         CNVZerner       .... off
 Static damping         CNVDamp         .... on
   Fraction old density DampFac         ....    0.7000
   Max. Damping (<1)    DampMax         ....    0.9800
   Min. Damping (>=0)   DampMin         ....    0.0000
   Turn off err/grad.   DampErr         ....    0.1000
 Fernandez-Rico         CNVRico         .... off

SCF Procedure:
 Maximum # iterations   MaxIter         ....   125
 SCF integral mode      SCFMode         .... Direct
   Integral package                     .... LIBINT
 Reset frequency        DirectResetFreq ....    20
 Integral Threshold     Thresh          ....  2.500e-11 Eh
 Primitive CutOff       TCut            ....  2.500e-12 Eh

Convergence Tolerance:
 Convergence Check Mode ConvCheckMode   .... Total+1el-Energy
 Convergence forced     ConvForced      .... 1
 Energy Change          TolE            ....  1.000e-08 Eh
 1-El. energy change                    ....  1.000e-05 Eh
 Orbital Gradient       TolG            ....  1.000e-05
 Orbital Rotation angle TolX            ....  1.000e-05
 DIIS Error             TolErr          ....  5.000e-07


Diagonalization of the overlap matrix:
Smallest eigenvalue                        ... 3.493e-05
Time for diagonalization                   ...    0.279 sec
Threshold for overlap eigenvalues          ... 1.000e-08
Number of eigenvalues below threshold      ... 0
Time for construction of square roots      ...    0.298 sec
Total time needed                          ...    0.578 sec

-------------------
DFT GRID GENERATION
-------------------

General Integration Accuracy     IntAcc      ...  4.340
Radial Grid Type                 RadialGrid  ... Gauss-Chebyshev
Angular Grid (max. acc.)         AngularGrid ... Lebedev-110
Angular grid pruning method      GridPruning ... 3 (G Style)
Weight generation scheme         WeightScheme... Becke
Basis function cutoff            BFCut       ...    1.0000e-11
Integration weight cutoff        WCut        ...    1.0000e-14
Grids for H and He will be reduced by one unit

# of grid points (after initial pruning)     ...  46246 (   0.0 sec)
# of grid points (after weights+screening)   ...  41414 (   0.3 sec)
nearest neighbour list constructed           ...    0.0 sec
Grid point re-assignment to atoms done       ...    0.0 sec
Grid point division into batches done        ...    0.0 sec
Reduced shell lists constructed in    0.8 sec

Total number of grid points                  ...    41414
Total number of batches                      ...      668
Average number of points per batch           ...       61
Average number of grid points per atom       ...     1150
Average number of shells per batch           ...   143.64 (48.20%)
Average number of basis functions per batch  ...   365.02 (44.08%)
Average number of large shells per batch     ...    91.68 (63.83%)
Average number of large basis fcns per batch ...   237.05 (64.94%)
Maximum spatial batch extension              ...  22.24, 19.85, 20.05 au
Average spatial batch extension              ...   3.54,  3.34,  3.38 au

Time for grid setup =    1.103 sec

------------------------------
INITIAL GUESS: MODEL POTENTIAL
------------------------------
Loading Hartree-Fock densities                     ... done
Calculating cut-offs                               ... done
Setting up the integral package                    ... done
Initializing the effective Hamiltonian             ... done
Starting the Coulomb interaction                   ... done (   2.8 sec)
Reading the grid                                   ... done
Mapping shells                                     ... done
Starting the XC term evaluation                    ... done (   1.0 sec)
Transforming the Hamiltonian                       ... done (   0.2 sec)
Diagonalizing the Hamiltonian                      ... done (   0.3 sec)
Back transforming the eigenvectors                 ... done (   0.1 sec)
Now organizing SCF variables                       ... done
                      ------------------
                      INITIAL GUESS DONE (   5.8 sec)
                      ------------------
--------------
SCF ITERATIONS
--------------
ITER       Energy         Delta-E        Max-DP      RMS-DP      [F,P]     Damp
               ***  Starting incremental Fock matrix formation  ***
  0  -1270.0130657523   0.000000000000 0.04931104  0.00044035  0.3110291 0.7000
  1  -1270.2817338633  -0.268668110939 0.03607769  0.00035569  0.1819498 0.7000
                               ***Turning on DIIS***
  2  -1270.4491744595  -0.167440596204 0.02583568  0.00023877  0.1097698 0.7000
  3  -1272.5962168451  -2.147042385613 0.06313258  0.00051673  0.0829591 0.0000
  4  -1270.7579621040   1.838254741067 0.00928374  0.00009650  0.0070890 0.0000
  5  -1270.8214385961  -0.063476492018 0.00364986  0.00005213  0.0035053 0.0000
                      *** Initiating the SOSCF procedure ***
                           *** Shutting down DIIS ***
                      *** Re-Reading the Fockian *** 
                      *** Removing any level shift *** 
ITER      Energy       Delta-E        Grad      Rot      Max-DP    RMS-DP
  6  -1270.79858356   0.0228550315  0.001869  0.001869  0.001870  0.000026
               *** Restarting incremental Fock matrix formation ***
  7  -1270.81287527  -0.0142917052  0.000740  0.001897  0.001260  0.000016
  8  -1270.81292213  -0.0000468640  0.000439  0.002236  0.001388  0.000017
  9  -1270.81293979  -0.0000176595  0.000176  0.000325  0.000358  0.000004
 10  -1270.81294197  -0.0000021807  0.000045  0.000122  0.000114  0.000001
 11  -1270.81294218  -0.0000002108  0.000021  0.000110  0.000074  0.000001
 12  -1270.81294224  -0.0000000585  0.000007  0.000029  0.000028  0.000000
 13  -1270.81294225  -0.0000000020  0.000003  0.000008  0.000005  0.000000
                  ***Gradient check signals convergence***
              ***Rediagonalizing the Fockian in SOSCF/NRSCF***

               *****************************************************
               *                     SUCCESS                       *
               *           SCF CONVERGED AFTER  14 CYCLES          *
               *****************************************************


----------------
TOTAL SCF ENERGY
----------------

Total Energy       :        -1270.81294224 Eh          -34580.57820 eV

Components:
Nuclear Repulsion  :         1685.06273445 Eh           45852.88812 eV
Electronic Energy  :        -2955.87567669 Eh          -80433.46632 eV
One Electron Energy:        -5091.56190436 Eh         -138548.44308 eV
Two Electron Energy:         2135.68622767 Eh           58114.97676 eV

Virial components:
Potential Energy   :        -2539.76424286 Eh          -69110.49856 eV
Kinetic Energy     :         1268.95130063 Eh           34529.92036 eV
Virial Ratio       :            2.00146707


---------------
SCF CONVERGENCE
---------------

  Last Energy change         ...    7.5547e-09  Tolerance :   1.0000e-08
  Last MAX-Density change    ...    1.6933e-06  Tolerance :   1.0000e-07
  Last RMS-Density change    ...    2.8791e-08  Tolerance :   5.0000e-09
  Last Orbital Gradient      ...    1.2108e-06  Tolerance :   1.0000e-05
  Last Orbital Rotation      ...    3.2296e-06  Tolerance :   1.0000e-05

             **** THE GBW FILE WAS UPDATED (CONFS/Conf97.orca.gbw) ****
             **** DENSITY FILE WAS UPDATED (CONFS/Conf97.orca.scfp) ****
             **** ENERGY FILE WAS UPDATED (CONFS/Conf97.orca.en.tmp) ****
             **** THE GBW FILE WAS UPDATED (CONFS/Conf97.orca.gbw) ****
             **** DENSITY FILE WAS UPDATED (CONFS/Conf97.orca.scfp) ****
----------------
ORBITAL ENERGIES
----------------

  NO   OCC          E(Eh)            E(eV) 
   0   2.0000     -91.887957     -2500.3984 
   1   2.0000     -20.600815      -560.5767 
   2   2.0000     -20.591696      -560.3285 
   3   2.0000     -20.546927      -559.1103 
   4   2.0000     -15.628242      -425.2661 
   5   2.0000     -15.606626      -424.6779 
   6   2.0000     -11.396081      -310.1031 
   7   2.0000     -11.382900      -309.7445 
   8   2.0000     -11.335798      -308.4627 
   9   2.0000     -11.307496      -307.6926 
  10   2.0000     -11.305642      -307.6422 
  11   2.0000     -11.298448      -307.4464 
  12   2.0000     -11.260336      -306.4093 
  13   2.0000     -11.259044      -306.3742 
  14   2.0000     -11.253409      -306.2208 
  15   2.0000     -11.247613      -306.0631 
  16   2.0000     -11.237264      -305.7815 
  17   2.0000     -11.233381      -305.6758 
  18   2.0000     -11.232635      -305.6555 
  19   2.0000     -11.230375      -305.5940 
  20   2.0000      -8.893023      -241.9915 
  21   2.0000      -6.574601      -178.9040 
  22   2.0000      -6.572594      -178.8494 
  23   2.0000      -6.572009      -178.8334 
  24   2.0000      -1.453507       -39.5519 
  25   2.0000      -1.411430       -38.4070 
  26   2.0000      -1.357446       -36.9380 
  27   2.0000      -1.339183       -36.4410 
  28   2.0000      -1.236832       -33.6559 
  29   2.0000      -1.152063       -31.3492 
  30   2.0000      -1.119475       -30.4625 
  31   2.0000      -1.044217       -28.4146 
  32   2.0000      -1.036613       -28.2077 
  33   2.0000      -1.009447       -27.4684 
  34   2.0000      -0.997480       -27.1428 
  35   2.0000      -0.983045       -26.7500 
  36   2.0000      -0.921014       -25.0621 
  37   2.0000      -0.887890       -24.1607 
  38   2.0000      -0.847089       -23.0505 
  39   2.0000      -0.835079       -22.7237 
  40   2.0000      -0.827817       -22.5260 
  41   2.0000      -0.818897       -22.2833 
  42   2.0000      -0.760991       -20.7076 
  43   2.0000      -0.735881       -20.0243 
  44   2.0000      -0.724895       -19.7254 
  45   2.0000      -0.690298       -18.7840 
  46   2.0000      -0.684458       -18.6250 
  47   2.0000      -0.680051       -18.5051 
  48   2.0000      -0.674290       -18.3484 
  49   2.0000      -0.653347       -17.7785 
  50   2.0000      -0.650865       -17.7109 
  51   2.0000      -0.642373       -17.4799 
  52   2.0000      -0.632576       -17.2133 
  53   2.0000      -0.610988       -16.6258 
  54   2.0000      -0.600634       -16.3441 
  55   2.0000      -0.599852       -16.3228 
  56   2.0000      -0.595023       -16.1914 
  57   2.0000      -0.579685       -15.7740 
  58   2.0000      -0.573228       -15.5983 
  59   2.0000      -0.562504       -15.3065 
  60   2.0000      -0.561818       -15.2879 
  61   2.0000      -0.544815       -14.8252 
  62   2.0000      -0.539836       -14.6897 
  63   2.0000      -0.529160       -14.3992 
  64   2.0000      -0.517183       -14.0733 
  65   2.0000      -0.509394       -13.8613 
  66   2.0000      -0.499413       -13.5897 
  67   2.0000      -0.495085       -13.4719 
  68   2.0000      -0.481234       -13.0950 
  69   2.0000      -0.462991       -12.5986 
  70   2.0000      -0.461563       -12.5598 
  71   2.0000      -0.452450       -12.3118 
  72   2.0000      -0.354029        -9.6336 
  73   2.0000      -0.343933        -9.3589 
  74   2.0000      -0.327098        -8.9008 
  75   2.0000      -0.315518        -8.5857 
  76   2.0000      -0.313814        -8.5393 
  77   0.0000       0.075377         2.0511 
  78   0.0000       0.112458         3.0601 
  79   0.0000       0.120550         3.2803 
  80   0.0000       0.135677         3.6920 
  81   0.0000       0.138768         3.7761 
  82   0.0000       0.146285         3.9806 
  83   0.0000       0.153681         4.1819 
  84   0.0000       0.160917         4.3788 
  85   0.0000       0.164020         4.4632 
  86   0.0000       0.171015         4.6535 
  87   0.0000       0.173678         4.7260 
  88   0.0000       0.190860         5.1936 
  89   0.0000       0.194100         5.2817 
  90   0.0000       0.198569         5.4033 
  91   0.0000       0.210057         5.7159 
  92   0.0000       0.211964         5.7678 
  93   0.0000       0.217669         5.9231 
  94   0.0000       0.224959         6.1215 
  95   0.0000       0.234378         6.3777 
  96   0.0000       0.238860         6.4997 
  97   0.0000       0.247299         6.7293 
  98   0.0000       0.254310         6.9201 
  99   0.0000       0.279917         7.6169 
 100   0.0000       0.296343         8.0639 
 101   0.0000       0.309197         8.4137 
 102   0.0000       0.312622         8.5069 
 103   0.0000       0.319322         8.6892 
 104   0.0000       0.325329         8.8527 
 105   0.0000       0.330144         8.9837 
 106   0.0000       0.342124         9.3097 
 107   0.0000       0.347040         9.4434 
 108   0.0000       0.353627         9.6227 
 109   0.0000       0.364497         9.9185 
 110   0.0000       0.374496        10.1905 
 111   0.0000       0.380444        10.3524 
 112   0.0000       0.386658        10.5215 
 113   0.0000       0.391066        10.6414 
 114   0.0000       0.395538        10.7631 
 115   0.0000       0.401652        10.9295 
 116   0.0000       0.420614        11.4455 
 117   0.0000       0.429342        11.6830 
 118   0.0000       0.431337        11.7373 
 119   0.0000       0.435951        11.8628 
 120   0.0000       0.440201        11.9785 
 121   0.0000       0.449636        12.2352 
 122   0.0000       0.451278        12.2799 
 123   0.0000       0.455507        12.3950 
 124   0.0000       0.461992        12.5714 
 125   0.0000       0.465906        12.6779 
 126   0.0000       0.474670        12.9164 
 127   0.0000       0.486764        13.2455 
 128   0.0000       0.493838        13.4380 
 129   0.0000       0.497910        13.5488 
 130   0.0000       0.498774        13.5723 
 131   0.0000       0.504708        13.7338 
 132   0.0000       0.513514        13.9734 
 133   0.0000       0.519086        14.1250 
 134   0.0000       0.524942        14.2844 
 135   0.0000       0.531253        14.4561 
 136   0.0000       0.533411        14.5148 
 137   0.0000       0.541070        14.7233 
 138   0.0000       0.543578        14.7915 
 139   0.0000       0.548545        14.9267 
 140   0.0000       0.551847        15.0165 
 141   0.0000       0.560980        15.2651 
 142   0.0000       0.569523        15.4975 
 143   0.0000       0.571114        15.5408 
 144   0.0000       0.575787        15.6680 
 145   0.0000       0.579273        15.7628 
 146   0.0000       0.584113        15.8945 
 147   0.0000       0.591406        16.0930 
 148   0.0000       0.594146        16.1675 
 149   0.0000       0.600927        16.3520 
 150   0.0000       0.605337        16.4720 
 151   0.0000       0.608029        16.5453 
 152   0.0000       0.610618        16.6157 
 153   0.0000       0.613695        16.6995 
 154   0.0000       0.618419        16.8280 
 155   0.0000       0.624962        17.0061 
 156   0.0000       0.627789        17.0830 
 157   0.0000       0.632226        17.2037 
 158   0.0000       0.634547        17.2669 
 159   0.0000       0.638089        17.3633 
 160   0.0000       0.642133        17.4733 
 161   0.0000       0.648734        17.6529 
 162   0.0000       0.652047        17.7431 
 163   0.0000       0.657731        17.8978 
 164   0.0000       0.662532        18.0284 
 165   0.0000       0.666221        18.1288 
 166   0.0000       0.678735        18.4693 
 167   0.0000       0.681529        18.5454 
 168   0.0000       0.682463        18.5708 
 169   0.0000       0.689923        18.7738 
 170   0.0000       0.694746        18.9050 
 171   0.0000       0.703680        19.1481 
 172   0.0000       0.709103        19.2957 
 173   0.0000       0.719971        19.5914 
 174   0.0000       0.722945        19.6723 
 175   0.0000       0.726570        19.7710 
 176   0.0000       0.734293        19.9811 
 177   0.0000       0.741006        20.1638 
 178   0.0000       0.749472        20.3942 
 179   0.0000       0.752368        20.4730 
 180   0.0000       0.756774        20.5929 
 181   0.0000       0.762173        20.7398 
 182   0.0000       0.768012        20.8987 
 183   0.0000       0.780297        21.2330 
 184   0.0000       0.789443        21.4818 
 185   0.0000       0.800565        21.7845 
 186   0.0000       0.808214        21.9926 
 187   0.0000       0.823490        22.4083 
 188   0.0000       0.827368        22.5138 
 189   0.0000       0.831590        22.6287 
 190   0.0000       0.839461        22.8429 
 191   0.0000       0.846242        23.0274 
 192   0.0000       0.852526        23.1984 
 193   0.0000       0.857470        23.3329 
 194   0.0000       0.872934        23.7538 
 195   0.0000       0.881046        23.9745 
 196   0.0000       0.887043        24.1377 
 197   0.0000       0.891259        24.2524 
 198   0.0000       0.898711        24.4552 
 199   0.0000       0.907850        24.7039 
 200   0.0000       0.911744        24.8098 
 201   0.0000       0.919434        25.0191 
 202   0.0000       0.931783        25.3551 
 203   0.0000       0.937523        25.5113 
 204   0.0000       0.941360        25.6157 
 205   0.0000       0.944508        25.7014 
 206   0.0000       0.955304        25.9951 
 207   0.0000       0.966016        26.2866 
 208   0.0000       0.973760        26.4973 
 209   0.0000       0.976593        26.5745 
 210   0.0000       0.985516        26.8173 
 211   0.0000       0.987982        26.8844 
 212   0.0000       0.995096        27.0779 
 213   0.0000       0.998650        27.1746 
 214   0.0000       1.007716        27.4214 
 215   0.0000       1.011340        27.5199 
 216   0.0000       1.017920        27.6990 
 217   0.0000       1.026273        27.9263 
 218   0.0000       1.033912        28.1342 
 219   0.0000       1.043163        28.3859 
 220   0.0000       1.049691        28.5635 
 221   0.0000       1.053458        28.6660 
 222   0.0000       1.065555        28.9952 
 223   0.0000       1.072890        29.1948 
 224   0.0000       1.085127        29.5278 
 225   0.0000       1.086970        29.5780 
 226   0.0000       1.098489        29.8914 
 227   0.0000       1.100865        29.9561 
 228   0.0000       1.111651        30.2496 
 229   0.0000       1.118861        30.4458 
 230   0.0000       1.128380        30.7048 
 231   0.0000       1.139013        30.9941 
 232   0.0000       1.144857        31.1532 
 233   0.0000       1.151950        31.3462 
 234   0.0000       1.158445        31.5229 
 235   0.0000       1.164301        31.6822 
 236   0.0000       1.169380        31.8204 
 237   0.0000       1.175744        31.9936 
 238   0.0000       1.180188        32.1145 
 239   0.0000       1.182862        32.1873 
 240   0.0000       1.192325        32.4448 
 241   0.0000       1.195707        32.5368 
 242   0.0000       1.207091        32.8466 
 243   0.0000       1.212085        32.9825 
 244   0.0000       1.215388        33.0724 
 245   0.0000       1.226369        33.3712 
 246   0.0000       1.229633        33.4600 
 247   0.0000       1.236502        33.6469 
 248   0.0000       1.241425        33.7809 
 249   0.0000       1.246803        33.9272 
 250   0.0000       1.261711        34.3329 
 251   0.0000       1.264776        34.4163 
 252   0.0000       1.266359        34.4594 
 253   0.0000       1.283039        34.9133 
 254   0.0000       1.285734        34.9866 
 255   0.0000       1.296441        35.2780 
 256   0.0000       1.301003        35.4021 
 257   0.0000       1.308570        35.6080 
 258   0.0000       1.316085        35.8125 
 259   0.0000       1.327218        36.1154 
 260   0.0000       1.331642        36.2358 
 261   0.0000       1.342036        36.5187 
 262   0.0000       1.349440        36.7201 
 263   0.0000       1.354993        36.8712 
 264   0.0000       1.366291        37.1787 
 265   0.0000       1.380025        37.5524 
 266   0.0000       1.382591        37.6222 
 267   0.0000       1.401132        38.1267 
 268   0.0000       1.402924        38.1755 
 269   0.0000       1.413633        38.4669 
 270   0.0000       1.416689        38.5501 
 271   0.0000       1.426074        38.8054 
 272   0.0000       1.430191        38.9175 
 273   0.0000       1.435485        39.0615 
 274   0.0000       1.439601        39.1735 
 275   0.0000       1.457399        39.6579 
 276   0.0000       1.465095        39.8673 
 277   0.0000       1.467963        39.9453 
 278   0.0000       1.481151        40.3042 
 279   0.0000       1.487124        40.4667 
 280   0.0000       1.491161        40.5765 
 281   0.0000       1.492251        40.6062 
 282   0.0000       1.503331        40.9077 
 283   0.0000       1.506714        40.9998 
 284   0.0000       1.511711        41.1357 
 285   0.0000       1.522926        41.4409 
 286   0.0000       1.532265        41.6951 
 287   0.0000       1.539889        41.9025 
 288   0.0000       1.542959        41.9860 
 289   0.0000       1.547339        42.1052 
 290   0.0000       1.550655        42.1955 
 291   0.0000       1.556147        42.3449 
 292   0.0000       1.568799        42.6892 
 293   0.0000       1.574860        42.8541 
 294   0.0000       1.583422        43.0871 
 295   0.0000       1.593118        43.3509 
 296   0.0000       1.596814        43.4515 
 297   0.0000       1.605280        43.6819 
 298   0.0000       1.607556        43.7438 
 299   0.0000       1.626823        44.2681 
 300   0.0000       1.632433        44.4208 
 301   0.0000       1.642912        44.7059 
 302   0.0000       1.644790        44.7570 
 303   0.0000       1.646943        44.8156 
 304   0.0000       1.650930        44.9241 
 305   0.0000       1.661142        45.2020 
 306   0.0000       1.666821        45.3565 
 307   0.0000       1.681374        45.7525 
 308   0.0000       1.689284        45.9677 
 309   0.0000       1.705583        46.4113 
 310   0.0000       1.708481        46.4901 
 311   0.0000       1.716327        46.7036 
 312   0.0000       1.720799        46.8253 
 313   0.0000       1.730066        47.0775 
 314   0.0000       1.736569        47.2545 
 315   0.0000       1.754706        47.7480 
 316   0.0000       1.763629        47.9908 
 317   0.0000       1.768705        48.1289 
 318   0.0000       1.777102        48.3574 
 319   0.0000       1.791433        48.7474 
 320   0.0000       1.802297        49.0430 
 321   0.0000       1.817052        49.4445 
 322   0.0000       1.823254        49.6133 
 323   0.0000       1.840059        50.0705 
 324   0.0000       1.843855        50.1738 
 325   0.0000       1.860522        50.6274 
 326   0.0000       1.878352        51.1125 
 327   0.0000       1.900857        51.7249 
 328   0.0000       1.906869        51.8885 
 329   0.0000       1.910477        51.9867 
 330   0.0000       1.925048        52.3832 
 331   0.0000       1.936727        52.7010 
 332   0.0000       1.941612        52.8339 
 333   0.0000       1.956570        53.2410 
 334   0.0000       1.964437        53.4551 
 335   0.0000       1.977864        53.8204 
 336   0.0000       1.990624        54.1676 
 337   0.0000       1.998902        54.3929 
 338   0.0000       2.017646        54.9029 
 339   0.0000       2.027405        55.1685 
 340   0.0000       2.028781        55.2059 
 341   0.0000       2.039968        55.5103 
 342   0.0000       2.050181        55.7883 
 343   0.0000       2.052168        55.8423 
 344   0.0000       2.089815        56.8668 
 345   0.0000       2.101633        57.1884 
 346   0.0000       2.124733        57.8169 
 347   0.0000       2.129693        57.9519 
 348   0.0000       2.156125        58.6711 
 349   0.0000       2.169241        59.0281 
 350   0.0000       2.179462        59.3062 
 351   0.0000       2.203093        59.9492 
 352   0.0000       2.208872        60.1065 
 353   0.0000       2.224074        60.5201 
 354   0.0000       2.235862        60.8409 
 355   0.0000       2.263461        61.5919 
 356   0.0000       2.273030        61.8523 
 357   0.0000       2.288905        62.2843 
 358   0.0000       2.299794        62.5806 
 359   0.0000       2.308421        62.8153 
 360   0.0000       2.315160        62.9987 
 361   0.0000       2.322027        63.1856 
 362   0.0000       2.341849        63.7249 
 363   0.0000       2.354046        64.0568 
 364   0.0000       2.360974        64.2454 
 365   0.0000       2.377701        64.7005 
 366   0.0000       2.388324        64.9896 
 367   0.0000       2.403540        65.4036 
 368   0.0000       2.411087        65.6090 
 369   0.0000       2.417321        65.7787 
 370   0.0000       2.425176        65.9924 
 371   0.0000       2.443116        66.4806 
 372   0.0000       2.456878        66.8551 
 373   0.0000       2.474005        67.3211 
 374   0.0000       2.479638        67.4744 
 375   0.0000       2.493906        67.8626 
 376   0.0000       2.511186        68.3328 
 377   0.0000       2.517166        68.4956 
 378   0.0000       2.528174        68.7951 
 379   0.0000       2.547988        69.3343 
 380   0.0000       2.570571        69.9488 
 381   0.0000       2.583520        70.3012 
 382   0.0000       2.588572        70.4386 
 383   0.0000       2.594695        70.6052 
 384   0.0000       2.610270        71.0291 
 385   0.0000       2.617996        71.2393 
 386   0.0000       2.631956        71.6192 
 387   0.0000       2.643567        71.9351 
 388   0.0000       2.646600        72.0176 
 389   0.0000       2.665973        72.5448 
 390   0.0000       2.675184        72.7955 
 391   0.0000       2.684433        73.0471 
 392   0.0000       2.700179        73.4756 
 393   0.0000       2.705586        73.6227 
 394   0.0000       2.719994        74.0148 
 395   0.0000       2.730079        74.2892 
 396   0.0000       2.731951        74.3402 
 397   0.0000       2.741232        74.5927 
 398   0.0000       2.751992        74.8855 
 399   0.0000       2.765444        75.2516 
 400   0.0000       2.766946        75.2924 
 401   0.0000       2.769798        75.3700 
 402   0.0000       2.797302        76.1185 
 403   0.0000       2.800023        76.1925 
 404   0.0000       2.809711        76.4561 
 405   0.0000       2.828257        76.9608 
 406   0.0000       2.833356        77.0995 
 407   0.0000       2.839526        77.2674 
 408   0.0000       2.845832        77.4390 
 409   0.0000       2.857853        77.7661 
 410   0.0000       2.864637        77.9507 
 411   0.0000       2.869972        78.0959 
 412   0.0000       2.877238        78.2936 
 413   0.0000       2.880421        78.3802 
 414   0.0000       2.903763        79.0154 
 415   0.0000       2.915801        79.3430 
 416   0.0000       2.926826        79.6430 
 417   0.0000       2.941589        80.0447 
 418   0.0000       2.948655        80.2370 
 419   0.0000       2.950292        80.2815 
 420   0.0000       2.963607        80.6439 
 421   0.0000       2.975835        80.9766 
 422   0.0000       2.988473        81.3205 
 423   0.0000       2.994033        81.4718 
 424   0.0000       3.003127        81.7193 
 425   0.0000       3.012092        81.9632 
 426   0.0000       3.021862        82.2291 
 427   0.0000       3.028031        82.3969 
 428   0.0000       3.031661        82.4957 
 429   0.0000       3.040475        82.7355 
 430   0.0000       3.048659        82.9582 
 431   0.0000       3.055837        83.1535 
 432   0.0000       3.057787        83.2066 
 433   0.0000       3.069325        83.5206 
 434   0.0000       3.077293        83.7374 
 435   0.0000       3.080945        83.8368 
 436   0.0000       3.089519        84.0701 
 437   0.0000       3.091712        84.1298 
 438   0.0000       3.096845        84.2694 
 439   0.0000       3.106362        84.5284 
 440   0.0000       3.107629        84.5629 
 441   0.0000       3.117751        84.8383 
 442   0.0000       3.124754        85.0289 
 443   0.0000       3.133689        85.2720 
 444   0.0000       3.144748        85.5729 
 445   0.0000       3.150823        85.7383 
 446   0.0000       3.168148        86.2097 
 447   0.0000       3.174967        86.3952 
 448   0.0000       3.178719        86.4973 
 449   0.0000       3.188655        86.7677 
 450   0.0000       3.193041        86.8871 
 451   0.0000       3.197784        87.0161 
 452   0.0000       3.204579        87.2010 
 453   0.0000       3.215295        87.4926 
 454   0.0000       3.222750        87.6955 
 455   0.0000       3.227577        87.8268 
 456   0.0000       3.236644        88.0736 
 457   0.0000       3.248153        88.3867 
 458   0.0000       3.253346        88.5280 
 459   0.0000       3.254903        88.5704 
 460   0.0000       3.264130        88.8215 
 461   0.0000       3.268057        88.9283 
 462   0.0000       3.274038        89.0911 
 463   0.0000       3.286863        89.4401 
 464   0.0000       3.297766        89.7368 
 465   0.0000       3.303958        89.9053 
 466   0.0000       3.316748        90.2533 
 467   0.0000       3.320984        90.3686 
 468   0.0000       3.324258        90.4576 
 469   0.0000       3.329531        90.6011 
 470   0.0000       3.333556        90.7107 
 471   0.0000       3.335249        90.7567 
 472   0.0000       3.345896        91.0465 
 473   0.0000       3.351071        91.1873 
 474   0.0000       3.358628        91.3929 
 475   0.0000       3.363075        91.5139 
 476   0.0000       3.368797        91.6696 
 477   0.0000       3.373674        91.8023 
 478   0.0000       3.385165        92.1150 
 479   0.0000       3.387984        92.1917 
 480   0.0000       3.397449        92.4493 
 481   0.0000       3.400200        92.5241 
 482   0.0000       3.402110        92.5761 
 483   0.0000       3.405285        92.6625 
 484   0.0000       3.413527        92.8868 
 485   0.0000       3.414041        92.9008 
 486   0.0000       3.418743        93.0287 
 487   0.0000       3.423278        93.1521 
 488   0.0000       3.427350        93.2629 
 489   0.0000       3.434712        93.4633 
 490   0.0000       3.445650        93.7609 
 491   0.0000       3.450106        93.8821 
 492   0.0000       3.455402        94.0263 
 493   0.0000       3.455993        94.0424 
 494   0.0000       3.461828        94.2011 
 495   0.0000       3.467347        94.3513 
 496   0.0000       3.475779        94.5808 
 497   0.0000       3.483457        94.7897 
 498   0.0000       3.485764        94.8525 
 499   0.0000       3.499619        95.2295 
 500   0.0000       3.508658        95.4754 
 501   0.0000       3.519828        95.7794 
 502   0.0000       3.523706        95.8849 
 503   0.0000       3.531909        96.1081 
 504   0.0000       3.541543        96.3703 
 505   0.0000       3.543155        96.4141 
 506   0.0000       3.555690        96.7552 
 507   0.0000       3.564197        96.9867 
 508   0.0000       3.572626        97.2161 
 509   0.0000       3.581836        97.4667 
 510   0.0000       3.591255        97.7230 
 511   0.0000       3.603362        98.0525 
 512   0.0000       3.610920        98.2581 
 513   0.0000       3.612713        98.3069 
 514   0.0000       3.619428        98.4896 
 515   0.0000       3.624843        98.6370 
 516   0.0000       3.626730        98.6883 
 517   0.0000       3.636119        98.9438 
 518   0.0000       3.642112        99.1069 
 519   0.0000       3.645306        99.1938 
 520   0.0000       3.653056        99.4047 
 521   0.0000       3.660898        99.6181 
 522   0.0000       3.663877        99.6992 
 523   0.0000       3.667820        99.8065 
 524   0.0000       3.672571        99.9357 
 525   0.0000       3.679907       100.1354 
 526   0.0000       3.686485       100.3144 
 527   0.0000       3.695306       100.5544 
 528   0.0000       3.700890       100.7063 
 529   0.0000       3.709100       100.9297 
 530   0.0000       3.713993       101.0629 
 531   0.0000       3.720217       101.2323 
 532   0.0000       3.725700       101.3814 
 533   0.0000       3.736443       101.6738 
 534   0.0000       3.746819       101.9561 
 535   0.0000       3.754362       102.1614 
 536   0.0000       3.756634       102.2232 
 537   0.0000       3.762322       102.3780 
 538   0.0000       3.764492       102.4370 
 539   0.0000       3.770975       102.6134 
 540   0.0000       3.777593       102.7935 
 541   0.0000       3.786755       103.0428 
 542   0.0000       3.796422       103.3059 
 543   0.0000       3.800090       103.4057 
 544   0.0000       3.806392       103.5772 
 545   0.0000       3.817277       103.8734 
 546   0.0000       3.819270       103.9276 
 547   0.0000       3.823921       104.0542 
 548   0.0000       3.831303       104.2551 
 549   0.0000       3.833584       104.3171 
 550   0.0000       3.839984       104.4913 
 551   0.0000       3.856173       104.9318 
 552   0.0000       3.868572       105.2692 
 553   0.0000       3.874539       105.4316 
 554   0.0000       3.881758       105.6280 
 555   0.0000       3.893166       105.9384 
 556   0.0000       3.903654       106.2238 
 557   0.0000       3.909292       106.3772 
 558   0.0000       3.917551       106.6020 
 559   0.0000       3.934503       107.0633 
 560   0.0000       3.944559       107.3369 
 561   0.0000       3.946933       107.4015 
 562   0.0000       3.951377       107.5224 
 563   0.0000       3.965870       107.9168 
 564   0.0000       3.973719       108.1304 
 565   0.0000       3.981833       108.3512 
 566   0.0000       3.982546       108.3706 
 567   0.0000       3.992385       108.6383 
 568   0.0000       3.996172       108.7414 
 569   0.0000       4.010967       109.1440 
 570   0.0000       4.025391       109.5365 
 571   0.0000       4.031141       109.6929 
 572   0.0000       4.048077       110.1538 
 573   0.0000       4.050274       110.2136 
 574   0.0000       4.056857       110.3927 
 575   0.0000       4.067435       110.6805 
 576   0.0000       4.075815       110.9086 
 577   0.0000       4.086811       111.2078 
 578   0.0000       4.098039       111.5133 
 579   0.0000       4.107207       111.7628 
 580   0.0000       4.114335       111.9567 
 581   0.0000       4.118871       112.0802 
 582   0.0000       4.124770       112.2407 
 583   0.0000       4.131528       112.4246 
 584   0.0000       4.141222       112.6884 
 585   0.0000       4.146239       112.8249 
 586   0.0000       4.151298       112.9626 
 587   0.0000       4.157841       113.1406 
 588   0.0000       4.161087       113.2289 
 589   0.0000       4.178098       113.6918 
 590   0.0000       4.180448       113.7558 
 591   0.0000       4.185934       113.9050 
 592   0.0000       4.194040       114.1256 
 593   0.0000       4.194549       114.1395 
 594   0.0000       4.207616       114.4950 
 595   0.0000       4.211877       114.6110 
 596   0.0000       4.219879       114.8287 
 597   0.0000       4.221745       114.8795 
 598   0.0000       4.235937       115.2657 
 599   0.0000       4.240178       115.3811 
 600   0.0000       4.245806       115.5343 
 601   0.0000       4.255075       115.7865 
 602   0.0000       4.268074       116.1402 
 603   0.0000       4.271495       116.2333 
 604   0.0000       4.283075       116.5484 
 605   0.0000       4.286079       116.6301 
 606   0.0000       4.295968       116.8992 
 607   0.0000       4.301990       117.0631 
 608   0.0000       4.315190       117.4223 
 609   0.0000       4.323176       117.6396 
 610   0.0000       4.332520       117.8939 
 611   0.0000       4.344904       118.2308 
 612   0.0000       4.347212       118.2937 
 613   0.0000       4.357746       118.5803 
 614   0.0000       4.362027       118.6968 
 615   0.0000       4.365910       118.8024 
 616   0.0000       4.372547       118.9831 
 617   0.0000       4.375736       119.0698 
 618   0.0000       4.386925       119.3743 
 619   0.0000       4.393195       119.5449 
 620   0.0000       4.396833       119.6439 
 621   0.0000       4.407547       119.9354 
 622   0.0000       4.416078       120.1676 
 623   0.0000       4.431549       120.5886 
 624   0.0000       4.433256       120.6350 
 625   0.0000       4.446881       121.0058 
 626   0.0000       4.450316       121.0993 
 627   0.0000       4.462305       121.4255 
 628   0.0000       4.465497       121.5123 
 629   0.0000       4.477622       121.8423 
 630   0.0000       4.498269       122.4041 
 631   0.0000       4.504235       122.5665 
 632   0.0000       4.514850       122.8553 
 633   0.0000       4.528008       123.2134 
 634   0.0000       4.534815       123.3986 
 635   0.0000       4.537453       123.4704 
 636   0.0000       4.545640       123.6932 
 637   0.0000       4.560111       124.0869 
 638   0.0000       4.565337       124.2291 
 639   0.0000       4.573411       124.4488 
 640   0.0000       4.578500       124.5873 
 641   0.0000       4.583137       124.7135 
 642   0.0000       4.588206       124.8514 
 643   0.0000       4.610427       125.4561 
 644   0.0000       4.616249       125.6145 
 645   0.0000       4.623624       125.8152 
 646   0.0000       4.628018       125.9348 
 647   0.0000       4.633540       126.0850 
 648   0.0000       4.644291       126.3776 
 649   0.0000       4.645739       126.4170 
 650   0.0000       4.651408       126.5713 
 651   0.0000       4.664498       126.9274 
 652   0.0000       4.675518       127.2273 
 653   0.0000       4.679798       127.3438 
 654   0.0000       4.687676       127.5581 
 655   0.0000       4.696662       127.8027 
 656   0.0000       4.701969       127.9471 
 657   0.0000       4.720801       128.4595 
 658   0.0000       4.730016       128.7103 
 659   0.0000       4.742655       129.0542 
 660   0.0000       4.749996       129.2540 
 661   0.0000       4.761185       129.5584 
 662   0.0000       4.774751       129.9276 
 663   0.0000       4.783600       130.1684 
 664   0.0000       4.789113       130.3184 
 665   0.0000       4.816711       131.0694 
 666   0.0000       4.833383       131.5230 
 667   0.0000       4.852002       132.0297 
 668   0.0000       4.870075       132.5215 
 669   0.0000       4.884308       132.9088 
 670   0.0000       4.904269       133.4520 
 671   0.0000       4.908986       133.5803 
 672   0.0000       4.920881       133.9040 
 673   0.0000       4.943642       134.5233 
 674   0.0000       4.969609       135.2299 
 675   0.0000       4.990949       135.8106 
 676   0.0000       5.011882       136.3802 
 677   0.0000       5.022268       136.6629 
 678   0.0000       5.027765       136.8124 
 679   0.0000       5.044720       137.2738 
 680   0.0000       5.055771       137.5745 
 681   0.0000       5.070692       137.9805 
 682   0.0000       5.079238       138.2131 
 683   0.0000       5.091291       138.5411 
 684   0.0000       5.107603       138.9850 
 685   0.0000       5.110100       139.0529 
 686   0.0000       5.120070       139.3242 
 687   0.0000       5.132806       139.6707 
 688   0.0000       5.141821       139.9161 
 689   0.0000       5.148848       140.1073 
 690   0.0000       5.155986       140.3015 
 691   0.0000       5.169036       140.6566 
 692   0.0000       5.190448       141.2393 
 693   0.0000       5.194915       141.3608 
 694   0.0000       5.203982       141.6076 
 695   0.0000       5.214272       141.8876 
 696   0.0000       5.216222       141.9406 
 697   0.0000       5.230288       142.3234 
 698   0.0000       5.234829       142.4469 
 699   0.0000       5.246827       142.7734 
 700   0.0000       5.258982       143.1042 
 701   0.0000       5.272601       143.4748 
 702   0.0000       5.288806       143.9157 
 703   0.0000       5.300684       144.2390 
 704   0.0000       5.321375       144.8020 
 705   0.0000       5.339715       145.3010 
 706   0.0000       5.341800       145.3578 
 707   0.0000       5.357841       145.7943 
 708   0.0000       5.369202       146.1034 
 709   0.0000       5.385527       146.5476 
 710   0.0000       5.410661       147.2316 
 711   0.0000       5.422568       147.5556 
 712   0.0000       5.430044       147.7590 
 713   0.0000       5.453633       148.4009 
 714   0.0000       5.467200       148.7701 
 715   0.0000       5.489874       149.3871 
 716   0.0000       5.494104       149.5022 
 717   0.0000       5.510228       149.9409 
 718   0.0000       5.511730       149.9818 
 719   0.0000       5.523783       150.3098 
 720   0.0000       5.533020       150.5611 
 721   0.0000       5.545517       150.9012 
 722   0.0000       5.554485       151.1452 
 723   0.0000       5.574206       151.6819 
 724   0.0000       5.587425       152.0416 
 725   0.0000       5.608819       152.6237 
 726   0.0000       5.621347       152.9646 
 727   0.0000       5.631850       153.2504 
 728   0.0000       5.634288       153.3168 
 729   0.0000       5.645487       153.6215 
 730   0.0000       5.650916       153.7692 
 731   0.0000       5.655580       153.8962 
 732   0.0000       5.666056       154.1812 
 733   0.0000       5.671998       154.3429 
 734   0.0000       5.699393       155.0884 
 735   0.0000       5.707163       155.2998 
 736   0.0000       5.724425       155.7695 
 737   0.0000       5.730722       155.9409 
 738   0.0000       5.752678       156.5383 
 739   0.0000       5.762703       156.8111 
 740   0.0000       5.769242       156.9891 
 741   0.0000       5.769648       157.0001 
 742   0.0000       5.789984       157.5535 
 743   0.0000       5.802749       157.9008 
 744   0.0000       5.821910       158.4222 
 745   0.0000       5.834422       158.7627 
 746   0.0000       5.852516       159.2551 
 747   0.0000       5.869234       159.7100 
 748   0.0000       5.906528       160.7248 
 749   0.0000       5.933001       161.4452 
 750   0.0000       5.941788       161.6843 
 751   0.0000       5.971735       162.4992 
 752   0.0000       5.978949       162.6955 
 753   0.0000       5.988714       162.9612 
 754   0.0000       6.006611       163.4482 
 755   0.0000       6.013883       163.6461 
 756   0.0000       6.059294       164.8818 
 757   0.0000       6.062913       164.9803 
 758   0.0000       6.081817       165.4947 
 759   0.0000       6.098178       165.9399 
 760   0.0000       6.099860       165.9856 
 761   0.0000       6.176812       168.0796 
 762   0.0000       6.217995       169.2002 
 763   0.0000       6.225027       169.3916 
 764   0.0000       6.228263       169.4796 
 765   0.0000       6.256645       170.2520 
 766   0.0000       6.281071       170.9166 
 767   0.0000       6.330859       172.2714 
 768   0.0000       6.349126       172.7685 
 769   0.0000       6.353396       172.8847 
 770   0.0000       6.369650       173.3270 
 771   0.0000       6.384667       173.7356 
 772   0.0000       6.407108       174.3463 
 773   0.0000       6.445452       175.3897 
 774   0.0000       6.460499       175.7991 
 775   0.0000       6.465575       175.9372 
 776   0.0000       6.505601       177.0264 
 777   0.0000       6.551793       178.2834 
 778   0.0000       6.561196       178.5392 
 779   0.0000       6.593425       179.4162 
 780   0.0000       6.633262       180.5002 
 781   0.0000       6.677259       181.6975 
 782   0.0000       6.715587       182.7404 
 783   0.0000       6.750964       183.7031 
 784   0.0000       6.786458       184.6689 
 785   0.0000       6.900885       187.7826 
 786   0.0000       6.917255       188.2281 
 787   0.0000       6.926783       188.4873 
 788   0.0000       6.947001       189.0375 
 789   0.0000       7.031535       191.3378 
 790   0.0000       7.057258       192.0377 
 791   0.0000       7.069974       192.3838 
 792   0.0000       7.086748       192.8402 
 793   0.0000       7.135823       194.1756 
 794   0.0000       7.185300       195.5220 
 795   0.0000       7.262229       197.6153 
 796   0.0000       7.266296       197.7260 
 797   0.0000       7.286375       198.2724 
 798   0.0000       7.345322       199.8764 
 799   0.0000       7.368554       200.5086 
 800   0.0000       7.425109       202.0475 
 801   0.0000       7.533185       204.9884 
 802   0.0000       7.583014       206.3443 
 803   0.0000       7.590568       206.5499 
 804   0.0000       7.678280       208.9366 
 805   0.0000       7.820734       212.8130 
 806   0.0000       7.840007       213.3374 
 807   0.0000       7.938369       216.0140 
 808   0.0000       7.942542       216.1276 
 809   0.0000       9.352008       254.4811 
 810   0.0000       9.564605       260.2661 
 811   0.0000      10.841067       295.0004 
 812   0.0000      11.243947       305.9634 
 813   0.0000      11.876085       323.1647 
 814   0.0000      12.586164       342.4869 
 815   0.0000      12.920311       351.5795 
 816   0.0000      13.068190       355.6035 
 817   0.0000      13.149895       357.8268 
 818   0.0000      13.165270       358.2452 
 819   0.0000      13.402612       364.7036 
 820   0.0000      13.477865       366.7514 
 821   0.0000      13.785963       375.1351 
 822   0.0000      13.888467       377.9244 
 823   0.0000      13.942815       379.4033 
 824   0.0000      13.985710       380.5705 
 825   0.0000      14.541493       395.6941 
 826   0.0000      14.712289       400.3417 
 827   0.0000      15.949432       434.0061 

                    ********************************
                    * MULLIKEN POPULATION ANALYSIS *
                    ********************************

-----------------------
MULLIKEN ATOMIC CHARGES
-----------------------
   0 C :   -0.264735
   1 C :    0.023212
   2 O :   -0.350958
   3 C :    0.455551
   4 O :   -0.423690
   5 C :   -0.182897
   6 C :    0.142256
   7 C :   -0.286571
   8 N :   -0.122785
   9 C :    0.201567
  10 S :   -0.439563
  11 N :   -0.197477
  12 C :    0.037351
  13 C :    0.055391
  14 C :   -0.160829
  15 C :   -0.133840
  16 C :   -0.279132
  17 C :    0.311114
  18 O :   -0.359162
  19 C :   -0.272047
  20 H :    0.090003
  21 H :    0.093980
  22 H :    0.098395
  23 H :    0.098181
  24 H :    0.120725
  25 H :    0.126204
  26 H :    0.103399
  27 H :    0.126746
  28 H :    0.196858
  29 H :    0.193681
  30 H :    0.153865
  31 H :    0.153406
  32 H :    0.159036
  33 H :    0.128017
  34 H :    0.240060
  35 H :    0.164686
Sum of atomic charges:   -0.0000000

--------------------------------
MULLIKEN REDUCED ORBITAL CHARGES
--------------------------------
  0 C s       :     3.257233  s :     3.257233
      pz      :     0.919646  p :     2.930952
      px      :     1.001967
      py      :     1.009340
      dz2     :     0.020845  d :     0.072089
      dxz     :     0.020368
      dyz     :     0.007007
      dx2y2   :     0.006347
      dxy     :     0.017522
      f0      :     0.001145  f :     0.004460
      f+1     :     0.001405
      f-1     :     0.000289
      f+2     :     0.000238
      f-2     :     0.000250
      f+3     :     0.000957
      f-3     :     0.000176
  1 C s       :     3.176834  s :     3.176834
      pz      :     0.959563  p :     2.637272
      px      :     0.852018
      py      :     0.825690
      dz2     :     0.026649  d :     0.151025
      dxz     :     0.037306
      dyz     :     0.024497
      dx2y2   :     0.025498
      dxy     :     0.037074
      f0      :     0.001993  f :     0.011657
      f+1     :     0.001729
      f-1     :     0.001161
      f+2     :     0.000367
      f-2     :     0.001879
      f+3     :     0.002313
      f-3     :     0.002214
  2 O s       :     3.716971  s :     3.716971
      pz      :     1.673126  p :     4.598472
      px      :     1.329461
      py      :     1.595885
      dz2     :     0.004765  d :     0.033240
      dxz     :     0.008208
      dyz     :     0.003697
      dx2y2   :     0.008290
      dxy     :     0.008280
      f0      :     0.000263  f :     0.002275
      f+1     :     0.000398
      f-1     :     0.000149
      f+2     :     0.000430
      f-2     :     0.000304
      f+3     :     0.000409
      f-3     :     0.000322
  3 C s       :     3.054350  s :     3.054350
      pz      :     0.671054  p :     2.168795
      px      :     0.683720
      py      :     0.814021
      dz2     :     0.044251  d :     0.294925
      dxz     :     0.042618
      dyz     :     0.060516
      dx2y2   :     0.076142
      dxy     :     0.071397
      f0      :     0.002050  f :     0.026380
      f+1     :     0.003686
      f-1     :     0.002643
      f+2     :     0.004181
      f-2     :     0.003666
      f+3     :     0.004224
      f-3     :     0.005931
  4 O s       :     3.770949  s :     3.770949
      pz      :     1.565929  p :     4.614856
      px      :     1.618276
      py      :     1.430651
      dz2     :     0.004187  d :     0.035474
      dxz     :     0.001354
      dyz     :     0.010026
      dx2y2   :     0.009096
      dxy     :     0.010811
      f0      :     0.000242  f :     0.002411
      f+1     :     0.000071
      f-1     :     0.000360
      f+2     :     0.000322
      f-2     :     0.000249
      f+3     :     0.000650
      f-3     :     0.000517
  5 C s       :     3.184952  s :     3.184952
      pz      :     0.996429  p :     2.906567
      px      :     1.082999
      py      :     0.827139
      dz2     :     0.015518  d :     0.080729
      dxz     :     0.009943
      dyz     :     0.026934
      dx2y2   :     0.007019
      dxy     :     0.021315
      f0      :     0.001034  f :     0.010649
      f+1     :     0.001402
      f-1     :     0.001282
      f+2     :     0.002201
      f-2     :     0.001334
      f+3     :     0.001870
      f-3     :     0.001527
  6 C s       :     3.196613  s :     3.196613
      pz      :     0.862647  p :     2.470546
      px      :     0.832641
      py      :     0.775258
      dz2     :     0.030442  d :     0.176353
      dxz     :     0.016452
      dyz     :     0.051718
      dx2y2   :     0.025164
      dxy     :     0.052577
      f0      :     0.001399  f :     0.014231
      f+1     :     0.001288
      f-1     :     0.002644
      f+2     :     0.002598
      f-2     :     0.002096
      f+3     :     0.002315
      f-3     :     0.001891
  7 C s       :     3.280420  s :     3.280420
      pz      :     0.931697  p :     2.932787
      px      :     0.988024
      py      :     1.013066
      dz2     :     0.018795  d :     0.068709
      dxz     :     0.013024
      dyz     :     0.010238
      dx2y2   :     0.021208
      dxy     :     0.005444
      f0      :     0.000319  f :     0.004655
      f+1     :     0.001241
      f-1     :     0.000846
      f+2     :     0.000652
      f-2     :     0.000543
      f+3     :     0.000331
      f-3     :     0.000723
  8 N s       :     3.339444  s :     3.339444
      pz      :     1.307531  p :     3.718987
      px      :     1.346428
      py      :     1.065028
      dz2     :     0.010951  d :     0.059414
      dxz     :     0.009585
      dyz     :     0.013481
      dx2y2   :     0.013324
      dxy     :     0.012072
      f0      :     0.000568  f :     0.004941
      f+1     :     0.000982
      f-1     :     0.000461
      f+2     :     0.000987
      f-2     :     0.000997
      f+3     :     0.000450
      f-3     :     0.000496
  9 C s       :     3.162885  s :     3.162885
      pz      :     0.736688  p :     2.355846
      px      :     0.738596
      py      :     0.880563
      dz2     :     0.055214  d :     0.262101
      dxz     :     0.029683
      dyz     :     0.056885
      dx2y2   :     0.061680
      dxy     :     0.058640
      f0      :     0.002155  f :     0.017601
      f+1     :     0.002639
      f-1     :     0.002396
      f+2     :     0.003273
      f-2     :     0.001834
      f+3     :     0.002710
      f-3     :     0.002594
 10 S s       :     5.855997  s :     5.855997
      pz      :     3.592449  p :    10.488864
      px      :     3.613060
      py      :     3.283355
      dz2     :     0.009737  d :     0.084578
      dxz     :     0.005065
      dyz     :     0.029002
      dx2y2   :     0.014847
      dxy     :     0.025928
      f0      :     0.001220  f :     0.010124
      f+1     :     0.000329
      f-1     :     0.001316
      f+2     :     0.001867
      f-2     :     0.001886
      f+3     :     0.002405
      f-3     :     0.001101
 11 N s       :     3.368731  s :     3.368731
      pz      :     1.380359  p :     3.766241
      px      :     1.368823
      py      :     1.017059
      dz2     :     0.006973  d :     0.058053
      dxz     :     0.007856
      dyz     :     0.013219
      dx2y2   :     0.013833
      dxy     :     0.016172
      f0      :     0.000442  f :     0.004451
      f+1     :     0.000508
      f-1     :     0.000587
      f+2     :     0.000673
      f-2     :     0.000679
      f+3     :     0.000835
      f-3     :     0.000728
 12 C s       :     3.124217  s :     3.124217
      pz      :     0.868194  p :     2.644928
      px      :     0.931128
      py      :     0.845607
      dz2     :     0.039697  d :     0.182226
      dxz     :     0.030253
      dyz     :     0.035883
      dx2y2   :     0.026743
      dxy     :     0.049650
      f0      :     0.001246  f :     0.011278
      f+1     :     0.001734
      f-1     :     0.001556
      f+2     :     0.001782
      f-2     :     0.002013
      f+3     :     0.001483
      f-3     :     0.001464
 13 C s       :     3.095503  s :     3.095503
      pz      :     0.887100  p :     2.730095
      px      :     0.900684
      py      :     0.942311
      dz2     :     0.021538  d :     0.107742
      dxz     :     0.013187
      dyz     :     0.026099
      dx2y2   :     0.022028
      dxy     :     0.024890
      f0      :     0.000946  f :     0.011269
      f+1     :     0.001560
      f-1     :     0.001668
[...]
      f-1     :     0.005817
      f+2     :     0.007966
      f-2     :     0.004933
      f+3     :     0.006698
      f-3     :     0.005723
 15 C s       :     2.705736  s :     2.705736
      pz      :     0.922077  p :     2.796636
      px      :     0.916083
      py      :     0.958476
      dz2     :     0.095747  d :     0.415690
      dxz     :     0.072400
      dyz     :     0.076218
      dx2y2   :     0.104375
      dxy     :     0.066950
      f0      :     0.004660  f :     0.041001
      f+1     :     0.005769
      f-1     :     0.006061
      f+2     :     0.007408
      f-2     :     0.005817
      f+3     :     0.006067
      f-3     :     0.005219
 16 C s       :     2.701842  s :     2.701842
      pz      :     0.941598  p :     2.869159
      px      :     0.950111
      py      :     0.977450
      dz2     :     0.052699  d :     0.391051
      dxz     :     0.060880
      dyz     :     0.089904
      dx2y2   :     0.094141
      dxy     :     0.093428
      f0      :     0.003289  f :     0.040333
      f+1     :     0.004518
      f-1     :     0.006607
      f+2     :     0.006323
      f-2     :     0.004728
      f+3     :     0.009034
      f-3     :     0.005834
 17 C s       :     2.701522  s :     2.701522
      pz      :     0.889385  p :     2.684155
      px      :     0.823802
      py      :     0.970967
      dz2     :     0.136065  d :     0.707845
      dxz     :     0.101963
      dyz     :     0.152360
      dx2y2   :     0.155286
      dxy     :     0.162171
      f0      :     0.009500  f :     0.099218
      f+1     :     0.013797
      f-1     :     0.013592
      f+2     :     0.017054
      f-2     :     0.012979
      f+3     :     0.018884
      f-3     :     0.013413
 18 O s       :     3.177280  s :     3.177280
      pz      :     1.389826  p :     4.349135
      px      :     1.434289
      py      :     1.525020
      dz2     :     0.009972  d :     0.075571
      dxz     :     0.016021
      dyz     :     0.019894
      dx2y2   :     0.011840
      dxy     :     0.017843
      f0      :     0.000573  f :     0.005077
      f+1     :     0.000617
      f-1     :     0.000704
      f+2     :     0.000580
      f-2     :     0.001067
      f+3     :     0.000779
      f-3     :     0.000756
 19 C s       :     2.695321  s :     2.695321
      pz      :     0.943205  p :     2.847160
      px      :     0.942083
      py      :     0.961873
      dz2     :     0.082410  d :     0.388350
      dxz     :     0.072972
      dyz     :     0.071540
      dx2y2   :     0.092101
      dxy     :     0.069327
      f0      :     0.004488  f :     0.040809
      f+1     :     0.006302
      f-1     :     0.005694
      f+2     :     0.007314
      f-2     :     0.006216
      f+3     :     0.005909
      f-3     :     0.004886
 20 H s       :     0.851837  s :     0.851837
      pz      :     0.039909  p :     0.151132
      px      :     0.046389
      py      :     0.064833
      dz2     :     0.002864  d :     0.027481
      dxz     :     0.002412
      dyz     :     0.006557
      dx2y2   :     0.007880
      dxy     :     0.007767
 21 H s       :     0.846826  s :     0.846826
      pz      :     0.039336  p :     0.150653
      px      :     0.054075
      py      :     0.057241
      dz2     :     0.002774  d :     0.027382
      dxz     :     0.004373
      dyz     :     0.004507
      dx2y2   :     0.009042
      dxy     :     0.006687
 22 H s       :     0.847938  s :     0.847938
      pz      :     0.053343  p :     0.149948
      px      :     0.057337
      py      :     0.039269
      dz2     :     0.007399  d :     0.027497
      dxz     :     0.006939
      dyz     :     0.003360
      dx2y2   :     0.003966
      dxy     :     0.005833
 23 H s       :     0.858674  s :     0.858674
      pz      :     0.056959  p :     0.145308
      px      :     0.057806
      py      :     0.030543
      dz2     :     0.007405  d :     0.026784
      dxz     :     0.007667
      dyz     :     0.002620
      dx2y2   :     0.004040
      dxy     :     0.005052
 24 H s       :     0.848231  s :     0.848231
      pz      :     0.041764  p :     0.151445
      px      :     0.042591
      py      :     0.067091
      dz2     :     0.003132  d :     0.027348
      dxz     :     0.002500
      dyz     :     0.007161
      dx2y2   :     0.007229
      dxy     :     0.007327
 25 H s       :     0.829961  s :     0.829961
      pz      :     0.062457  p :     0.150853
      px      :     0.041585
      py      :     0.046811
      dz2     :     0.008682  d :     0.027742
      dxz     :     0.006887
      dyz     :     0.006761
      dx2y2   :     0.003461
      dxy     :     0.001951
 26 H s       :     0.843029  s :     0.843029
      pz      :     0.038172  p :     0.150054
      px      :     0.039472
      py      :     0.072410
      dz2     :     0.002456  d :     0.027710
      dxz     :     0.000347
      dyz     :     0.009190
      dx2y2   :     0.006868
      dxy     :     0.008849
 27 H s       :     0.830600  s :     0.830600
      pz      :     0.038382  p :     0.151787
      px      :     0.071654
      py      :     0.041752
      dz2     :     0.002595  d :     0.027753
      dxz     :     0.008528
      dyz     :     0.000445
      dx2y2   :     0.007964
      dxy     :     0.008222
 28 H s       :     0.742982  s :     0.742982
      pz      :     0.068193  p :     0.254242
      px      :     0.073981
      py      :     0.112068
      dz2     :     0.007012  d :     0.061899
      dxz     :     0.002220
      dyz     :     0.018358
      dx2y2   :     0.015222
      dxy     :     0.019088
 29 H s       :     0.748503  s :     0.748503
      pz      :     0.110357  p :     0.253904
      px      :     0.101610
      py      :     0.041937
      dz2     :     0.020683  d :     0.061325
      dxz     :     0.015252
      dyz     :     0.008365
      dx2y2   :     0.009782
      dxy     :     0.007243
 30 H s       :     0.828129  s :     0.828129
      pz      :     0.039885  p :     0.148436
      px      :     0.056565
      py      :     0.051986
      dz2     :     0.003198  d :     0.028385
      dxz     :     0.006035
      dyz     :     0.004252
      dx2y2   :     0.007107
      dxy     :     0.007793
 31 H s       :     0.841895  s :     0.841895
      pz      :     0.049780  p :     0.155932
      px      :     0.060462
      py      :     0.045691
      dz2     :     0.004926  d :     0.027473
      dxz     :     0.005657
      dyz     :     0.004419
      dx2y2   :     0.006321
      dxy     :     0.006150
 32 H s       :     0.843411  s :     0.843411
      pz      :     0.038778  p :     0.151341
      px      :     0.037668
      py      :     0.074895
      dz2     :     0.003167  d :     0.026480
      dxz     :     0.000773
      dyz     :     0.007772
      dx2y2   :     0.007235
      dxy     :     0.007532
 33 H s       :     0.849414  s :     0.849414
      pz      :     0.064296  p :     0.159233
      px      :     0.052128
      py      :     0.042809
      dz2     :     0.007526  d :     0.027777
      dxz     :     0.006327
      dyz     :     0.006018
      dx2y2   :     0.004048
      dxy     :     0.003859
 34 H s       :     0.707094  s :     0.707094
      pz      :     0.128831  p :     0.348176
      px      :     0.093120
      py      :     0.126226
      dz2     :     0.028688  d :     0.099642
      dxz     :     0.017441
      dyz     :     0.023756
      dx2y2   :     0.014500
      dxy     :     0.015257
 35 H s       :     0.839949  s :     0.839949
      pz      :     0.041006  p :     0.157094
      px      :     0.039751
      py      :     0.076337
      dz2     :     0.003261  d :     0.028035
      dxz     :     0.000913
      dyz     :     0.008267
      dx2y2   :     0.007480
      dxy     :     0.008114


                      *****************************
                      * MAYER POPULATION ANALYSIS *
                      *****************************

  NA   - Mulliken gross atomic population
  ZA   - Total nuclear charge
  QA   - Mulliken gross atomic charge
  VA   - Mayer's total valence
  BVA  - Mayer's bonded valence
  FA   - Mayer's free valence

  ATOM       NA         ZA         QA         VA         BVA        FA
  0 C      6.2647     6.0000    -0.2647     3.8991     3.8991     0.0000
  1 C      5.9768     6.0000     0.0232     3.8458     3.8458    -0.0000
  2 O      8.3510     8.0000    -0.3510     2.0498     2.0498    -0.0000
  3 C      5.5444     6.0000     0.4556     4.2163     4.2163     0.0000
  4 O      8.4237     8.0000    -0.4237     2.0943     2.0943    -0.0000
  5 C      6.1829     6.0000    -0.1829     3.6233     3.6233     0.0000
  6 C      5.8577     6.0000     0.1423     3.8385     3.8385    -0.0000
  7 C      6.2866     6.0000    -0.2866     3.8933     3.8933    -0.0000
  8 N      7.1228     7.0000    -0.1228     3.2909     3.2909    -0.0000
  9 C      5.7984     6.0000     0.2016     4.1549     4.1549    -0.0000
 10 S     16.4396    16.0000    -0.4396     1.7562     1.7562     0.0000
 11 N      7.1975     7.0000    -0.1975     3.2603     3.2603    -0.0000
 12 C      5.9626     6.0000     0.0374     3.9694     3.9694    -0.0000
 13 C      5.9446     6.0000     0.0554     3.7393     3.7393     0.0000
 14 C      6.1608     6.0000    -0.1608     3.8651     3.8651     0.0000
 15 C      6.1338     6.0000    -0.1338     3.8082     3.8082    -0.0000
 16 C      6.2791     6.0000    -0.2791     3.7934     3.7934     0.0000
 17 C      5.6889     6.0000     0.3111     3.8761     3.8761    -0.0000
 18 O      8.3592     8.0000    -0.3592     2.1154     2.1154    -0.0000
 19 C      6.2720     6.0000    -0.2720     3.8519     3.8519    -0.0000
 20 H      0.9100     1.0000     0.0900     0.9827     0.9827     0.0000
 21 H      0.9060     1.0000     0.0940     0.9840     0.9840     0.0000
 22 H      0.9016     1.0000     0.0984     0.9849     0.9849     0.0000
 23 H      0.9018     1.0000     0.0982     0.9761     0.9761     0.0000
 24 H      0.8793     1.0000     0.1207     0.9856     0.9856     0.0000
 25 H      0.8738     1.0000     0.1262     0.9822     0.9822     0.0000
 26 H      0.8966     1.0000     0.1034     0.9865     0.9865    -0.0000
 27 H      0.8733     1.0000     0.1267     0.9794     0.9794    -0.0000
 28 H      0.8031     1.0000     0.1969     1.0234     1.0234     0.0000
 29 H      0.8063     1.0000     0.1937     1.0185     1.0185     0.0000
 30 H      0.8461     1.0000     0.1539     0.9965     0.9965    -0.0000
 31 H      0.8466     1.0000     0.1534     0.9898     0.9898     0.0000
 32 H      0.8410     1.0000     0.1590     0.9776     0.9776    -0.0000
 33 H      0.8720     1.0000     0.1280     0.9922     0.9922     0.0000
 34 H      0.7599     1.0000     0.2401     1.0111     1.0111    -0.0000
 35 H      0.8353     1.0000     0.1647     0.9886     0.9886     0.0000

  Mayer bond orders larger than 0.100000
B(  0-C ,  1-C ) :   0.9737 B(  0-C , 20-H ) :   0.9797 B(  0-C , 21-H ) :   0.9768 
B(  0-C , 22-H ) :   0.9778 B(  1-C ,  2-O ) :   0.8871 B(  1-C , 23-H ) :   0.9770 
B(  1-C , 24-H ) :   0.9745 B(  2-O ,  3-C ) :   1.1442 B(  3-C ,  4-O ) :   1.9965 
B(  3-C ,  5-C ) :   1.0462 B(  5-C ,  6-C ) :   1.6506 B(  5-C , 12-C ) :   0.9652 
B(  6-C ,  7-C ) :   0.9538 B(  6-C ,  8-N ) :   1.1451 B(  7-C , 25-H ) :   0.9668 
B(  7-C , 26-H ) :   0.9914 B(  7-C , 27-H ) :   0.9634 B(  8-N ,  9-C ) :   1.1795 
B(  8-N , 28-H ) :   0.9490 B(  9-C , 10-S ) :   1.6106 B(  9-C , 11-N ) :   1.3038 
B( 11-N , 12-C ) :   0.9916 B( 11-N , 29-H ) :   0.9520 B( 12-C , 13-C ) :   0.9477 
B( 12-C , 30-H ) :   0.9994 B( 13-C , 14-C ) :   1.3765 B( 13-C , 19-C ) :   1.3690 
B( 14-C , 15-C ) :   1.3947 B( 14-C , 31-H ) :   0.9648 B( 15-C , 16-C ) :   1.3627 
B( 15-C , 32-H ) :   0.9714 B( 16-C , 17-C ) :   1.3314 B( 16-C , 33-H ) :   0.9860 
B( 17-C , 18-O ) :   1.1080 B( 17-C , 19-C ) :   1.3790 B( 18-O , 34-H ) :   0.9806 
B( 19-C , 35-H ) :   0.9585 

-------
TIMINGS
-------

Total SCF time: 0 days 1 hours 25 min 42 sec 

Total time                  ....    5142.801 sec
Sum of individual times     ....    5135.591 sec  ( 99.9%)

Fock matrix formation       ....    5111.887 sec  ( 99.4%)
Diagonalization             ....       4.660 sec  (  0.1%)
Density matrix formation    ....       0.206 sec  (  0.0%)
Population analysis         ....       0.848 sec  (  0.0%)
Initial guess               ....       4.743 sec  (  0.1%)
Orbital Transformation      ....       0.000 sec  (  0.0%)
Orbital Orthonormalization  ....       0.000 sec  (  0.0%)
DIIS solution               ....       6.632 sec  (  0.1%)
SOSCF solution              ....       5.511 sec  (  0.1%)

------------------------------------------------------------------------------
                                ORCA  MP2 
------------------------------------------------------------------------------

Freezing NCore=48 chemical core electrons

-------------
RI-MP2 ENERGY
-------------
Dimension of the basis                    ...  828
Memory devoted to MP2                     ...  256 MB   
Data format for buffers                   ... DOUBLE
Compression type for matrix containers    ... UNCOMPRESSED
Overall scaling of the MP2 energy         ...   1.000e+00
Calculating two index integrals           ... done (    0.032 sec)
Cholesky decomposition of V**-1           ... done (    1.778 sec)

-----------------
RI-TRANSFORMATION (AUX index driven)
-----------------

Dimension of the orbital-basis         ... 828
Dimension of the aux-basis             ... 2141
Transformation of internal/external MOs...   24-  76 to   77- 827
Number Format for Storage              ... Double (8 Byte)
Integral mode                          ... Direct

First Phase: integral generation and transformation of MO indices
  Aux angular momentum 0               ... done (   10.468 sec)
  Aux angular momentum 1               ... done (   15.844 sec)
  Aux angular momentum 2               ... done (   20.475 sec)
  Aux angular momentum 3               ... done (   15.088 sec)
  Aux angular momentum 4               ... done (    5.549 sec)
Closing buffer VIA ( 0.63 GB; CompressionRatio= 1.00)
  Phase 1 completed in    67.961 sec
Second Phase: sorting and transformation of aux index

IA-Transformation
Memory available                       ... 167 MB 
Max. # MO pairs treated in a batch     ... 12    
# of internal orbitals                 ... 53
# batches for internal orbitals        ... 5
Closing buffer IAV ( 0.63 GB; CompressionRatio= 1.00)
(ia|v) transformation done in    77.104 sec

  Phase 2 completed in    77.206 sec
RI-Integral transformation completed in   145.173 sec
Opening buffers                              ... done

Starting loop over batches of integrals:

Operator 0  - window                       ... ( 24- 76)x( 77-827)
Operator 0  - Memory available             ...   256 MB
Operator 0  - Memory needed per MO         ...  12.3 MB
Operator 0  - Number of orbitals per batch ... 13
Operator 0  - Number of batches            ... 5

OPERATOR  0   PASS   0:  MOs    24 ...   36
  Reading integrals       ... ok
  Internal MO  26
  Internal MO  29
  Internal MO  32
  Internal MO  35
OPERATOR  0   PASS   1:  MOs    37 ...   49
  Reading integrals       ... ok
  Internal MO  38
  Internal MO  41
  Internal MO  44
  Internal MO  47
OPERATOR  0   PASS   2:  MOs    50 ...   62
  Reading integrals       ... ok
  Internal MO  50
  Internal MO  53
  Internal MO  56
  Internal MO  59
  Internal MO  62
OPERATOR  0   PASS   3:  MOs    63 ...   75
  Reading integrals       ... ok
  Internal MO  65
  Internal MO  68
  Internal MO  71
  Internal MO  74
OPERATOR  0   PASS   4:  MOs    76 ...   76
  Reading integrals       ... ok
Time spent in pair loops =   432.445 sec
Deleting buffer (Ka|jb)[aa] ...done

-----------------------------------------------
 RI-MP2 CORRELATION ENERGY:     -3.530089855 Eh
-----------------------------------------------


-------
TIMINGS
-------

Total time                :  579.673 sec
Integral trafo            :  145.196 sec ( 25.0%)
I/O of integrals          :    6.095 sec (  1.1%)
K(i,j) Operators          :  383.137 sec ( 66.1%)
T(i,j) pair energies      :    3.677 sec (  0.6%)
V-calculation             :    0.032 sec (  0.0%)
V**(-1/2)                 :    1.778 sec (  0.3%)
Gamma(ia|P)               :    0.000 sec (  0.0%)
Gamma-Trafo               :    0.000 sec (  0.0%)
D(virtual)                :    0.000 sec (  0.0%)
D(internal)               :    0.000 sec (  0.0%)
W(virtual)                :    0.000 sec (  0.0%)
W(internal)               :    0.000 sec (  0.0%)
L(virtual)                :    0.000 sec (  0.0%)
L(internal)               :    0.000 sec (  0.0%)
G(D)                      :    0.000 sec (  0.0%)
G(Z)                      :    0.000 sec (  0.0%)
Z-Vector Solution         :    0.000 sec (  0.0%)
3-Index Derivative        :    0.000 sec (  0.0%)
2-Index Derivative        :    0.000 sec (  0.0%)
Separable Gradient        :    0.000 sec (  0.0%)


---------------------------------------
MP2 TOTAL ENERGY:    -1274.343032092 Eh
---------------------------------------

-------------------------   --------------------
FINAL SINGLE POINT ENERGY     -1274.343032092143
-------------------------   --------------------


                            ***************************************
                            *     ORCA property calculations      *
                            ***************************************


  WARNING: The energy has been calculated at the MP2 level but the densities
           used in the property calculations are still SCF densities
           MP2 response densities have not been calculated 
           use %mp2 Density relaxed end
           or  %mp2 Density unrelaxed end

                                    ---------------------
                                    Active property flags
                                    ---------------------
   (+) Dipole Moment


------------------------------------------------------------------------------
                       ORCA ELECTRIC PROPERTIES CALCULATION
------------------------------------------------------------------------------

Dipole Moment Calculation                       ... on
Quadrupole Moment Calculation                   ... off
Polarizability Calculation                      ... off
GBWName                                         ... CONFS/Conf97.orca.gbw
Electron density file                           ... CONFS/Conf97.orca.scfp
The origin for moment calculation is the CENTER OF MASS  = (32.960219, 31.451321 35.501158)

-------------
DIPOLE MOMENT
-------------
                                X             Y             Z
Electronic contribution:     11.44619       8.93237      11.66610
Nuclear contribution   :    -13.06738     -10.15963     -12.52122
                        -----------------------------------------
Total Dipole Moment    :     -1.62119      -1.22726      -0.85512
                        -----------------------------------------
Magnitude (a.u.)       :      2.20582
Magnitude (Debye)      :      5.60676



--------------------
Rotational spectrum 
--------------------
 
Rotational constants in cm-1:     0.010420     0.008848     0.005814 
Rotational constants in MHz :   312.374240   265.252035   174.290656 

 Dipole components along the rotational axes: 
x,y,z [a.u.] :     1.980056     0.656854     0.716650 
x,y,z [Debye]:     5.032901     1.669589     1.821579 

 

Timings for individual modules:

Sum of individual times         ...     5725.123 sec (=  95.419 min)
GTO integral calculation        ...        1.738 sec (=   0.029 min)   0.0 %
SCF iterations                  ...     5142.865 sec (=  85.714 min)  89.8 %
MP2 module                      ...      580.520 sec (=   9.675 min)  10.1 %
                             ****ORCA TERMINATED NORMALLY****
TOTAL RUN TIME: 0 days 1 hours 35 minutes 26 seconds 224 msec
