
                                 *****************
                                 * O   R   C   A *
                                 *****************

           --- An Ab Initio, DFT and Semiempirical electronic structure package ---

                  #######################################################
                  #                        -***-                        #
                  #          Department of theory and spectroscopy      #
                  #               Directorship: Frank Neese             #
                  #        Max Planck Institute fuer Kohlenforschung    #
                  #                Kaiser Wilhelm Platz 1               #
                  #                 D-45470 Muelheim/Ruhr               #
                  #                      Germany                        #
                  #                                                     #
                  #                  All rights reserved                #
                  #                        -***-                        #
                  #######################################################


                         Program Version 4.2.0 -  RELEASE  -


 With contributions from (in alphabetic order):
   Daniel Aravena         : Magnetic Suceptibility
   Michael Atanasov       : Ab Initio Ligand Field Theory (pilot matlab implementation)
   Alexander A. Auer      : GIAO ZORA, VPT2
   Ute Becker             : Parallelization
   Giovanni Bistoni       : ED, misc. LED, open-shell LED, HFLED
   Martin Brehm           : Molecular dynamics
   Dmytro Bykov           : SCF Hessian
   Vijay G. Chilkuri      : MRCI spin determinant printing, contributions to CSF-ICE
   Dipayan Datta          : RHF DLPNO-CCSD density
   Achintya Kumar Dutta   : EOM-CC, STEOM-CC
   Dmitry Ganyushin       : Spin-Orbit,Spin-Spin,Magnetic field MRCI
   Miquel Garcia          : C-PCM Hessian, Gaussian charge scheme
   Yang Guo               : DLPNO-NEVPT2, CIM, IAO-localization
   Andreas Hansen         : Spin unrestricted coupled pair/coupled cluster methods
   Benjamin Helmich-Paris : CASSCF linear response (MC-RPA)
   Lee Huntington         : MR-EOM, pCC
   Robert Izsak           : Overlap fitted RIJCOSX, COSX-SCS-MP3, EOM
   Christian Kollmar      : KDIIS, OOCD, Brueckner-CCSD(T), CCSD density
   Simone Kossmann        : Meta GGA functionals, TD-DFT gradient, OOMP2, MP2 Hessian
   Martin Krupicka        : AUTO-CI
   Lucas Lang             : DCDCAS
   Dagmar Lenk            : GEPOL surface, SMD
   Dimitrios Liakos       : Extrapolation schemes; Compound Job, initial MDCI parallelization
   Dimitrios Manganas     : Further ROCIS development; embedding schemes
   Dimitrios Pantazis     : SARC Basis sets
   Taras Petrenko         : DFT Hessian,TD-DFT gradient, ASA, ECA, R-Raman, ABS, FL, XAS/XES, NRVS
   Peter Pinski           : DLPNO-MP2, DLPNO-MP2 Gradient
   Christoph Reimann      : Effective Core Potentials
   Marius Retegan         : Local ZFS, SOC
   Christoph Riplinger    : Optimizer, TS searches, QM/MM, DLPNO-CCSD(T), (RO)-DLPNO pert. Triples
   Tobias Risthaus        : Range-separated hybrids, TD-DFT gradient, RPA, STAB
   Michael Roemelt        : Original ROCIS implementation
   Masaaki Saitow         : Open-shell DLPNO-CCSD energy and density
   Barbara Sandhoefer     : DKH picture change effects
   Avijit Sen             : IP-ROCIS
   Kantharuban Sivalingam : CASSCF convergence, NEVPT2, FIC-MRCI
   Bernardo de Souza      : ESD, SOC TD-DFT
   Georgi Stoychev        : AutoAux, RI-MP2 NMR
   Willem Van den Heuvel  : Paramagnetic NMR
   Boris Wezisla          : Elementary symmetry handling
   Frank Wennmohs         : Technical directorship


 We gratefully acknowledge several colleagues who have allowed us to
 interface, adapt or use parts of their codes:
   Stefan Grimme, W. Hujo, H. Kruse,             : VdW corrections, initial TS optimization,
                  C. Bannwarth                     DFT functionals, gCP, sTDA/sTD-DF
   Ed Valeev, F. Pavosevic, A. Kumar             : LibInt (2-el integral package), F12 methods
   Garnet Chan, S. Sharma, J. Yang, R. Olivares  : DMRG
   Ulf Ekstrom                                   : XCFun DFT Library
   Mihaly Kallay                                 : mrcc  (arbitrary order and MRCC methods)
   Andreas Klamt, Michael Diedenhofen            : otool_cosmo (COSMO solvation model)
   Jiri Pittner, Ondrej Demel                    : Mk-CCSD
   Frank Weinhold                                : gennbo (NPA and NBO analysis)
   Christopher J. Cramer and Donald G. Truhlar   : smd solvation model
   Lars Goerigk                                  : TD-DFT with DH, B97 family of functionals
   V. Asgeirsson, H. Jonsson                     : NEB implementation
   FAccTs GmbH                                   : IRC, NEB, NEB-TS, Multilevel, MM, QM/MM, CI optimization
   S Lehtola, MJT Oliveira, MAL Marques          : LibXC Library


 Your calculation uses the libint2 library for the computation of 2-el integrals
 For citations please refer to: http://libint.valeyev.net

 Your ORCA version has been built with support for libXC version: 4.2.3
 For citations please refer to: https://tddft.org/programs/libxc/

 This ORCA versions uses:
   CBLAS   interface :  Fast vector & matrix operations
   LAPACKE interface :  Fast linear algebra routines
   SCALAPACK package :  Parallel linear algebra routines


----- Orbital basis set information -----
Your calculation utilizes the basis: cc-pVTZ 
       H, B-Ne : Obtained from the ccRepo (grant-hill.group.shef.ac.uk/ccrepo) Feb. 2017
                 T. H. Dunning, Jr., J. Chem. Phys. 90, 1007 (1989)
            He : Obtained from the ccRepo (grant-hill.group.shef.ac.uk/ccrepo) Feb. 2017
                 D. E. Woon, T. H. Dunning, Jr., J. Chem. Phys. 100, 2975 (1994)
  Li-Be, Na-Mg : Obtained from the ccRepo (grant-hill.group.shef.ac.uk/ccrepo) Feb. 2017
                 B. P. Prascher, D. E. Woon, K. A. Peterson, T. H. Dunning, Jr., A. K. Wilson, Theor. Chem. Acc. 128, 69 (2011)
         Al-Ar : Obtained from the ccRepo (grant-hill.group.shef.ac.uk/ccrepo) Feb. 2017
                 D. E. Woon, T. H. Dunning, Jr., J. Chem. Phys. 98, 1358 (1993)
            Ca : Obtained from the Peterson Research Group Website (tyr0.chem.wsu.edu/~kipeters) Feb. 2017
                 J. Koput, K. A. Peterson, J. Phys. Chem. 106, 9595 (2002)
         Sc-Zn : Obtained from the ccRepo (grant-hill.group.shef.ac.uk/ccrepo) Feb. 2017
                 N. B. Balabanov, K. A. Peterson, J. Chem. Phys. 123, 064107 (2005)
                 N. B. Balabanov, K. A. Peterson, J. Chem. Phys. 125, 074110 (2006)
         Ga-Kr : Obtained from the ccRepo (grant-hill.group.shef.ac.uk/ccrepo) Feb. 2017
                 A. K. Wilson, D. E. Woon, K. A. Peterson, T. H. Dunning, Jr., J. Chem. Phys. 110, 7667 (1999)
             Y : Obtained from the ccRepo (grant-hill.group.shef.ac.uk/ccrepo) Feb. 2017
                 K. A. Peterson, D. Figgen, M. Dolg, H. Stoll, J. Chem. Phys. 126, 124101 (2007)
        Ag, Au : Obtained from the Peterson Research Group Website (tyr0.chem.wsu.edu/~kipeters) Feb. 2017
                 K. A. Peterson, C. Puzzarini, Theor. Chem. Acc. 114, 283 (2005)

----- AuxC basis set information -----
Your calculation utilizes the auxiliary basis: cc-pVTZ/C 
  Obtained from the EMSL Basis Set Exchange (bse.pnl.gov) Feb. 2017
  H-He, B-F, Al-Ar, Ga-Kr : F. Weigend, A. Kohn, C. Hattig, J. Chem. Phys. 116, 3175 (2002)
             Li-Be, Na-Mg : C. Haettig, Phys. Chem. Chem. Phys. 7, 59 (2005)
                       Ne : C. Haettig, Phys. Chem. Chem. Phys. 7, 59 (2005)
                            F. Weigend, A. Kohn, C. Hattig, J. Chem. Phys. 116, 3175 (2002)
                    Sc-Zn : J. G. Hill, J. A. Platts, J. Chem. Phys. 128, 044104 (2008)

================================================================================
                                        WARNINGS
                       Please study these warnings very carefully!
================================================================================


WARNING: No MP2 level density has been requested!
         To caclulate MP2 level properties use
         %mp2 Density relaxed end
         or
         %mp2 Density unrelaxed end

WARNING: Post HF methods need fully converged wavefunctions
  ===> : Setting SCFConvForced true
         You can overwrite this default with %scf ConvForced false 


INFO   : the flag for use of LIBINT has been found!

================================================================================
                                       INPUT FILE
================================================================================
NAME = CONFS/Conf661.orca
|  1> ! ri-mp2 cc-pvtz cc-pvtz/c TightSCF  NoKeepInts
|  2> 
|  3> %scf
|  4>   MaxCore 4096
|  5> end
|  6> *xyz  0  1
|  7>     C       14.9832294   15.5512337   17.1885044
|  8>     C       15.7681652   14.8592259   16.0569235
|  9>     O       16.8765361   15.6470832   15.5676691
| 10>     C       17.9956746   15.8258547   16.3334433
| 11>     O       18.7625823   14.8913151   16.4820447
| 12>     C       17.8948218   16.9101341   17.3650546
| 13>     C       17.2885063   18.0988623   17.1214904
| 14>     C       16.6525006   18.5548097   15.8233255
| 15>     N       17.3344931   19.1116840   18.0838601
| 16>     C       18.1378011   19.0926864   19.1939307
| 17>     S       18.2586447   20.3960998   20.2043703
| 18>     N       18.8399651   17.9352379   19.4216928
| 19>     C       18.6396837   16.6705451   18.6865978
| 20>     C       17.9393877   15.6340187   19.5659137
| 21>     C       18.3598488   14.2909565   19.5464377
| 22>     C       17.7232296   13.3257434   20.3441130
| 23>     C       16.6556954   13.7044389   21.1749366
| 24>     C       16.2342690   15.0402446   21.2025610
| 25>     O       15.1986962   15.4084344   21.9979728
| 26>     C       16.8700611   15.9989855   20.4073513
| 27>     H       15.5962370   15.6775994   18.0830822
| 28>     H       14.1204998   14.9364491   17.4726353
| 29>     H       14.6029236   16.5283746   16.8744933
| 30>     H       16.1361023   13.8857591   16.4096375
| 31>     H       15.0802343   14.6671011   15.2235443
| 32>     H       15.6286087   18.1799437   15.7241654
| 33>     H       17.2235198   18.1964208   14.9576225
| 34>     H       16.6151745   19.6481793   15.7423433
| 35>     H       16.8345351   19.9725140   17.9275914
| 36>     H       19.4108843   17.9403473   20.2573887
| 37>     H       19.6361401   16.2763135   18.4387394
| 38>     H       19.1805899   13.9905669   18.8988415
| 39>     H       18.0576869   12.2902018   20.3131942
| 40>     H       16.1601115   12.9618258   21.7914332
| 41>     H       14.9292306   14.6275776   22.5045890
| 42>     H       16.5207301   17.0252320   20.4465057
| 43> *
| 44> 
| 45>                          ****END OF INPUT****
================================================================================

                       ****************************
                       * Single Point Calculation *
                       ****************************

---------------------------------
CARTESIAN COORDINATES (ANGSTROEM)
---------------------------------
  C     14.983229   15.551234   17.188504
  C     15.768165   14.859226   16.056923
  O     16.876536   15.647083   15.567669
  C     17.995675   15.825855   16.333443
  O     18.762582   14.891315   16.482045
  C     17.894822   16.910134   17.365055
  C     17.288506   18.098862   17.121490
  C     16.652501   18.554810   15.823325
  N     17.334493   19.111684   18.083860
  C     18.137801   19.092686   19.193931
  S     18.258645   20.396100   20.204370
  N     18.839965   17.935238   19.421693
  C     18.639684   16.670545   18.686598
  C     17.939388   15.634019   19.565914
  C     18.359849   14.290956   19.546438
  C     17.723230   13.325743   20.344113
  C     16.655695   13.704439   21.174937
  C     16.234269   15.040245   21.202561
  O     15.198696   15.408434   21.997973
  C     16.870061   15.998985   20.407351
  H     15.596237   15.677599   18.083082
  H     14.120500   14.936449   17.472635
  H     14.602924   16.528375   16.874493
  H     16.136102   13.885759   16.409637
  H     15.080234   14.667101   15.223544
  H     15.628609   18.179944   15.724165
  H     17.223520   18.196421   14.957622
  H     16.615174   19.648179   15.742343
  H     16.834535   19.972514   17.927591
  H     19.410884   17.940347   20.257389
  H     19.636140   16.276314   18.438739
  H     19.180590   13.990567   18.898841
  H     18.057687   12.290202   20.313194
  H     16.160111   12.961826   21.791433
  H     14.929231   14.627578   22.504589
  H     16.520730   17.025232   20.446506

----------------------------
CARTESIAN COORDINATES (A.U.)
----------------------------
  NO LB      ZA    FRAG     MASS         X           Y           Z
   0 C     6.0000    0    12.011   28.314200   29.387573   32.481566
   1 C     6.0000    0    12.011   29.797514   28.079868   30.343188
   2 O     8.0000    0    15.999   31.892031   29.568702   29.418631
   3 C     6.0000    0    12.011   34.006897   29.906531   30.865735
   4 O     8.0000    0    15.999   35.456142   28.140507   31.146551
   5 C     6.0000    0    12.011   33.816312   31.955522   32.815197
   6 C     6.0000    0    12.011   32.670542   34.201893   32.354928
   7 C     6.0000    0    12.011   31.468666   35.063509   29.901752
   8 N     7.0000    0    14.007   32.757445   36.115849   34.173543
   9 C     6.0000    0    12.011   34.275477   36.079948   36.271272
  10 S    16.0000    0    32.060   34.503838   38.543043   38.180727
  11 N     7.0000    0    14.007   35.602374   33.892688   36.701680
  12 C     6.0000    0    12.011   35.223897   31.502765   35.312552
  13 C     6.0000    0    12.011   33.900530   29.544014   36.974218
  14 C     6.0000    0    12.011   34.695086   27.005994   36.937414
  15 C     6.0000    0    12.011   33.492050   25.182006   38.444802
  16 C     6.0000    0    12.011   31.474703   25.897636   40.014831
  17 C     6.0000    0    12.011   30.678322   28.421943   40.067034
  18 O     8.0000    0    15.999   28.721373   29.117721   41.570144
  19 C     6.0000    0    12.011   31.879795   30.233701   38.564305
  20 H     1.0000    0     1.008   29.472617   29.626369   34.172073
  21 H     1.0000    0     1.008   26.683877   28.225798   33.018496
  22 H     1.0000    0     1.008   27.595526   31.234101   31.888171
  23 H     1.0000    0     1.008   30.492814   26.240282   31.009721
  24 H     1.0000    0     1.008   28.497513   27.716804   28.768330
  25 H     1.0000    0     1.008   29.533790   34.355115   29.714366
  26 H     1.0000    0     1.008   32.547735   34.386252   28.265810
  27 H     1.0000    0     1.008   31.398129   37.129678   29.748718
  28 H     1.0000    0     1.008   31.812661   37.742582   33.878238
  29 H     1.0000    0     1.008   36.681255   33.902343   38.280917
  30 H     1.0000    0     1.008   37.106927   30.757775   34.844168
  31 H     1.0000    0     1.008   36.246062   26.438340   35.713635
  32 H     1.0000    0     1.008   34.124083   23.225116   38.386374
  33 H     1.0000    0     1.008   30.538185   24.494301   41.179841
  34 H     1.0000    0     1.008   28.212157   27.642116   42.527510
  35 H     1.0000    0     1.008   31.219655   32.173026   38.638296

--------------------------------
INTERNAL COORDINATES (ANGSTROEM)
--------------------------------
 C      0   0   0     0.000000000000     0.00000000     0.00000000
 C      1   0   0     1.541257388831     0.00000000     0.00000000
 O      2   1   0     1.445190314474   113.22679351     0.00000000
 C      3   2   1     1.367786663475   120.61280695    71.27756217
 O      4   3   2     1.218028760075   118.89418097    72.80510392
 C      4   3   2     1.500018326161   115.11909696   277.85498737
 C      6   4   3     1.356472166518   122.68506595   319.67183628
 C      7   6   4     1.515791341046   127.22346083   358.71687146
 N      7   6   4     1.397883407600   119.77672077   185.78996923
 C      9   7   6     1.370372718881   124.53553265    11.29535174
 S     10   9   7     1.653625668708   121.79542943   173.36681698
 N     10   9   7     1.372806208918   116.48170333   353.51688173
 C     12  10   9     1.476456967400   124.76511431   350.49788042
 C     13  12  10     1.529051312908   110.88367345   252.60679840
 C     14  13  12     1.407473951538   120.13833321   221.54282209
 C     15  14  13     1.404708588445   120.82621438   180.26765011
 C     16  15  14     1.404744604619   119.67163022   359.83089357
 C     17  16  15     1.400978296136   119.82176451   359.97696993
 O     18  17  16     1.356707295073   119.99518925   179.62649910
 C     18  17  16     1.398489962327   120.37749204     0.00000000
 H      1   2   3     1.091794874529   111.56722136   295.00842628
 H      1   2   3     1.096810300575   109.82318043   176.39971352
 H      1   2   3     1.094550049513   111.53995235    57.27306879
 H      2   1   3     1.098827778159   109.42829959   122.52883425
 H      2   1   3     1.097579952870   108.47274468   239.37339767
 H      8   7   6     1.094857007227   111.52864439    83.19536930
 H      8   7   6     1.097245284620   111.04471299   323.11359790
 H      8   7   6     1.096999743237   112.16668273   204.00242541
 H      9   7   6     1.007673656133   119.72713512   183.90677104
 H     12  10   9     1.012107937017   114.91390890   181.17699258
 H     13  12  10     1.099898948990   107.23669846   135.45880286
 H     15  14  13     1.087764084382   119.81195816   359.59410554
 H     16  15  14     1.088652406899   119.88384288   179.68337581
 H     17  16  15     1.084963444565   119.91236014   179.89886569
 H     19  18  17     0.969024780794   107.46269002     3.73880817
 H     20  18  17     1.084779744170   118.79226433   179.80888470

---------------------------
INTERNAL COORDINATES (A.U.)
---------------------------
 C      0   0   0     0.000000000000     0.00000000     0.00000000
 C      1   0   0     2.912554366774     0.00000000     0.00000000
 O      2   1   0     2.731013905751   113.22679351     0.00000000
 C      3   2   1     2.584742203598   120.61280695    71.27756217
 O      4   3   2     2.301740779781   118.89418097    72.80510392
 C      4   3   2     2.834623832308   115.11909696   277.85498737
 C      6   4   3     2.563360903005   122.68506595   319.67183628
 C      7   6   4     2.864430510747   127.22346083   358.71687146
 N      7   6   4     2.641616807516   119.77672077   185.78996923
 C      9   7   6     2.589629140083   124.53553265    11.29535174
 S     10   9   7     3.124899641880   121.79542943   173.36681698
 N     10   9   7     2.594227769802   116.48170333   353.51688173
 C     12  10   9     2.790099316905   124.76511431   350.49788042
 C     13  12  10     2.889488226109   110.88367345   252.60679840
 C     14  13  12     2.659740309035   120.13833321   221.54282209
 C     15  14  13     2.654514530128   120.82621438   180.26765011
 C     16  15  14     2.654582590834   119.67163022   359.83089357
 C     17  16  15     2.647465299265   119.82176451   359.97696993
 O     18  17  16     2.563805231580   119.99518925   179.62649910
 C     18  17  16     2.642763029836   120.37749204     0.00000000
 H      1   2   3     2.063193307278   111.56722136   295.00842628
 H      1   2   3     2.072671088951   109.82318043   176.39971352
 H      1   2   3     2.068399833450   111.53995235    57.27306879
 H      2   1   3     2.076483569066   109.42829959   122.52883425
 H      2   1   3     2.074125521007   108.47274468   239.37339767
 H      8   7   6     2.068979899463   111.52864439    83.19536930
 H      8   7   6     2.073493089668   111.04471299   323.11359790
 H      8   7   6     2.073029083700   112.16668273   204.00242541
 H      9   7   6     1.904227242458   119.72713512   183.90677104
 H     12  10   9     1.912606818931   114.91390890   181.17699258
 H     13  12  10     2.078507788580   107.23669846   135.45880286
 H     15  14  13     2.055576217798   119.81195816   359.59410554
 H     16  15  14     2.057254904074   119.88384288   179.68337581
 H     17  16  15     2.050283775544   119.91236014   179.89886569
 H     19  18  17     1.831191452683   107.46269002     3.73880817
 H     20  18  17     2.049936632107   118.79226433   179.80888470

---------------------
BASIS SET INFORMATION
---------------------
There are 5 groups of distinct atoms

 Group   1 Type C   : 18s5p2d1f contracted to 4s3p2d1f pattern {8811/311/11/1}
 Group   2 Type O   : 18s5p2d1f contracted to 4s3p2d1f pattern {8811/311/11/1}
 Group   3 Type N   : 18s5p2d1f contracted to 4s3p2d1f pattern {8811/311/11/1}
 Group   4 Type S   : 41s16p2d1f contracted to 5s4p2d1f pattern {13131311/7711/11/1}
 Group   5 Type H   : 5s2p1d contracted to 3s2p1d pattern {311/11/1}

Atom   0C    basis set group =>   1
Atom   1C    basis set group =>   1
Atom   2O    basis set group =>   2
Atom   3C    basis set group =>   1
Atom   4O    basis set group =>   2
Atom   5C    basis set group =>   1
Atom   6C    basis set group =>   1
Atom   7C    basis set group =>   1
Atom   8N    basis set group =>   3
Atom   9C    basis set group =>   1
Atom  10S    basis set group =>   4
Atom  11N    basis set group =>   3
Atom  12C    basis set group =>   1
Atom  13C    basis set group =>   1
Atom  14C    basis set group =>   1
Atom  15C    basis set group =>   1
Atom  16C    basis set group =>   1
Atom  17C    basis set group =>   1
Atom  18O    basis set group =>   2
Atom  19C    basis set group =>   1
Atom  20H    basis set group =>   5
Atom  21H    basis set group =>   5
Atom  22H    basis set group =>   5
Atom  23H    basis set group =>   5
Atom  24H    basis set group =>   5
Atom  25H    basis set group =>   5
Atom  26H    basis set group =>   5
Atom  27H    basis set group =>   5
Atom  28H    basis set group =>   5
Atom  29H    basis set group =>   5
Atom  30H    basis set group =>   5
Atom  31H    basis set group =>   5
Atom  32H    basis set group =>   5
Atom  33H    basis set group =>   5
Atom  34H    basis set group =>   5
Atom  35H    basis set group =>   5
---------------------------------
AUXILIARY/C BASIS SET INFORMATION
---------------------------------
There are 5 groups of distinct atoms

 Group   1 Type C   : 8s6p5d3f1g contracted to 8s6p5d3f1g pattern {11111111/111111/11111/111/1}
 Group   2 Type O   : 8s6p5d3f1g contracted to 8s6p5d3f1g pattern {11111111/111111/11111/111/1}
 Group   3 Type N   : 8s6p5d3f1g contracted to 8s6p5d3f1g pattern {11111111/111111/11111/111/1}
 Group   4 Type S   : 10s8p7d5f2g contracted to 10s8p7d5f2g pattern {1111111111/11111111/1111111/11111/11}
 Group   5 Type H   : 4s3p2d1f contracted to 4s3p2d1f pattern {1111/111/11/1}

Atom   0C    basis set group =>   1
Atom   1C    basis set group =>   1
Atom   2O    basis set group =>   2
Atom   3C    basis set group =>   1
Atom   4O    basis set group =>   2
Atom   5C    basis set group =>   1
Atom   6C    basis set group =>   1
Atom   7C    basis set group =>   1
Atom   8N    basis set group =>   3
Atom   9C    basis set group =>   1
Atom  10S    basis set group =>   4
Atom  11N    basis set group =>   3
Atom  12C    basis set group =>   1
Atom  13C    basis set group =>   1
Atom  14C    basis set group =>   1
Atom  15C    basis set group =>   1
Atom  16C    basis set group =>   1
Atom  17C    basis set group =>   1
Atom  18O    basis set group =>   2
Atom  19C    basis set group =>   1
Atom  20H    basis set group =>   5
Atom  21H    basis set group =>   5
Atom  22H    basis set group =>   5
Atom  23H    basis set group =>   5
Atom  24H    basis set group =>   5
Atom  25H    basis set group =>   5
Atom  26H    basis set group =>   5
Atom  27H    basis set group =>   5
Atom  28H    basis set group =>   5
Atom  29H    basis set group =>   5
Atom  30H    basis set group =>   5
Atom  31H    basis set group =>   5
Atom  32H    basis set group =>   5
Atom  33H    basis set group =>   5
Atom  34H    basis set group =>   5
Atom  35H    basis set group =>   5
------------------------------------------------------------------------------
                           ORCA GTO INTEGRAL CALCULATION
------------------------------------------------------------------------------

                         BASIS SET STATISTICS AND STARTUP INFO

 # of primitive gaussian shells          ...  682
 # of primitive gaussian functions       ... 1312
 # of contracted shells                  ...  298
 # of contracted basis functions         ...  828
 Highest angular momentum                ...    3
 Maximum contraction depth               ...   13
 Integral package used                   ... LIBINT
 Integral threshhold            Thresh   ...  2.500e-11
 Primitive cut-off              TCut     ...  2.500e-12


------------------------------ INTEGRAL EVALUATION ----------------------------


 * One electron integrals 
 Pre-screening matrix                    ... done
 Shell pair data                         ... done (   0.015 sec)

-------------------------------------------------------------------------------
                                 ORCA SCF
-------------------------------------------------------------------------------

------------
SCF SETTINGS
------------
Hamiltonian:
 Ab initio Hamiltonian  Method          .... Hartree-Fock(GTOs)


General Settings:
 Integral files         IntName         .... CONFS/Conf661.orca
 Hartree-Fock type      HFTyp           .... RHF
 Total Charge           Charge          ....    0
 Multiplicity           Mult            ....    1
 Number of Electrons    NEL             ....  154
 Basis Dimension        Dim             ....  828
 Nuclear Repulsion      ENuc            ....   1734.1257986881 Eh

Convergence Acceleration:
 DIIS                   CNVDIIS         .... on
   Start iteration      DIISMaxIt       ....    12
   Startup error        DIISStart       ....  0.200000
   # of expansion vecs  DIISMaxEq       ....     5
   Bias factor          DIISBfac        ....   1.050
   Max. coefficient     DIISMaxC        ....  10.000
 Newton-Raphson         CNVNR           .... off
 SOSCF                  CNVSOSCF        .... on
   Start iteration      SOSCFMaxIt      ....   150
   Startup grad/error   SOSCFStart      ....  0.003300
 Level Shifting         CNVShift        .... on
   Level shift para.    LevelShift      ....    0.2500
   Turn off err/grad.   ShiftErr        ....    0.0010
 Zerner damping         CNVZerner       .... off
 Static damping         CNVDamp         .... on
   Fraction old density DampFac         ....    0.7000
   Max. Damping (<1)    DampMax         ....    0.9800
   Min. Damping (>=0)   DampMin         ....    0.0000
   Turn off err/grad.   DampErr         ....    0.1000
 Fernandez-Rico         CNVRico         .... off

SCF Procedure:
 Maximum # iterations   MaxIter         ....   125
 SCF integral mode      SCFMode         .... Direct
   Integral package                     .... LIBINT
 Reset frequency        DirectResetFreq ....    20
 Integral Threshold     Thresh          ....  2.500e-11 Eh
 Primitive CutOff       TCut            ....  2.500e-12 Eh

Convergence Tolerance:
 Convergence Check Mode ConvCheckMode   .... Total+1el-Energy
 Convergence forced     ConvForced      .... 1
 Energy Change          TolE            ....  1.000e-08 Eh
 1-El. energy change                    ....  1.000e-05 Eh
 Orbital Gradient       TolG            ....  1.000e-05
 Orbital Rotation angle TolX            ....  1.000e-05
 DIIS Error             TolErr          ....  5.000e-07


Diagonalization of the overlap matrix:
Smallest eigenvalue                        ... 3.205e-05
Time for diagonalization                   ...    0.127 sec
Threshold for overlap eigenvalues          ... 1.000e-08
Number of eigenvalues below threshold      ... 0
Time for construction of square roots      ...    0.081 sec
Total time needed                          ...    0.213 sec

-------------------
DFT GRID GENERATION
-------------------

General Integration Accuracy     IntAcc      ...  4.340
Radial Grid Type                 RadialGrid  ... Gauss-Chebyshev
Angular Grid (max. acc.)         AngularGrid ... Lebedev-110
Angular grid pruning method      GridPruning ... 3 (G Style)
Weight generation scheme         WeightScheme... Becke
Basis function cutoff            BFCut       ...    1.0000e-11
Integration weight cutoff        WCut        ...    1.0000e-14
Grids for H and He will be reduced by one unit

# of grid points (after initial pruning)     ...  46246 (   0.0 sec)
# of grid points (after weights+screening)   ...  41148 (   0.3 sec)
nearest neighbour list constructed           ...    0.0 sec
Grid point re-assignment to atoms done       ...    0.0 sec
Grid point division into batches done        ...    0.0 sec
Reduced shell lists constructed in    1.1 sec

Total number of grid points                  ...    41148
Total number of batches                      ...      660
Average number of points per batch           ...       62
Average number of grid points per atom       ...     1143
Average number of shells per batch           ...   155.72 (52.25%)
Average number of basis functions per batch  ...   396.59 (47.90%)
Average number of large shells per batch     ...   100.19 (64.34%)
Average number of large basis fcns per batch ...   255.95 (64.54%)
Maximum spatial batch extension              ...  21.07, 20.78, 19.94 au
Average spatial batch extension              ...   3.57,  3.40,  3.43 au

Time for grid setup =    1.409 sec

------------------------------
INITIAL GUESS: MODEL POTENTIAL
------------------------------
Loading Hartree-Fock densities                     ... done
Calculating cut-offs                               ... done
Setting up the integral package                    ... done
Initializing the effective Hamiltonian             ... done
Starting the Coulomb interaction                   ... done (   3.3 sec)
Reading the grid                                   ... done
Mapping shells                                     ... done
Starting the XC term evaluation                    ... done (   1.6 sec)
Transforming the Hamiltonian                       ... done (   0.1 sec)
Diagonalizing the Hamiltonian                      ... done (   0.1 sec)
Back transforming the eigenvectors                 ... done (   0.0 sec)
Now organizing SCF variables                       ... done
                      ------------------
                      INITIAL GUESS DONE (   7.1 sec)
                      ------------------
--------------
SCF ITERATIONS
--------------
ITER       Energy         Delta-E        Max-DP      RMS-DP      [F,P]     Damp
               ***  Starting incremental Fock matrix formation  ***
  0  -1269.9890650014   0.000000000000 0.04940127  0.00044619  0.3035049 0.7000
  1  -1270.2561992018  -0.267134200357 0.03614041  0.00036078  0.1764501 0.7000
                               ***Turning on DIIS***
  2  -1270.4225439398  -0.166344738058 0.02587890  0.00024027  0.1097245 0.7000
  3  -1272.5608922011  -2.138348261292 0.06322819  0.00051796  0.0828624 0.0000
  4  -1270.7306941484   1.830198052683 0.01499780  0.00010574  0.0070638 0.0000
  5  -1270.7909974662  -0.060303317729 0.00657204  0.00005573  0.0041300 0.0000
                      *** Initiating the SOSCF procedure ***
                           *** Shutting down DIIS ***
                      *** Re-Reading the Fockian *** 
                      *** Removing any level shift *** 
ITER      Energy       Delta-E        Grad      Rot      Max-DP    RMS-DP
  6  -1270.76921938   0.0217780848  0.001608  0.001608  0.003112  0.000029
               *** Restarting incremental Fock matrix formation ***
  7  -1270.78408870  -0.0148693214  0.000939  0.002431  0.002291  0.000018
  8  -1270.78414471  -0.0000560074  0.000433  0.002991  0.002547  0.000022
  9  -1270.78416737  -0.0000226570  0.000158  0.000315  0.000388  0.000005
 10  -1270.78417042  -0.0000030481  0.000061  0.000156  0.000136  0.000002
 11  -1270.78417071  -0.0000002996  0.000026  0.000158  0.000095  0.000001
 12  -1270.78417080  -0.0000000827  0.000011  0.000039  0.000028  0.000000
 13  -1270.78417080  -0.0000000052  0.000003  0.000006  0.000006  0.000000
                  ***Gradient check signals convergence***
              ***Rediagonalizing the Fockian in SOSCF/NRSCF***

               *****************************************************
               *                     SUCCESS                       *
               *           SCF CONVERGED AFTER  14 CYCLES          *
               *****************************************************


----------------
TOTAL SCF ENERGY
----------------

Total Energy       :        -1270.78417080 Eh          -34579.79529 eV

Components:
Nuclear Repulsion  :         1734.12579869 Eh           47187.96197 eV
Electronic Energy  :        -3004.90996949 Eh          -81767.75726 eV
One Electron Energy:        -5189.27398576 Eh         -141207.32399 eV
Two Electron Energy:         2184.36401627 Eh           59439.56673 eV

Virial components:
Potential Energy   :        -2539.79137170 Eh          -69111.23677 eV
Kinetic Energy     :         1269.00720090 Eh           34531.44148 eV
Virial Ratio       :            2.00140028


---------------
SCF CONVERGENCE
---------------

  Last Energy change         ...    1.1287e-09  Tolerance :   1.0000e-08
  Last MAX-Density change    ...    2.9791e-06  Tolerance :   1.0000e-07
  Last RMS-Density change    ...    4.1136e-08  Tolerance :   5.0000e-09
  Last Orbital Gradient      ...    1.3251e-06  Tolerance :   1.0000e-05
  Last Orbital Rotation      ...    3.5795e-06  Tolerance :   1.0000e-05

             **** THE GBW FILE WAS UPDATED (CONFS/Conf661.orca.gbw) ****
             **** DENSITY FILE WAS UPDATED (CONFS/Conf661.orca.scfp) ****
             **** ENERGY FILE WAS UPDATED (CONFS/Conf661.orca.en.tmp) ****
             **** THE GBW FILE WAS UPDATED (CONFS/Conf661.orca.gbw) ****
             **** DENSITY FILE WAS UPDATED (CONFS/Conf661.orca.scfp) ****
----------------
ORBITAL ENERGIES
----------------

  NO   OCC          E(Eh)            E(eV) 
   0   2.0000     -91.891039     -2500.4823 
   1   2.0000     -20.596161      -560.4500 
   2   2.0000     -20.581112      -560.0405 
   3   2.0000     -20.555202      -559.3355 
   4   2.0000     -15.630664      -425.3320 
   5   2.0000     -15.609812      -424.7646 
   6   2.0000     -11.395180      -310.0786 
   7   2.0000     -11.386255      -309.8358 
   8   2.0000     -11.336005      -308.4684 
   9   2.0000     -11.312789      -307.8366 
  10   2.0000     -11.311104      -307.7908 
  11   2.0000     -11.304080      -307.5996 
  12   2.0000     -11.262254      -306.4615 
  13   2.0000     -11.262151      -306.4587 
  14   2.0000     -11.259906      -306.3976 
  15   2.0000     -11.253044      -306.2109 
  16   2.0000     -11.242413      -305.9216 
  17   2.0000     -11.238353      -305.8111 
  18   2.0000     -11.234632      -305.7099 
  19   2.0000     -11.228149      -305.5335 
  20   2.0000      -8.896095      -242.0750 
  21   2.0000      -6.577670      -178.9875 
  22   2.0000      -6.575662      -178.9329 
  23   2.0000      -6.575072      -178.9168 
  24   2.0000      -1.448289       -39.4100 
  25   2.0000      -1.415995       -38.5312 
  26   2.0000      -1.353908       -36.8417 
  27   2.0000      -1.341886       -36.5146 
  28   2.0000      -1.239749       -33.7353 
  29   2.0000      -1.156674       -31.4747 
  30   2.0000      -1.122498       -30.5447 
  31   2.0000      -1.044975       -28.4352 
  32   2.0000      -1.033696       -28.1283 
  33   2.0000      -1.014957       -27.6184 
  34   2.0000      -1.001608       -27.2551 
  35   2.0000      -0.988637       -26.9022 
  36   2.0000      -0.925437       -25.1824 
  37   2.0000      -0.892380       -24.2829 
  38   2.0000      -0.850572       -23.1452 
  39   2.0000      -0.840213       -22.8634 
  40   2.0000      -0.832919       -22.6649 
  41   2.0000      -0.821723       -22.3602 
  42   2.0000      -0.751646       -20.4533 
  43   2.0000      -0.734336       -19.9823 
  44   2.0000      -0.728708       -19.8291 
  45   2.0000      -0.694849       -18.9078 
  46   2.0000      -0.687419       -18.7056 
  47   2.0000      -0.675546       -18.3825 
  48   2.0000      -0.674079       -18.3426 
  49   2.0000      -0.661818       -18.0090 
  50   2.0000      -0.653272       -17.7764 
  51   2.0000      -0.647050       -17.6071 
  52   2.0000      -0.639563       -17.4034 
  53   2.0000      -0.611008       -16.6264 
  54   2.0000      -0.603562       -16.4238 
  55   2.0000      -0.600621       -16.3437 
  56   2.0000      -0.598001       -16.2724 
  57   2.0000      -0.586648       -15.9635 
  58   2.0000      -0.574917       -15.6443 
  59   2.0000      -0.567618       -15.4457 
  60   2.0000      -0.562785       -15.3141 
  61   2.0000      -0.552635       -15.0380 
  62   2.0000      -0.546036       -14.8584 
  63   2.0000      -0.525419       -14.2974 
  64   2.0000      -0.520041       -14.1510 
  65   2.0000      -0.513288       -13.9673 
  66   2.0000      -0.500447       -13.6179 
  67   2.0000      -0.490948       -13.3594 
  68   2.0000      -0.482772       -13.1369 
  69   2.0000      -0.465075       -12.6553 
  70   2.0000      -0.454995       -12.3810 
  71   2.0000      -0.453056       -12.3283 
  72   2.0000      -0.356893        -9.7115 
  73   2.0000      -0.347390        -9.4530 
  74   2.0000      -0.330225        -8.9859 
  75   2.0000      -0.321216        -8.7407 
  76   2.0000      -0.318163        -8.6577 
  77   0.0000       0.068962         1.8765 
  78   0.0000       0.105798         2.8789 
  79   0.0000       0.119591         3.2542 
  80   0.0000       0.131073         3.5667 
  81   0.0000       0.132465         3.6046 
  82   0.0000       0.144890         3.9427 
  83   0.0000       0.150311         4.0902 
  84   0.0000       0.151536         4.1235 
  85   0.0000       0.159918         4.3516 
  86   0.0000       0.172925         4.7055 
  87   0.0000       0.176072         4.7912 
  88   0.0000       0.193297         5.2599 
  89   0.0000       0.199190         5.4202 
  90   0.0000       0.204959         5.5772 
  91   0.0000       0.206846         5.6286 
  92   0.0000       0.210281         5.7220 
  93   0.0000       0.214413         5.8345 
  94   0.0000       0.218835         5.9548 
  95   0.0000       0.239949         6.5293 
  96   0.0000       0.244627         6.6566 
  97   0.0000       0.252402         6.8682 
  98   0.0000       0.277577         7.5533 
  99   0.0000       0.288005         7.8370 
 100   0.0000       0.289870         7.8878 
 101   0.0000       0.310351         8.4451 
 102   0.0000       0.313442         8.5292 
 103   0.0000       0.324407         8.8276 
 104   0.0000       0.329062         8.9542 
 105   0.0000       0.342521         9.3205 
 106   0.0000       0.347455         9.4547 
 107   0.0000       0.350202         9.5295 
 108   0.0000       0.359182         9.7738 
 109   0.0000       0.363704         9.8969 
 110   0.0000       0.366324         9.9682 
 111   0.0000       0.375847        10.2273 
 112   0.0000       0.376945        10.2572 
 113   0.0000       0.386193        10.5089 
 114   0.0000       0.392489        10.6802 
 115   0.0000       0.401933        10.9371 
 116   0.0000       0.410730        11.1765 
 117   0.0000       0.424134        11.5413 
 118   0.0000       0.428925        11.6716 
 119   0.0000       0.437117        11.8945 
 120   0.0000       0.448356        12.2004 
 121   0.0000       0.450579        12.2609 
 122   0.0000       0.455712        12.4005 
 123   0.0000       0.459488        12.5033 
 124   0.0000       0.464394        12.6368 
 125   0.0000       0.474441        12.9102 
 126   0.0000       0.479109        13.0372 
 127   0.0000       0.490617        13.3504 
 128   0.0000       0.492189        13.3932 
 129   0.0000       0.500718        13.6252 
 130   0.0000       0.504374        13.7247 
 131   0.0000       0.509351        13.8602 
 132   0.0000       0.513468        13.9722 
 133   0.0000       0.520270        14.1573 
 134   0.0000       0.525980        14.3127 
 135   0.0000       0.528087        14.3700 
 136   0.0000       0.536868        14.6089 
 137   0.0000       0.540740        14.7143 
 138   0.0000       0.547036        14.8856 
 139   0.0000       0.550194        14.9715 
 140   0.0000       0.558103        15.1868 
 141   0.0000       0.561364        15.2755 
 142   0.0000       0.567748        15.4492 
 143   0.0000       0.576042        15.6749 
 144   0.0000       0.579753        15.7759 
 145   0.0000       0.581453        15.8221 
 146   0.0000       0.586570        15.9614 
 147   0.0000       0.590204        16.0603 
 148   0.0000       0.594838        16.1864 
 149   0.0000       0.598609        16.2890 
 150   0.0000       0.606558        16.5053 
 151   0.0000       0.609700        16.5908 
 152   0.0000       0.612421        16.6648 
 153   0.0000       0.619204        16.8494 
 154   0.0000       0.623557        16.9678 
 155   0.0000       0.631528        17.1847 
 156   0.0000       0.634289        17.2599 
 157   0.0000       0.641199        17.4479 
 158   0.0000       0.643018        17.4974 
 159   0.0000       0.645669        17.5695 
 160   0.0000       0.649469        17.6729 
 161   0.0000       0.658442        17.9171 
 162   0.0000       0.659247        17.9390 
 163   0.0000       0.669661        18.2224 
 164   0.0000       0.673298        18.3214 
 165   0.0000       0.682878        18.5821 
 166   0.0000       0.684117        18.6158 
 167   0.0000       0.690607        18.7924 
 168   0.0000       0.694548        18.8996 
 169   0.0000       0.698696        19.0125 
 170   0.0000       0.702124        19.1058 
 171   0.0000       0.710926        19.3453 
 172   0.0000       0.716669        19.5016 
 173   0.0000       0.723018        19.6743 
 174   0.0000       0.731547        19.9064 
 175   0.0000       0.732899        19.9432 
 176   0.0000       0.742207        20.1965 
 177   0.0000       0.748262        20.3612 
 178   0.0000       0.750898        20.4330 
 179   0.0000       0.753288        20.4980 
 180   0.0000       0.763246        20.7690 
 181   0.0000       0.771203        20.9855 
 182   0.0000       0.785944        21.3866 
 183   0.0000       0.797945        21.7132 
 184   0.0000       0.802790        21.8450 
 185   0.0000       0.809080        22.0162 
 186   0.0000       0.817702        22.2508 
 187   0.0000       0.824465        22.4348 
 188   0.0000       0.836879        22.7726 
 189   0.0000       0.837198        22.7813 
 190   0.0000       0.844597        22.9827 
 191   0.0000       0.856582        23.3088 
 192   0.0000       0.869800        23.6685 
 193   0.0000       0.872866        23.7519 
 194   0.0000       0.881869        23.9969 
 195   0.0000       0.882999        24.0276 
 196   0.0000       0.892990        24.2995 
 197   0.0000       0.901226        24.5236 
 198   0.0000       0.911795        24.8112 
 199   0.0000       0.913082        24.8462 
 200   0.0000       0.917971        24.9793 
 201   0.0000       0.929906        25.3040 
 202   0.0000       0.935908        25.4673 
 203   0.0000       0.939035        25.5524 
 204   0.0000       0.947820        25.7915 
 205   0.0000       0.954643        25.9771 
 206   0.0000       0.957481        26.0544 
 207   0.0000       0.970477        26.4080 
 208   0.0000       0.974962        26.5301 
 209   0.0000       0.982634        26.7388 
 210   0.0000       0.992127        26.9972 
 211   0.0000       0.996144        27.1064 
 212   0.0000       1.004312        27.3287 
 213   0.0000       1.008824        27.4515 
 214   0.0000       1.011710        27.5300 
 215   0.0000       1.025547        27.9066 
 216   0.0000       1.031123        28.0583 
 217   0.0000       1.038038        28.2464 
 218   0.0000       1.040702        28.3190 
 219   0.0000       1.047864        28.5138 
 220   0.0000       1.054562        28.6961 
 221   0.0000       1.061955        28.8973 
 222   0.0000       1.073380        29.2082 
 223   0.0000       1.086695        29.5705 
 224   0.0000       1.088262        29.6131 
 225   0.0000       1.092686        29.7335 
 226   0.0000       1.105388        30.0791 
 227   0.0000       1.113080        30.2885 
 228   0.0000       1.118730        30.4422 
 229   0.0000       1.125605        30.6293 
 230   0.0000       1.131710        30.7954 
 231   0.0000       1.134946        30.8834 
 232   0.0000       1.140510        31.0348 
 233   0.0000       1.157688        31.5023 
 234   0.0000       1.163073        31.6488 
 235   0.0000       1.169295        31.8181 
 236   0.0000       1.169970        31.8365 
 237   0.0000       1.178258        32.0620 
 238   0.0000       1.179541        32.0970 
 239   0.0000       1.187682        32.3185 
 240   0.0000       1.192213        32.4418 
 241   0.0000       1.197361        32.5818 
 242   0.0000       1.216206        33.0946 
 243   0.0000       1.219039        33.1717 
 244   0.0000       1.225811        33.3560 
 245   0.0000       1.239829        33.7375 
 246   0.0000       1.244439        33.8629 
 247   0.0000       1.249373        33.9972 
 248   0.0000       1.258893        34.2562 
 249   0.0000       1.270199        34.5639 
 250   0.0000       1.280696        34.8495 
 251   0.0000       1.284618        34.9562 
 252   0.0000       1.292014        35.1575 
 253   0.0000       1.308196        35.5978 
 254   0.0000       1.314582        35.7716 
 255   0.0000       1.316874        35.8340 
 256   0.0000       1.325528        36.0695 
 257   0.0000       1.329596        36.1802 
 258   0.0000       1.334305        36.3083 
 259   0.0000       1.343465        36.5575 
 260   0.0000       1.346380        36.6369 
 261   0.0000       1.350206        36.7410 
 262   0.0000       1.358439        36.9650 
 263   0.0000       1.360703        37.0266 
 264   0.0000       1.375831        37.4383 
 265   0.0000       1.387357        37.7519 
 266   0.0000       1.405190        38.2372 
 267   0.0000       1.409858        38.3642 
 268   0.0000       1.411548        38.4102 
 269   0.0000       1.416836        38.5541 
 270   0.0000       1.422073        38.6966 
 271   0.0000       1.430553        38.9273 
 272   0.0000       1.443873        39.2898 
 273   0.0000       1.448616        39.4188 
 274   0.0000       1.454348        39.5748 
 275   0.0000       1.463521        39.8244 
 276   0.0000       1.471824        40.0504 
 277   0.0000       1.485255        40.4158 
 278   0.0000       1.488653        40.5083 
 279   0.0000       1.494709        40.6731 
 280   0.0000       1.495783        40.7023 
 281   0.0000       1.505934        40.9786 
 282   0.0000       1.512247        41.1503 
 283   0.0000       1.515826        41.2477 
 284   0.0000       1.526685        41.5432 
 285   0.0000       1.531376        41.6708 
 286   0.0000       1.546429        42.0805 
 287   0.0000       1.551736        42.2249 
 288   0.0000       1.554125        42.2899 
 289   0.0000       1.565102        42.5886 
 290   0.0000       1.566905        42.6377 
 291   0.0000       1.574881        42.8547 
 292   0.0000       1.581039        43.0223 
 293   0.0000       1.589861        43.2623 
 294   0.0000       1.596122        43.4327 
 295   0.0000       1.601984        43.5922 
 296   0.0000       1.610990        43.8373 
 297   0.0000       1.621615        44.1264 
 298   0.0000       1.628777        44.3213 
 299   0.0000       1.632097        44.4116 
 300   0.0000       1.637996        44.5721 
 301   0.0000       1.651529        44.9404 
 302   0.0000       1.655567        45.0503 
 303   0.0000       1.663174        45.2573 
 304   0.0000       1.677197        45.6388 
 305   0.0000       1.683196        45.8021 
 306   0.0000       1.690062        45.9889 
 307   0.0000       1.696537        46.1651 
 308   0.0000       1.710070        46.5334 
 309   0.0000       1.720282        46.8113 
 310   0.0000       1.721648        46.8484 
 311   0.0000       1.727479        47.0071 
 312   0.0000       1.737828        47.2887 
 313   0.0000       1.749719        47.6123 
 314   0.0000       1.755048        47.7573 
 315   0.0000       1.761941        47.9449 
 316   0.0000       1.768276        48.1172 
 317   0.0000       1.780806        48.4582 
 318   0.0000       1.787785        48.6481 
 319   0.0000       1.815125        49.3921 
 320   0.0000       1.828260        49.7495 
 321   0.0000       1.830786        49.8182 
 322   0.0000       1.841045        50.0974 
 323   0.0000       1.851876        50.3921 
 324   0.0000       1.874690        51.0129 
 325   0.0000       1.881584        51.2005 
 326   0.0000       1.903558        51.7984 
 327   0.0000       1.908646        51.9369 
 328   0.0000       1.913541        52.0701 
 329   0.0000       1.924178        52.3596 
 330   0.0000       1.942840        52.8674 
 331   0.0000       1.945572        52.9417 
 332   0.0000       1.958357        53.2896 
 333   0.0000       1.974425        53.7268 
 334   0.0000       1.982190        53.9381 
 335   0.0000       1.984342        53.9967 
 336   0.0000       1.999696        54.4145 
 337   0.0000       2.016232        54.8645 
 338   0.0000       2.021803        55.0161 
 339   0.0000       2.026140        55.1341 
 340   0.0000       2.036837        55.4252 
 341   0.0000       2.048129        55.7324 
 342   0.0000       2.058589        56.0171 
 343   0.0000       2.080331        56.6087 
 344   0.0000       2.087791        56.8117 
 345   0.0000       2.108763        57.3823 
 346   0.0000       2.127105        57.8815 
 347   0.0000       2.140882        58.2564 
 348   0.0000       2.151128        58.5352 
 349   0.0000       2.171751        59.0963 
 350   0.0000       2.192881        59.6713 
 351   0.0000       2.203432        59.9584 
 352   0.0000       2.215764        60.2940 
 353   0.0000       2.227119        60.6030 
 354   0.0000       2.242079        61.0101 
 355   0.0000       2.252649        61.2977 
 356   0.0000       2.273456        61.8639 
 357   0.0000       2.286873        62.2290 
 358   0.0000       2.293033        62.3966 
 359   0.0000       2.310511        62.8722 
 360   0.0000       2.320576        63.1461 
 361   0.0000       2.332895        63.4813 
 362   0.0000       2.349902        63.9441 
 363   0.0000       2.357943        64.1629 
 364   0.0000       2.365805        64.3768 
 365   0.0000       2.376977        64.6808 
 366   0.0000       2.385217        64.9051 
 367   0.0000       2.405839        65.4662 
 368   0.0000       2.415172        65.7202 
 369   0.0000       2.435434        66.2715 
 370   0.0000       2.439449        66.3808 
 371   0.0000       2.463621        67.0385 
 372   0.0000       2.472836        67.2893 
 373   0.0000       2.482236        67.5451 
 374   0.0000       2.503012        68.1104 
 375   0.0000       2.510916        68.3255 
 376   0.0000       2.520221        68.5787 
 377   0.0000       2.528163        68.7948 
 378   0.0000       2.544359        69.2355 
 379   0.0000       2.553353        69.4803 
 380   0.0000       2.582063        70.2615 
 381   0.0000       2.583637        70.3043 
 382   0.0000       2.592188        70.5370 
 383   0.0000       2.601113        70.7799 
 384   0.0000       2.620890        71.3180 
 385   0.0000       2.632086        71.6227 
 386   0.0000       2.645275        71.9816 
 387   0.0000       2.650279        72.1178 
 388   0.0000       2.659409        72.3662 
 389   0.0000       2.672603        72.7252 
 390   0.0000       2.676741        72.8378 
 391   0.0000       2.698444        73.4284 
 392   0.0000       2.706745        73.6543 
 393   0.0000       2.718348        73.9700 
 394   0.0000       2.735309        74.4315 
 395   0.0000       2.742406        74.6247 
 396   0.0000       2.756464        75.0072 
 397   0.0000       2.758587        75.0650 
 398   0.0000       2.771654        75.4205 
 399   0.0000       2.785650        75.8014 
 400   0.0000       2.795743        76.0760 
 401   0.0000       2.801530        76.2335 
 402   0.0000       2.813756        76.5662 
 403   0.0000       2.826482        76.9125 
 404   0.0000       2.832722        77.0823 
 405   0.0000       2.842429        77.3464 
 406   0.0000       2.852186        77.6119 
 407   0.0000       2.859213        77.8031 
 408   0.0000       2.874860        78.2289 
 409   0.0000       2.878671        78.3326 
 410   0.0000       2.885162        78.5092 
 411   0.0000       2.896706        78.8234 
 412   0.0000       2.909213        79.1637 
 413   0.0000       2.914334        79.3031 
 414   0.0000       2.923878        79.5628 
 415   0.0000       2.928775        79.6960 
 416   0.0000       2.934674        79.8565 
 417   0.0000       2.948106        80.2220 
 418   0.0000       2.954480        80.3955 
 419   0.0000       2.963554        80.6424 
 420   0.0000       2.967904        80.7608 
 421   0.0000       2.978031        81.0363 
 422   0.0000       2.991465        81.4019 
 423   0.0000       2.997754        81.5730 
 424   0.0000       3.001145        81.6653 
 425   0.0000       3.017097        82.0994 
 426   0.0000       3.023149        82.2641 
 427   0.0000       3.026486        82.3549 
 428   0.0000       3.031823        82.5001 
 429   0.0000       3.038208        82.6739 
 430   0.0000       3.050758        83.0154 
 431   0.0000       3.051665        83.0400 
 432   0.0000       3.062373        83.3314 
 433   0.0000       3.073759        83.6412 
 434   0.0000       3.075792        83.6966 
 435   0.0000       3.082899        83.8899 
 436   0.0000       3.094301        84.2002 
 437   0.0000       3.100891        84.3795 
 438   0.0000       3.107720        84.5654 
 439   0.0000       3.119994        84.8994 
 440   0.0000       3.130029        85.1724 
 441   0.0000       3.133379        85.2636 
 442   0.0000       3.135851        85.3308 
 443   0.0000       3.143248        85.5321 
 444   0.0000       3.154679        85.8432 
 445   0.0000       3.162148        86.0464 
 446   0.0000       3.166763        86.1720 
 447   0.0000       3.177434        86.4624 
 448   0.0000       3.180304        86.5405 
 449   0.0000       3.198196        87.0273 
 450   0.0000       3.198895        87.0464 
 451   0.0000       3.206605        87.2562 
 452   0.0000       3.213058        87.4318 
 453   0.0000       3.221456        87.6603 
 454   0.0000       3.226641        87.8014 
 455   0.0000       3.240974        88.1914 
 456   0.0000       3.244938        88.2992 
 457   0.0000       3.248134        88.3862 
 458   0.0000       3.251594        88.4804 
 459   0.0000       3.256001        88.6003 
 460   0.0000       3.270274        88.9887 
 461   0.0000       3.279038        89.2272 
 462   0.0000       3.281250        89.2873 
 463   0.0000       3.293288        89.6149 
 464   0.0000       3.302999        89.8792 
 465   0.0000       3.307706        90.0073 
 466   0.0000       3.313535        90.1659 
 467   0.0000       3.316318        90.2416 
 468   0.0000       3.324448        90.4628 
 469   0.0000       3.327781        90.5535 
 470   0.0000       3.342135        90.9441 
 471   0.0000       3.346784        91.0706 
 472   0.0000       3.352676        91.2309 
 473   0.0000       3.357589        91.3646 
 474   0.0000       3.364577        91.5548 
 475   0.0000       3.368526        91.6623 
 476   0.0000       3.373271        91.7914 
 477   0.0000       3.383554        92.0712 
 478   0.0000       3.387943        92.1906 
 479   0.0000       3.390114        92.2497 
 480   0.0000       3.403852        92.6235 
 481   0.0000       3.407615        92.7259 
 482   0.0000       3.408875        92.7602 
 483   0.0000       3.417090        92.9837 
 484   0.0000       3.419991        93.0627 
 485   0.0000       3.427106        93.2563 
 486   0.0000       3.433574        93.4323 
 487   0.0000       3.435621        93.4880 
 488   0.0000       3.440315        93.6157 
 489   0.0000       3.449132        93.8556 
 490   0.0000       3.453653        93.9787 
 491   0.0000       3.456726        94.0623 
 492   0.0000       3.459309        94.1326 
 493   0.0000       3.471591        94.4668 
 494   0.0000       3.480503        94.7093 
 495   0.0000       3.484908        94.8292 
 496   0.0000       3.491953        95.0209 
 497   0.0000       3.497844        95.1812 
 498   0.0000       3.512434        95.5782 
 499   0.0000       3.520903        95.8086 
 500   0.0000       3.522782        95.8598 
 501   0.0000       3.529984        96.0557 
 502   0.0000       3.534246        96.1717 
 503   0.0000       3.540006        96.3285 
 504   0.0000       3.545442        96.4764 
 505   0.0000       3.561729        96.9196 
 506   0.0000       3.565612        97.0252 
 507   0.0000       3.570726        97.1644 
 508   0.0000       3.579511        97.4034 
 509   0.0000       3.593421        97.7819 
 510   0.0000       3.602652        98.0331 
 511   0.0000       3.603243        98.0492 
 512   0.0000       3.609190        98.2111 
 513   0.0000       3.618878        98.4747 
 514   0.0000       3.623763        98.6076 
 515   0.0000       3.632676        98.8501 
 516   0.0000       3.635593        98.9295 
 517   0.0000       3.642462        99.1164 
 518   0.0000       3.651439        99.3607 
 519   0.0000       3.654643        99.4479 
 520   0.0000       3.656347        99.4943 
 521   0.0000       3.666261        99.7640 
 522   0.0000       3.671519        99.9071 
 523   0.0000       3.679095       100.1133 
 524   0.0000       3.680992       100.1649 
 525   0.0000       3.687465       100.3410 
 526   0.0000       3.694822       100.5412 
 527   0.0000       3.703570       100.7793 
 528   0.0000       3.707732       100.8925 
 529   0.0000       3.712799       101.0304 
 530   0.0000       3.724838       101.3580 
 531   0.0000       3.727270       101.4242 
 532   0.0000       3.734172       101.6120 
 533   0.0000       3.745326       101.9155 
 534   0.0000       3.752724       102.1168 
 535   0.0000       3.757806       102.2551 
 536   0.0000       3.763899       102.4209 
 537   0.0000       3.766059       102.4797 
 538   0.0000       3.777593       102.7935 
 539   0.0000       3.787392       103.0602 
 540   0.0000       3.791431       103.1701 
 541   0.0000       3.794372       103.2501 
 542   0.0000       3.795292       103.2751 
 543   0.0000       3.809478       103.6612 
 544   0.0000       3.818032       103.8939 
 545   0.0000       3.823811       104.0512 
 546   0.0000       3.836062       104.3845 
 547   0.0000       3.842793       104.5677 
 548   0.0000       3.845462       104.6404 
 549   0.0000       3.852055       104.8197 
 550   0.0000       3.865392       105.1827 
 551   0.0000       3.867218       105.2324 
 552   0.0000       3.883443       105.6739 
 553   0.0000       3.888801       105.8197 
 554   0.0000       3.895008       105.9886 
 555   0.0000       3.900978       106.1510 
 556   0.0000       3.911030       106.4245 
 557   0.0000       3.916538       106.5744 
 558   0.0000       3.921269       106.7032 
 559   0.0000       3.934620       107.0665 
 560   0.0000       3.943747       107.3148 
 561   0.0000       3.950002       107.4850 
 562   0.0000       3.970739       108.0493 
 563   0.0000       3.974916       108.1630 
 564   0.0000       3.980683       108.3199 
 565   0.0000       3.988785       108.5403 
 566   0.0000       3.998114       108.7942 
 567   0.0000       4.002820       108.9223 
 568   0.0000       4.013565       109.2147 
 569   0.0000       4.025609       109.5424 
 570   0.0000       4.026505       109.5668 
 571   0.0000       4.042023       109.9891 
 572   0.0000       4.045811       110.0921 
 573   0.0000       4.047351       110.1340 
 574   0.0000       4.068522       110.7101 
 575   0.0000       4.078357       110.9777 
 576   0.0000       4.090627       111.3116 
 577   0.0000       4.094081       111.4056 
 578   0.0000       4.097122       111.4883 
 579   0.0000       4.106066       111.7317 
 580   0.0000       4.114687       111.9663 
 581   0.0000       4.125169       112.2516 
 582   0.0000       4.135974       112.5456 
 583   0.0000       4.138220       112.6067 
 584   0.0000       4.148861       112.8962 
 585   0.0000       4.154840       113.0589 
 586   0.0000       4.157189       113.1229 
 587   0.0000       4.167786       113.4112 
 588   0.0000       4.168034       113.4180 
 589   0.0000       4.170628       113.4886 
 590   0.0000       4.184909       113.8772 
 591   0.0000       4.191071       114.0448 
 592   0.0000       4.196627       114.1960 
 593   0.0000       4.210569       114.5754 
 594   0.0000       4.216070       114.7251 
 595   0.0000       4.217596       114.7666 
 596   0.0000       4.228210       115.0554 
 597   0.0000       4.232580       115.1744 
 598   0.0000       4.246350       115.5491 
 599   0.0000       4.255373       115.7946 
 600   0.0000       4.258308       115.8745 
 601   0.0000       4.268819       116.1605 
 602   0.0000       4.276264       116.3631 
 603   0.0000       4.285318       116.6094 
 604   0.0000       4.290538       116.7515 
 605   0.0000       4.297808       116.9493 
 606   0.0000       4.306790       117.1937 
 607   0.0000       4.313105       117.3656 
 608   0.0000       4.322961       117.6338 
 609   0.0000       4.330985       117.8521 
 610   0.0000       4.341619       118.1415 
 611   0.0000       4.342825       118.1743 
 612   0.0000       4.349799       118.3640 
 613   0.0000       4.363824       118.7457 
 614   0.0000       4.375149       119.0539 
 615   0.0000       4.376710       119.0963 
 616   0.0000       4.384264       119.3019 
 617   0.0000       4.392584       119.5283 
 618   0.0000       4.399483       119.7160 
 619   0.0000       4.419504       120.2608 
 620   0.0000       4.424577       120.3989 
 621   0.0000       4.429808       120.5412 
 622   0.0000       4.445556       120.9697 
 623   0.0000       4.452731       121.1650 
 624   0.0000       4.461373       121.4001 
 625   0.0000       4.466117       121.5292 
 626   0.0000       4.470971       121.6613 
 627   0.0000       4.487396       122.1083 
 628   0.0000       4.497576       122.3853 
 629   0.0000       4.504829       122.5826 
 630   0.0000       4.507374       122.6519 
 631   0.0000       4.512672       122.7961 
 632   0.0000       4.521490       123.0360 
 633   0.0000       4.531579       123.3105 
 634   0.0000       4.543783       123.6426 
 635   0.0000       4.547985       123.7570 
 636   0.0000       4.554342       123.9299 
 637   0.0000       4.559132       124.0603 
 638   0.0000       4.570491       124.3694 
 639   0.0000       4.573642       124.4551 
 640   0.0000       4.596248       125.0703 
 641   0.0000       4.603996       125.2811 
 642   0.0000       4.605667       125.3266 
 643   0.0000       4.617150       125.6390 
 644   0.0000       4.627657       125.9250 
 645   0.0000       4.635015       126.1252 
 646   0.0000       4.636740       126.1721 
 647   0.0000       4.642024       126.3159 
 648   0.0000       4.649864       126.5292 
 649   0.0000       4.653103       126.6174 
 650   0.0000       4.660030       126.8059 
 651   0.0000       4.675309       127.2216 
 652   0.0000       4.678638       127.3122 
 653   0.0000       4.683625       127.4479 
 654   0.0000       4.693420       127.7145 
 655   0.0000       4.703307       127.9835 
 656   0.0000       4.704980       128.0290 
 657   0.0000       4.724449       128.5588 
 658   0.0000       4.736853       128.8963 
 659   0.0000       4.749467       129.2396 
 660   0.0000       4.751453       129.2936 
 661   0.0000       4.767379       129.7270 
 662   0.0000       4.792713       130.4163 
 663   0.0000       4.808856       130.8556 
 664   0.0000       4.826726       131.3419 
 665   0.0000       4.836458       131.6067 
 666   0.0000       4.847049       131.8949 
 667   0.0000       4.866139       132.4144 
 668   0.0000       4.867862       132.4613 
 669   0.0000       4.888547       133.0241 
 670   0.0000       4.909557       133.5958 
 671   0.0000       4.922885       133.9585 
 672   0.0000       4.940612       134.4409 
 673   0.0000       4.945413       134.5715 
 674   0.0000       4.960709       134.9878 
 675   0.0000       4.979044       135.4867 
 676   0.0000       5.014864       136.4614 
 677   0.0000       5.020617       136.6179 
 678   0.0000       5.025514       136.7512 
 679   0.0000       5.036971       137.0630 
 680   0.0000       5.051443       137.4567 
 681   0.0000       5.067572       137.8956 
 682   0.0000       5.086364       138.4070 
 683   0.0000       5.093394       138.5983 
 684   0.0000       5.109212       139.0287 
 685   0.0000       5.109981       139.0497 
 686   0.0000       5.128692       139.5588 
 687   0.0000       5.138401       139.8230 
 688   0.0000       5.146364       140.0397 
 689   0.0000       5.175755       140.8395 
 690   0.0000       5.177082       140.8756 
 691   0.0000       5.189932       141.2252 
 692   0.0000       5.195761       141.3838 
 693   0.0000       5.212055       141.8272 
 694   0.0000       5.218143       141.9929 
 695   0.0000       5.224882       142.1763 
 696   0.0000       5.226410       142.2178 
 697   0.0000       5.235745       142.4719 
 698   0.0000       5.243432       142.6810 
 699   0.0000       5.261998       143.1862 
 700   0.0000       5.267849       143.3455 
 701   0.0000       5.269172       143.3815 
 702   0.0000       5.292759       144.0233 
 703   0.0000       5.311303       144.5279 
 704   0.0000       5.322130       144.8225 
 705   0.0000       5.335876       145.1966 
 706   0.0000       5.346096       145.4747 
 707   0.0000       5.352054       145.6368 
 708   0.0000       5.370309       146.1335 
 709   0.0000       5.375530       146.2756 
 710   0.0000       5.387256       146.5947 
 711   0.0000       5.411518       147.2549 
 712   0.0000       5.442179       148.0892 
 713   0.0000       5.459525       148.5612 
 714   0.0000       5.469769       148.8400 
 715   0.0000       5.488758       149.3567 
 716   0.0000       5.494421       149.5108 
 717   0.0000       5.510199       149.9401 
 718   0.0000       5.518824       150.1748 
 719   0.0000       5.528797       150.4462 
 720   0.0000       5.531670       150.5244 
 721   0.0000       5.550725       151.0429 
 722   0.0000       5.551881       151.0744 
 723   0.0000       5.564549       151.4191 
 724   0.0000       5.583387       151.9317 
 725   0.0000       5.602296       152.4462 
 726   0.0000       5.620271       152.9354 
 727   0.0000       5.622978       153.0090 
 728   0.0000       5.638597       153.4340 
 729   0.0000       5.655300       153.8885 
 730   0.0000       5.656498       153.9211 
 731   0.0000       5.665381       154.1628 
 732   0.0000       5.686686       154.7426 
 733   0.0000       5.701737       155.1521 
 734   0.0000       5.711067       155.4060 
 735   0.0000       5.712487       155.4447 
 736   0.0000       5.732708       155.9949 
 737   0.0000       5.743787       156.2964 
 738   0.0000       5.744788       156.3236 
 739   0.0000       5.750334       156.4745 
 740   0.0000       5.767621       156.9449 
 741   0.0000       5.774708       157.1378 
 742   0.0000       5.802081       157.8826 
 743   0.0000       5.809717       158.0904 
 744   0.0000       5.827336       158.5699 
 745   0.0000       5.853600       159.2845 
 746   0.0000       5.864709       159.5868 
 747   0.0000       5.868714       159.6958 
 748   0.0000       5.900132       160.5507 
 749   0.0000       5.924094       161.2028 
 750   0.0000       5.946590       161.8150 
 751   0.0000       5.972693       162.5252 
 752   0.0000       5.974113       162.5639 
 753   0.0000       5.996842       163.1824 
 754   0.0000       6.008993       163.5130 
 755   0.0000       6.037925       164.3003 
 756   0.0000       6.046151       164.5241 
 757   0.0000       6.049645       164.6192 
 758   0.0000       6.086169       165.6131 
 759   0.0000       6.096952       165.9065 
 760   0.0000       6.098176       165.9398 
 761   0.0000       6.171825       167.9439 
 762   0.0000       6.230414       169.5382 
 763   0.0000       6.235293       169.6709 
 764   0.0000       6.267059       170.5353 
 765   0.0000       6.307784       171.6435 
 766   0.0000       6.312462       171.7708 
 767   0.0000       6.336096       172.4139 
 768   0.0000       6.347892       172.7349 
 769   0.0000       6.352179       172.8516 
 770   0.0000       6.373875       173.4420 
 771   0.0000       6.389040       173.8546 
 772   0.0000       6.402641       174.2247 
 773   0.0000       6.443359       175.3327 
 774   0.0000       6.450211       175.5192 
 775   0.0000       6.461007       175.8129 
 776   0.0000       6.496550       176.7801 
 777   0.0000       6.556980       178.4245 
 778   0.0000       6.597174       179.5182 
 779   0.0000       6.629347       180.3937 
 780   0.0000       6.665385       181.3743 
 781   0.0000       6.685878       181.9320 
 782   0.0000       6.721877       182.9116 
 783   0.0000       6.765384       184.0955 
 784   0.0000       6.849126       186.3742 
 785   0.0000       6.880507       187.2281 
 786   0.0000       6.910553       188.0457 
 787   0.0000       6.923900       188.4089 
 788   0.0000       6.983607       190.0336 
 789   0.0000       6.996422       190.3823 
 790   0.0000       7.051511       191.8814 
 791   0.0000       7.062333       192.1758 
 792   0.0000       7.083931       192.7636 
 793   0.0000       7.125201       193.8866 
 794   0.0000       7.237643       196.9463 
 795   0.0000       7.258488       197.5135 
 796   0.0000       7.265579       197.7065 
 797   0.0000       7.283820       198.2028 
 798   0.0000       7.337004       199.6500 
 799   0.0000       7.345490       199.8810 
 800   0.0000       7.393695       201.1927 
 801   0.0000       7.541767       205.2219 
 802   0.0000       7.590299       206.5425 
 803   0.0000       7.593772       206.6371 
 804   0.0000       7.657832       208.3802 
 805   0.0000       7.816730       212.7040 
 806   0.0000       7.824219       212.9078 
 807   0.0000       7.867134       214.0756 
 808   0.0000       7.935821       215.9447 
 809   0.0000       9.482808       258.0403 
 810   0.0000       9.696411       263.8528 
 811   0.0000      10.760406       292.8055 
 812   0.0000      11.163440       303.7726 
 813   0.0000      11.775590       320.4301 
 814   0.0000      12.568287       342.0005 
 815   0.0000      12.936980       352.0331 
 816   0.0000      13.019486       354.2782 
 817   0.0000      13.097916       356.4124 
 818   0.0000      13.275510       361.2450 
 819   0.0000      13.427886       365.3914 
 820   0.0000      13.463864       366.3704 
 821   0.0000      13.872599       377.4926 
 822   0.0000      13.925774       378.9396 
 823   0.0000      14.010720       381.2511 
 824   0.0000      14.266992       388.2246 
 825   0.0000      14.507776       394.7767 
 826   0.0000      14.694145       399.8480 
 827   0.0000      15.976771       434.7501 

                    ********************************
                    * MULLIKEN POPULATION ANALYSIS *
                    ********************************

-----------------------
MULLIKEN ATOMIC CHARGES
-----------------------
   0 C :   -0.331721
   1 C :    0.047613
   2 O :   -0.382303
   3 C :    0.476396
   4 O :   -0.393970
   5 C :   -0.251797
   6 C :    0.180598
   7 C :   -0.285088
   8 N :   -0.130481
   9 C :    0.188505
  10 S :   -0.434506
  11 N :   -0.211162
  12 C :    0.070346
  13 C :    0.027410
  14 C :   -0.197482
  15 C :   -0.138870
  16 C :   -0.274667
  17 C :    0.318266
  18 O :   -0.357704
  19 C :   -0.271644
  20 H :    0.123766
  21 H :    0.121123
  22 H :    0.093546
  23 H :    0.103215
  24 H :    0.112377
  25 H :    0.121464
  26 H :    0.129367
  27 H :    0.109152
  28 H :    0.198041
  29 H :    0.197105
  30 H :    0.161560
  31 H :    0.171911
  32 H :    0.162982
  33 H :    0.131402
  34 H :    0.240438
  35 H :    0.174814
Sum of atomic charges:    0.0000000

--------------------------------
MULLIKEN REDUCED ORBITAL CHARGES
--------------------------------
  0 C s       :     3.268995  s :     3.268995
      pz      :     0.970974  p :     2.980838
      px      :     1.012006
      py      :     0.997858
      dz2     :     0.020191  d :     0.077410
      dxz     :     0.017295
      dyz     :     0.010530
      dx2y2   :     0.007821
      dxy     :     0.021574
      f0      :     0.000400  f :     0.004479
      f+1     :     0.001151
      f-1     :     0.000445
      f+2     :     0.000514
      f-2     :     0.001091
      f+3     :     0.000428
      f-3     :     0.000449
  1 C s       :     3.167705  s :     3.167705
      pz      :     0.947833  p :     2.617055
      px      :     0.784734
      py      :     0.884488
      dz2     :     0.026154  d :     0.156030
      dxz     :     0.041700
      dyz     :     0.020770
      dx2y2   :     0.035903
      dxy     :     0.031502
      f0      :     0.000976  f :     0.011596
      f+1     :     0.001786
      f-1     :     0.000988
      f+2     :     0.001531
      f-2     :     0.002129
      f+3     :     0.002537
      f-3     :     0.001649
  2 O s       :     3.718176  s :     3.718176
      pz      :     1.619876  p :     4.630556
      px      :     1.293803
      py      :     1.716877
      dz2     :     0.003691  d :     0.031268
      dxz     :     0.013062
      dyz     :     0.004180
      dx2y2   :     0.005537
      dxy     :     0.004799
      f0      :     0.000153  f :     0.002303
      f+1     :     0.000306
      f-1     :     0.000057
      f+2     :     0.000478
      f-2     :     0.000351
      f+3     :     0.000388
      f-3     :     0.000569
  3 C s       :     3.016110  s :     3.016110
      pz      :     0.696228  p :     2.202527
      px      :     0.713570
      py      :     0.792728
      dz2     :     0.036666  d :     0.278780
      dxz     :     0.063309
      dyz     :     0.041614
      dx2y2   :     0.081343
      dxy     :     0.055848
      f0      :     0.002275  f :     0.026188
      f+1     :     0.003221
      f-1     :     0.002118
      f+2     :     0.002680
      f-2     :     0.005753
      f+3     :     0.004155
      f-3     :     0.005987
  4 O s       :     3.780556  s :     3.780556
      pz      :     1.591000  p :     4.575475
      px      :     1.521088
      py      :     1.463387
      dz2     :     0.003820  d :     0.035489
      dxz     :     0.003665
      dyz     :     0.006930
      dx2y2   :     0.009574
      dxy     :     0.011501
      f0      :     0.000271  f :     0.002450
      f+1     :     0.000179
      f-1     :     0.000256
      f+2     :     0.000068
      f-2     :     0.000410
      f+3     :     0.000637
      f-3     :     0.000629
  5 C s       :     3.206293  s :     3.206293
      pz      :     0.934957  p :     2.952087
      px      :     1.067188
      py      :     0.949942
      dz2     :     0.015703  d :     0.082716
      dxz     :     0.014306
      dyz     :     0.026515
      dx2y2   :     0.014324
      dxy     :     0.011868
      f0      :     0.001116  f :     0.010700
      f+1     :     0.001221
      f-1     :     0.002082
      f+2     :     0.001600
      f-2     :     0.001387
      f+3     :     0.001221
      f-3     :     0.002073
  6 C s       :     3.170586  s :     3.170586
      pz      :     0.856024  p :     2.458524
      px      :     0.835909
      py      :     0.766591
      dz2     :     0.034325  d :     0.176020
      dxz     :     0.024062
      dyz     :     0.048390
      dx2y2   :     0.036030
      dxy     :     0.033213
      f0      :     0.002046  f :     0.014272
      f+1     :     0.001239
      f-1     :     0.002764
      f+2     :     0.002249
      f-2     :     0.002460
      f+3     :     0.001367
      f-3     :     0.002147
  7 C s       :     3.278121  s :     3.278121
      pz      :     0.910562  p :     2.932664
      px      :     1.009057
      py      :     1.013045
      dz2     :     0.018625  d :     0.069667
      dxz     :     0.015545
      dyz     :     0.008615
      dx2y2   :     0.020428
      dxy     :     0.006454
      f0      :     0.000575  f :     0.004636
      f+1     :     0.001411
      f-1     :     0.000809
      f+2     :     0.000331
      f-2     :     0.000420
      f+3     :     0.000105
      f-3     :     0.000985
  8 N s       :     3.347578  s :     3.347578
      pz      :     1.172689  p :     3.718520
      px      :     1.388905
      py      :     1.156926
      dz2     :     0.015471  d :     0.059437
      dxz     :     0.010611
      dyz     :     0.014353
      dx2y2   :     0.007831
      dxy     :     0.011172
      f0      :     0.000668  f :     0.004945
      f+1     :     0.000947
      f-1     :     0.000828
      f+2     :     0.000913
      f-2     :     0.000840
      f+3     :     0.000465
      f-3     :     0.000284
  9 C s       :     3.174442  s :     3.174442
      pz      :     0.781599  p :     2.358021
      px      :     0.704475
      py      :     0.871947
      dz2     :     0.065143  d :     0.261458
      dxz     :     0.038898
      dyz     :     0.047769
      dx2y2   :     0.052975
      dxy     :     0.056673
      f0      :     0.002929  f :     0.017573
      f+1     :     0.002358
      f-1     :     0.002479
      f+2     :     0.002338
      f-2     :     0.002560
      f+3     :     0.002110
      f-3     :     0.002798
 10 S s       :     5.856681  s :     5.856681
      pz      :     3.465219  p :    10.483173
      px      :     3.729841
      py      :     3.288113
      dz2     :     0.009798  d :     0.084523
      dxz     :     0.005325
      dyz     :     0.041097
      dx2y2   :     0.017458
      dxy     :     0.010844
      f0      :     0.001104  f :     0.010128
      f+1     :     0.000102
      f-1     :     0.002448
      f+2     :     0.003324
      f-2     :     0.001220
      f+3     :     0.000895
      f-3     :     0.001035
 11 N s       :     3.382544  s :     3.382544
      pz      :     1.292773  p :     3.766203
      px      :     1.402452
      py      :     1.070978
      dz2     :     0.009764  d :     0.057969
      dxz     :     0.007885
      dyz     :     0.013875
      dx2y2   :     0.012728
      dxy     :     0.013718
      f0      :     0.000354  f :     0.004446
      f+1     :     0.000603
      f-1     :     0.000560
      f+2     :     0.000637
      f-2     :     0.000691
      f+3     :     0.000835
      f-3     :     0.000767
 12 C s       :     3.109275  s :     3.109275
      pz      :     0.841298  p :     2.627697
      px      :     1.009371
      py      :     0.777028
      dz2     :     0.036563  d :     0.181542
      dxz     :     0.026819
      dyz     :     0.042195
      dx2y2   :     0.037757
      dxy     :     0.038208
      f0      :     0.001252  f :     0.011141
      f+1     :     0.001206
      f-1     :     0.002067
      f+2     :     0.002199
      f-2     :     0.001758
      f+3     :     0.001365
      f-3     :     0.001294
 13 C s       :     3.110310  s :     3.110310
      pz      :     0.915496  p :     2.745125
      px      :     0.900789
      py      :     0.928840
      dz2     :     0.018863  d :     0.106015
      dxz     :     0.008782
      dyz     :     0.031113
      dx2y2   :     0.020408
      dxy     :     0.026850
      f0      :     0.001167  f :     0.011140
      f+1     :     0.001559
      f-1     :     0.001109
[...]
      f-1     :     0.005702
      f+2     :     0.006562
      f-2     :     0.005332
      f+3     :     0.006701
      f-3     :     0.009195
 15 C s       :     2.705718  s :     2.705718
      pz      :     0.900820  p :     2.795341
      px      :     0.923040
      py      :     0.971482
      dz2     :     0.095759  d :     0.416289
      dxz     :     0.066455
      dyz     :     0.061840
      dx2y2   :     0.105754
      dxy     :     0.086481
      f0      :     0.003170  f :     0.041055
      f+1     :     0.005142
      f-1     :     0.006436
      f+2     :     0.006749
      f-2     :     0.006817
      f+3     :     0.006282
      f-3     :     0.006459
 16 C s       :     2.701777  s :     2.701777
      pz      :     0.939666  p :     2.868466
      px      :     0.957141
      py      :     0.971659
      dz2     :     0.047762  d :     0.391336
      dxz     :     0.053484
      dyz     :     0.093102
      dx2y2   :     0.091062
      dxy     :     0.105927
      f0      :     0.004915  f :     0.040394
      f+1     :     0.004573
      f-1     :     0.003500
      f+2     :     0.005941
      f-2     :     0.005950
      f+3     :     0.008130
      f-3     :     0.007385
 17 C s       :     2.701427  s :     2.701427
      pz      :     0.835108  p :     2.683792
      px      :     0.818861
      py      :     1.029823
      dz2     :     0.131245  d :     0.709178
      dxz     :     0.107660
      dyz     :     0.144904
      dx2y2   :     0.161855
      dxy     :     0.163514
      f0      :     0.010567  f :     0.099347
      f+1     :     0.015712
      f-1     :     0.009817
      f+2     :     0.015342
      f-2     :     0.016074
      f+3     :     0.014884
      f-3     :     0.016951
 18 O s       :     3.177108  s :     3.177108
      pz      :     1.431000  p :     4.347186
      px      :     1.433380
      py      :     1.482806
      dz2     :     0.009177  d :     0.075607
      dxz     :     0.017720
      dyz     :     0.018073
      dx2y2   :     0.016200
      dxy     :     0.014437
      f0      :     0.000618  f :     0.005072
      f+1     :     0.000773
      f-1     :     0.000354
      f+2     :     0.000849
      f-2     :     0.000966
      f+3     :     0.000667
      f-3     :     0.000845
 19 C s       :     2.696196  s :     2.696196
      pz      :     0.934732  p :     2.846888
      px      :     0.944664
      py      :     0.967492
      dz2     :     0.077698  d :     0.388860
      dxz     :     0.064070
      dyz     :     0.065264
      dx2y2   :     0.092539
      dxy     :     0.089290
      f0      :     0.003260  f :     0.040699
      f+1     :     0.005225
      f-1     :     0.005915
      f+2     :     0.006809
      f-2     :     0.007329
      f+3     :     0.006307
      f-3     :     0.005854
 20 H s       :     0.839811  s :     0.839811
      pz      :     0.069842  p :     0.164957
      px      :     0.054198
      py      :     0.040916
      dz2     :     0.008790  d :     0.028160
      dxz     :     0.007101
      dyz     :     0.006279
      dx2y2   :     0.002449
      dxy     :     0.003542
 21 H s       :     0.842086  s :     0.842086
      pz      :     0.042712  p :     0.151867
      px      :     0.060267
      py      :     0.048888
      dz2     :     0.002835  d :     0.027584
      dxz     :     0.006611
      dyz     :     0.003362
      dx2y2   :     0.008376
      dxy     :     0.006400
 22 H s       :     0.853353  s :     0.853353
      pz      :     0.042123  p :     0.153536
      px      :     0.044269
      py      :     0.067144
      dz2     :     0.003307  d :     0.027872
      dxz     :     0.002255
      dyz     :     0.007107
      dx2y2   :     0.007064
      dxy     :     0.008139
 23 H s       :     0.853768  s :     0.853768
      pz      :     0.043036  p :     0.145861
      px      :     0.032300
      py      :     0.070525
      dz2     :     0.003711  d :     0.027093
      dxz     :     0.002451
      dyz     :     0.007586
      dx2y2   :     0.006991
      dxy     :     0.006353
 24 H s       :     0.851215  s :     0.851215
      pz      :     0.060220  p :     0.143394
      px      :     0.046641
      py      :     0.036533
      dz2     :     0.006153  d :     0.026883
      dxz     :     0.007887
      dyz     :     0.005927
      dx2y2   :     0.003141
      dxy     :     0.003775
 25 H s       :     0.833928  s :     0.833928
      pz      :     0.039018  p :     0.154213
      px      :     0.070491
      py      :     0.044704
      dz2     :     0.002462  d :     0.027919
      dxz     :     0.008280
      dyz     :     0.000847
      dx2y2   :     0.008565
      dxy     :     0.007765
 26 H s       :     0.828605  s :     0.828605
      pz      :     0.059332  p :     0.150182
      px      :     0.047602
      py      :     0.043248
      dz2     :     0.008381  d :     0.027731
      dxz     :     0.006694
      dyz     :     0.005801
      dx2y2   :     0.004134
      dxy     :     0.002720
 27 H s       :     0.840045  s :     0.840045
      pz      :     0.035998  p :     0.150116
      px      :     0.040813
      py      :     0.073305
      dz2     :     0.002379  d :     0.027723
      dxz     :     0.000135
      dyz     :     0.009018
      dx2y2   :     0.006733
      dxy     :     0.009459
 28 H s       :     0.743180  s :     0.743180
      pz      :     0.054472  p :     0.253317
      px      :     0.090056
      py      :     0.108790
      dz2     :     0.006242  d :     0.061764
      dxz     :     0.004435
      dyz     :     0.014159
      dx2y2   :     0.019501
      dxy     :     0.017426
 29 H s       :     0.748316  s :     0.748316
      pz      :     0.114886  p :     0.254199
      px      :     0.093600
      py      :     0.045713
      dz2     :     0.021616  d :     0.061358
      dxz     :     0.016278
      dyz     :     0.011124
      dx2y2   :     0.007195
      dxy     :     0.005145
 30 H s       :     0.824745  s :     0.824745
      pz      :     0.039011  p :     0.149443
      px      :     0.072537
      py      :     0.037895
      dz2     :     0.002883  d :     0.028445
      dxz     :     0.008079
      dyz     :     0.002009
      dx2y2   :     0.007910
      dxy     :     0.007564
 31 H s       :     0.838412  s :     0.838412
      pz      :     0.058174  p :     0.157560
      px      :     0.064308
      py      :     0.035078
      dz2     :     0.005811  d :     0.027527
      dxz     :     0.007062
      dyz     :     0.003818
      dx2y2   :     0.005290
      dxy     :     0.005546
 32 H s       :     0.842246  s :     0.842246
      pz      :     0.036562  p :     0.150979
      px      :     0.039874
      py      :     0.074543
      dz2     :     0.002612  d :     0.026440
      dxz     :     0.000808
      dyz     :     0.007176
      dx2y2   :     0.007912
      dxy     :     0.007933
 33 H s       :     0.848715  s :     0.848715
      pz      :     0.055728  p :     0.158975
      px      :     0.048240
      py      :     0.055007
      dz2     :     0.005726  d :     0.027747
      dxz     :     0.004274
      dyz     :     0.006229
      dx2y2   :     0.005992
      dxy     :     0.005526
 34 H s       :     0.706577  s :     0.706577
      pz      :     0.107133  p :     0.347818
      px      :     0.086462
      py      :     0.154223
      dz2     :     0.021088  d :     0.099566
      dxz     :     0.009962
      dyz     :     0.024903
      dx2y2   :     0.021788
      dxy     :     0.021825
 35 H s       :     0.837566  s :     0.837566
      pz      :     0.040777  p :     0.159267
      px      :     0.042543
      py      :     0.075947
      dz2     :     0.002595  d :     0.028121
      dxz     :     0.000963
      dyz     :     0.007874
      dx2y2   :     0.008139
      dxy     :     0.008550


                      *****************************
                      * MAYER POPULATION ANALYSIS *
                      *****************************

  NA   - Mulliken gross atomic population
  ZA   - Total nuclear charge
  QA   - Mulliken gross atomic charge
  VA   - Mayer's total valence
  BVA  - Mayer's bonded valence
  FA   - Mayer's free valence

  ATOM       NA         ZA         QA         VA         BVA        FA
  0 C      6.3317     6.0000    -0.3317     3.8800     3.8800     0.0000
  1 C      5.9524     6.0000     0.0476     3.8737     3.8737    -0.0000
  2 O      8.3823     8.0000    -0.3823     1.9759     1.9759     0.0000
  3 C      5.5236     6.0000     0.4764     4.2019     4.2019    -0.0000
  4 O      8.3940     8.0000    -0.3940     2.1080     2.1080    -0.0000
  5 C      6.2518     6.0000    -0.2518     3.6049     3.6049     0.0000
  6 C      5.8194     6.0000     0.1806     3.8073     3.8073     0.0000
  7 C      6.2851     6.0000    -0.2851     3.8949     3.8949    -0.0000
  8 N      7.1305     7.0000    -0.1305     3.2845     3.2845     0.0000
  9 C      5.8115     6.0000     0.1885     4.1552     4.1552     0.0000
 10 S     16.4345    16.0000    -0.4345     1.7584     1.7584     0.0000
 11 N      7.2112     7.0000    -0.2112     3.2467     3.2467    -0.0000
 12 C      5.9297     6.0000     0.0703     3.9388     3.9388    -0.0000
 13 C      5.9726     6.0000     0.0274     3.7318     3.7318    -0.0000
 14 C      6.1975     6.0000    -0.1975     3.8685     3.8685     0.0000
 15 C      6.1389     6.0000    -0.1389     3.8141     3.8141     0.0000
 16 C      6.2747     6.0000    -0.2747     3.7846     3.7846     0.0000
 17 C      5.6817     6.0000     0.3183     3.8743     3.8743    -0.0000
 18 O      8.3577     8.0000    -0.3577     2.1176     2.1176    -0.0000
 19 C      6.2716     6.0000    -0.2716     3.8122     3.8122     0.0000
 20 H      0.8762     1.0000     0.1238     0.9598     0.9598    -0.0000
 21 H      0.8789     1.0000     0.1211     0.9856     0.9856     0.0000
 22 H      0.9065     1.0000     0.0935     0.9767     0.9767     0.0000
 23 H      0.8968     1.0000     0.1032     0.9825     0.9825    -0.0000
 24 H      0.8876     1.0000     0.1124     0.9755     0.9755    -0.0000
 25 H      0.8785     1.0000     0.1215     0.9751     0.9751    -0.0000
 26 H      0.8706     1.0000     0.1294     0.9815     0.9815    -0.0000
 27 H      0.8908     1.0000     0.1092     0.9860     0.9860     0.0000
 28 H      0.8020     1.0000     0.1980     1.0216     1.0216     0.0000
 29 H      0.8029     1.0000     0.1971     1.0155     1.0155     0.0000
 30 H      0.8384     1.0000     0.1616     0.9941     0.9941    -0.0000
 31 H      0.8281     1.0000     0.1719     0.9861     0.9861     0.0000
 32 H      0.8370     1.0000     0.1630     0.9765     0.9765     0.0000
 33 H      0.8686     1.0000     0.1314     0.9908     0.9908     0.0000
 34 H      0.7596     1.0000     0.2404     1.0110     1.0110    -0.0000
 35 H      0.8252     1.0000     0.1748     0.9863     0.9863    -0.0000

  Mayer bond orders larger than 0.100000
B(  0-C ,  1-C ) :   0.9628 B(  0-C , 20-H ) :   0.9664 B(  0-C , 21-H ) :   0.9790 
B(  0-C , 22-H ) :   0.9769 B(  1-C ,  2-O ) :   0.8952 B(  1-C , 23-H ) :   0.9782 
B(  1-C , 24-H ) :   0.9833 B(  2-O ,  3-C ) :   1.0934 B(  3-C ,  4-O ) :   2.0334 
B(  3-C ,  5-C ) :   1.0132 B(  5-C ,  6-C ) :   1.6561 B(  5-C , 12-C ) :   0.9512 
B(  6-C ,  7-C ) :   0.9514 B(  6-C ,  8-N ) :   1.1335 B(  7-C , 25-H ) :   0.9638 
B(  7-C , 26-H ) :   0.9687 B(  7-C , 27-H ) :   0.9874 B(  8-N ,  9-C ) :   1.1830 
B(  8-N , 28-H ) :   0.9499 B(  9-C , 10-S ) :   1.6161 B(  9-C , 11-N ) :   1.2939 
B( 11-N , 12-C ) :   0.9805 B( 11-N , 29-H ) :   0.9510 B( 12-C , 13-C ) :   0.9537 
B( 12-C , 30-H ) :   0.9968 B( 13-C , 14-C ) :   1.3877 B( 13-C , 19-C ) :   1.3433 
B( 14-C , 15-C ) :   1.3998 B( 14-C , 31-H ) :   0.9577 B( 15-C , 16-C ) :   1.3609 
B( 15-C , 32-H ) :   0.9704 B( 16-C , 17-C ) :   1.3313 B( 16-C , 33-H ) :   0.9846 
B( 17-C , 18-O ) :   1.1110 B( 17-C , 19-C ) :   1.3722 B( 18-O , 34-H ) :   0.9801 
B( 19-C , 35-H ) :   0.9603 

-------
TIMINGS
-------

Total SCF time: 0 days 1 hours 54 min 12 sec 

Total time                  ....    6852.177 sec
Sum of individual times     ....    6840.194 sec  ( 99.8%)

Fock matrix formation       ....    6820.053 sec  ( 99.5%)
Diagonalization             ....       1.397 sec  (  0.0%)
Density matrix formation    ....       0.251 sec  (  0.0%)
Population analysis         ....       0.462 sec  (  0.0%)
Initial guess               ....       5.738 sec  (  0.1%)
Orbital Transformation      ....       0.000 sec  (  0.0%)
Orbital Orthonormalization  ....       0.000 sec  (  0.0%)
DIIS solution               ....       7.874 sec  (  0.1%)
SOSCF solution              ....       3.011 sec  (  0.0%)

------------------------------------------------------------------------------
                                ORCA  MP2 
------------------------------------------------------------------------------

Freezing NCore=48 chemical core electrons

-------------
RI-MP2 ENERGY
-------------
Dimension of the basis                    ...  828
Memory devoted to MP2                     ...  256 MB   
Data format for buffers                   ... DOUBLE
Compression type for matrix containers    ... UNCOMPRESSED
Overall scaling of the MP2 energy         ...   1.000e+00
Calculating two index integrals           ... done (    0.044 sec)
Cholesky decomposition of V**-1           ... done (    0.391 sec)

-----------------
RI-TRANSFORMATION (AUX index driven)
-----------------

Dimension of the orbital-basis         ... 828
Dimension of the aux-basis             ... 2141
Transformation of internal/external MOs...   24-  76 to   77- 827
Number Format for Storage              ... Double (8 Byte)
Integral mode                          ... Direct

First Phase: integral generation and transformation of MO indices
  Aux angular momentum 0               ... done (    5.904 sec)
  Aux angular momentum 1               ... done (    9.902 sec)
  Aux angular momentum 2               ... done (   11.905 sec)
  Aux angular momentum 3               ... done (    9.753 sec)
  Aux angular momentum 4               ... done (    3.364 sec)
Closing buffer VIA ( 0.63 GB; CompressionRatio= 1.00)
  Phase 1 completed in    41.612 sec
Second Phase: sorting and transformation of aux index

IA-Transformation
Memory available                       ... 167 MB 
Max. # MO pairs treated in a batch     ... 12    
# of internal orbitals                 ... 53
# batches for internal orbitals        ... 5
Closing buffer IAV ( 0.63 GB; CompressionRatio= 1.00)
(ia|v) transformation done in    37.908 sec

  Phase 2 completed in    37.913 sec
RI-Integral transformation completed in    79.534 sec
Opening buffers                              ... done

Starting loop over batches of integrals:

Operator 0  - window                       ... ( 24- 76)x( 77-827)
Operator 0  - Memory available             ...   256 MB
Operator 0  - Memory needed per MO         ...  12.3 MB
Operator 0  - Number of orbitals per batch ... 13
Operator 0  - Number of batches            ... 5

OPERATOR  0   PASS   0:  MOs    24 ...   36
  Reading integrals       ... ok
  Internal MO  26
  Internal MO  29
  Internal MO  32
  Internal MO  35
OPERATOR  0   PASS   1:  MOs    37 ...   49
  Reading integrals       ... ok
  Internal MO  38
  Internal MO  41
  Internal MO  44
  Internal MO  47
OPERATOR  0   PASS   2:  MOs    50 ...   62
  Reading integrals       ... ok
  Internal MO  50
  Internal MO  53
  Internal MO  56
  Internal MO  59
  Internal MO  62
OPERATOR  0   PASS   3:  MOs    63 ...   75
  Reading integrals       ... ok
  Internal MO  65
  Internal MO  68
  Internal MO  71
  Internal MO  74
OPERATOR  0   PASS   4:  MOs    76 ...   76
  Reading integrals       ... ok
Time spent in pair loops =    96.010 sec
Deleting buffer (Ka|jb)[aa] ...done

-----------------------------------------------
 RI-MP2 CORRELATION ENERGY:     -3.538117341 Eh
-----------------------------------------------


-------
TIMINGS
-------

Total time                :  176.239 sec
Integral trafo            :   79.580 sec ( 45.2%)
I/O of integrals          :    5.593 sec (  3.2%)
K(i,j) Operators          :   54.949 sec ( 31.2%)
T(i,j) pair energies      :    9.114 sec (  5.2%)
V-calculation             :    0.044 sec (  0.0%)
V**(-1/2)                 :    0.391 sec (  0.2%)
Gamma(ia|P)               :    0.000 sec (  0.0%)
Gamma-Trafo               :    0.000 sec (  0.0%)
D(virtual)                :    0.000 sec (  0.0%)
D(internal)               :    0.000 sec (  0.0%)
W(virtual)                :    0.000 sec (  0.0%)
W(internal)               :    0.000 sec (  0.0%)
L(virtual)                :    0.000 sec (  0.0%)
L(internal)               :    0.000 sec (  0.0%)
G(D)                      :    0.000 sec (  0.0%)
G(Z)                      :    0.000 sec (  0.0%)
Z-Vector Solution         :    0.000 sec (  0.0%)
3-Index Derivative        :    0.000 sec (  0.0%)
2-Index Derivative        :    0.000 sec (  0.0%)
Separable Gradient        :    0.000 sec (  0.0%)


---------------------------------------
MP2 TOTAL ENERGY:    -1274.322288143 Eh
---------------------------------------

-------------------------   --------------------
FINAL SINGLE POINT ENERGY     -1274.322288142521
-------------------------   --------------------


                            ***************************************
                            *     ORCA property calculations      *
                            ***************************************


  WARNING: The energy has been calculated at the MP2 level but the densities
           used in the property calculations are still SCF densities
           MP2 response densities have not been calculated 
           use %mp2 Density relaxed end
           or  %mp2 Density unrelaxed end

                                    ---------------------
                                    Active property flags
                                    ---------------------
   (+) Dipole Moment


------------------------------------------------------------------------------
                       ORCA ELECTRIC PROPERTIES CALCULATION
------------------------------------------------------------------------------

Dipole Moment Calculation                       ... on
Quadrupole Moment Calculation                   ... off
Polarizability Calculation                      ... off
GBWName                                         ... CONFS/Conf661.orca.gbw
Electron density file                           ... CONFS/Conf661.orca.scfp
The origin for moment calculation is the CENTER OF MASS  = (32.769448, 31.362147 35.255023)

-------------
DIPOLE MOMENT
-------------
                                X             Y             Z
Electronic contribution:      9.71232       7.14316       6.42175
Nuclear contribution   :    -11.03159      -8.33937      -7.04532
                        -----------------------------------------
Total Dipole Moment    :     -1.31928      -1.19621      -0.62357
                        -----------------------------------------
Magnitude (a.u.)       :      1.88686
Magnitude (Debye)      :      4.79602



--------------------
Rotational spectrum 
--------------------
 
Rotational constants in cm-1:     0.011338     0.009921     0.006770 
Rotational constants in MHz :   339.913693   297.423631   202.956048 

 Dipole components along the rotational axes: 
x,y,z [a.u.] :    -1.305103    -0.921532     1.003859 
x,y,z [Debye]:    -3.317309    -2.342349     2.551608 

 

Timings for individual modules:

Sum of individual times         ...     7030.854 sec (= 117.181 min)
GTO integral calculation        ...        1.451 sec (=   0.024 min)   0.0 %
SCF iterations                  ...     6852.310 sec (= 114.205 min)  97.5 %
MP2 module                      ...      177.093 sec (=   2.952 min)   2.5 %
                             ****ORCA TERMINATED NORMALLY****
TOTAL RUN TIME: 0 days 1 hours 57 minutes 11 seconds 925 msec
