
                                        *****************
                                        * O   R   C   A *
                                        *****************

                                            #,                                       
                                            ###                                      
                                            ####                                     
                                            #####                                    
                                            ######                                   
                                           ########,                                 
                                     ,,################,,,,,                         
                               ,,#################################,,                 
                          ,,##########################################,,             
                       ,#########################################, ''#####,          
                    ,#############################################,,   '####,        
                  ,##################################################,,,,####,       
                ,###########''''           ''''###############################       
              ,#####''   ,,,,##########,,,,          '''####'''          '####       
            ,##' ,,,,###########################,,,                        '##       
           ' ,,###''''                  '''############,,,                           
         ,,##''                                '''############,,,,        ,,,,,,###''
      ,#''                                            '''#######################'''  
     '                                                          ''''####''''         
             ,#######,   #######,   ,#######,      ##                                
            ,#'     '#,  ##    ##  ,#'     '#,    #''#        ######   ,####,        
            ##       ##  ##   ,#'  ##            #'  '#       #        #'  '#        
            ##       ##  #######   ##           ,######,      #####,   #    #        
            '#,     ,#'  ##    ##  '#,     ,#' ,#      #,         ##   #,  ,#        
             '#######'   ##     ##  '#######'  #'      '#     #####' # '####'        



                  #######################################################
                  #                        -***-                        #
                  #          Department of theory and spectroscopy      #
                  #    Directorship and core code : Frank Neese         #
                  #        Max Planck Institute fuer Kohlenforschung    #
                  #                Kaiser Wilhelm Platz 1               #
                  #                 D-45470 Muelheim/Ruhr               #
                  #                      Germany                        #
                  #                                                     #
                  #                  All rights reserved                #
                  #                        -***-                        #
                  #######################################################


                         Program Version 5.0.0 -  RELEASE  -
                                (SVN: $Rev: 19529$)
                ($Date: 2021-06-28 11:36:33 +0200 (Mo, 28 Jun 2021) $)


 With contributions from (in alphabetic order):
   Daniel Aravena         : Magnetic Suceptibility
   Michael Atanasov       : Ab Initio Ligand Field Theory (pilot matlab implementation)
   Alexander A. Auer      : GIAO ZORA, VPT2 properties, NMR spectrum
   Ute Becker             : Parallelization
   Giovanni Bistoni       : ED, misc. LED, open-shell LED, HFLD
   Martin Brehm           : Molecular dynamics
   Dmytro Bykov           : SCF Hessian
   Vijay G. Chilkuri      : MRCI spin determinant printing, contributions to CSF-ICE
   Dipayan Datta          : RHF DLPNO-CCSD density
   Achintya Kumar Dutta   : EOM-CC, STEOM-CC
   Dmitry Ganyushin       : Spin-Orbit,Spin-Spin,Magnetic field MRCI
   Miquel Garcia          : C-PCM Hessian, Gaussian charge scheme
   Yang Guo               : DLPNO-NEVPT2, F12-NEVPT2, CIM, IAO-localization
   Andreas Hansen         : Spin unrestricted coupled pair/coupled cluster methods
   Benjamin Helmich-Paris : MC-RPA, TRAH-SCF, COSX integrals
   Lee Huntington         : MR-EOM, pCC
   Robert Izsak           : Overlap fitted RIJCOSX, COSX-SCS-MP3, EOM
   Marcus Kettner         : VPT2
   Christian Kollmar      : KDIIS, OOCD, Brueckner-CCSD(T), CCSD density, CASPT2, CASPT2-K
   Simone Kossmann        : Meta GGA functionals, TD-DFT gradient, OOMP2, MP2 Hessian
   Martin Krupicka        : Initial AUTO-CI
   Lucas Lang             : DCDCAS
   Marvin Lechner         : AUTO-CI (C++ implementation), FIC-MRCC
   Dagmar Lenk            : GEPOL surface, SMD
   Dimitrios Liakos       : Extrapolation schemes; Compound Job, initial MDCI parallelization
   Dimitrios Manganas     : Further ROCIS development; embedding schemes
   Dimitrios Pantazis     : SARC Basis sets
   Anastasios Papadopoulos: AUTO-CI, single reference methods and gradients
   Taras Petrenko         : DFT Hessian,TD-DFT gradient, ASA, ECA, R-Raman, ABS, FL, XAS/XES, NRVS
   Peter Pinski           : DLPNO-MP2, DLPNO-MP2 Gradient
   Christoph Reimann      : Effective Core Potentials
   Marius Retegan         : Local ZFS, SOC
   Christoph Riplinger    : Optimizer, TS searches, QM/MM, DLPNO-CCSD(T), (RO)-DLPNO pert. Triples
   Tobias Risthaus        : Range-separated hybrids, TD-DFT gradient, RPA, STAB
   Michael Roemelt        : Original ROCIS implementation
   Masaaki Saitow         : Open-shell DLPNO-CCSD energy and density
   Barbara Sandhoefer     : DKH picture change effects
   Avijit Sen             : IP-ROCIS
   Kantharuban Sivalingam : CASSCF convergence, NEVPT2, FIC-MRCI
   Bernardo de Souza      : ESD, SOC TD-DFT
   Georgi Stoychev        : AutoAux, RI-MP2 NMR
   Willem Van den Heuvel  : Paramagnetic NMR
   Boris Wezisla          : Elementary symmetry handling
   Frank Wennmohs         : Technical directorship


 We gratefully acknowledge several colleagues who have allowed us to
 interface, adapt or use parts of their codes:
   Stefan Grimme, W. Hujo, H. Kruse, P. Pracht,  : VdW corrections, initial TS optimization,
                  C. Bannwarth, S. Ehlert          DFT functionals, gCP, sTDA/sTD-DF
   Ed Valeev, F. Pavosevic, A. Kumar             : LibInt (2-el integral package), F12 methods
   Garnet Chan, S. Sharma, J. Yang, R. Olivares  : DMRG
   Ulf Ekstrom                                   : XCFun DFT Library
   Mihaly Kallay                                 : mrcc  (arbitrary order and MRCC methods)
   Jiri Pittner, Ondrej Demel                    : Mk-CCSD
   Frank Weinhold                                : gennbo (NPA and NBO analysis)
   Christopher J. Cramer and Donald G. Truhlar   : smd solvation model
   Lars Goerigk                                  : TD-DFT with DH, B97 family of functionals
   V. Asgeirsson, H. Jonsson                     : NEB implementation
   FAccTs GmbH                                   : IRC, NEB, NEB-TS, DLPNO-Multilevel, CI-OPT
                                                   MM, QMMM, 2- and 3-layer-ONIOM, Crystal-QMMM,
                                                   LR-CPCM, SF, NACMEs, symmetry and pop. for TD-DFT,
                                                   nearIR, NL-DFT gradient (VV10), updates on ESD,
                                                   ML-optimized integration grids
   S Lehtola, MJT Oliveira, MAL Marques          : LibXC Library
   Liviu Ungur et al                             : ANISO software


 Your calculation uses the libint2 library for the computation of 2-el integrals
 For citations please refer to: http://libint.valeyev.net

 Your ORCA version has been built with support for libXC version: 5.1.0
 For citations please refer to: https://tddft.org/programs/libxc/

 This ORCA versions uses:
   CBLAS   interface :  Fast vector & matrix operations
   LAPACKE interface :  Fast linear algebra routines
   SCALAPACK package :  Parallel linear algebra routines
   Shared memory     :  Shared parallel matrices
   BLAS/LAPACK       :  OpenBLAS 0.3.15  USE64BITINT DYNAMIC_ARCH NO_AFFINITY SkylakeX SINGLE_THREADED
        Core in use  :  SkylakeX
   Copyright (c) 2011-2014, The OpenBLAS Project


================================================================================

----- Orbital basis set information -----
Your calculation utilizes the basis: cc-pVTZ 
       H, B-Ne : Obtained from the ccRepo (grant-hill.group.shef.ac.uk/ccrepo) Feb. 2017
                 T. H. Dunning, Jr., J. Chem. Phys. 90, 1007 (1989)
            He : Obtained from the ccRepo (grant-hill.group.shef.ac.uk/ccrepo) Feb. 2017
                 D. E. Woon, T. H. Dunning, Jr., J. Chem. Phys. 100, 2975 (1994)
  Li-Be, Na-Mg : Obtained from the ccRepo (grant-hill.group.shef.ac.uk/ccrepo) Feb. 2017
                 B. P. Prascher, D. E. Woon, K. A. Peterson, T. H. Dunning, Jr., A. K. Wilson, Theor. Chem. Acc. 128, 69 (2011)
         Al-Ar : Obtained from the ccRepo (grant-hill.group.shef.ac.uk/ccrepo) Feb. 2017
                 D. E. Woon, T. H. Dunning, Jr., J. Chem. Phys. 98, 1358 (1993)
            Ca : Obtained from the Peterson Research Group Website (tyr0.chem.wsu.edu/~kipeters) Feb. 2017
                 J. Koput, K. A. Peterson, J. Phys. Chem. 106, 9595 (2002)
         Sc-Zn : Obtained from the ccRepo (grant-hill.group.shef.ac.uk/ccrepo) Feb. 2017
                 N. B. Balabanov, K. A. Peterson, J. Chem. Phys. 123, 064107 (2005)
                 N. B. Balabanov, K. A. Peterson, J. Chem. Phys. 125, 074110 (2006)
         Ga-Kr : Obtained from the ccRepo (grant-hill.group.shef.ac.uk/ccrepo) Feb. 2017
                 A. K. Wilson, D. E. Woon, K. A. Peterson, T. H. Dunning, Jr., J. Chem. Phys. 110, 7667 (1999)
             Y : Obtained from the ccRepo (grant-hill.group.shef.ac.uk/ccrepo) Feb. 2017
                 K. A. Peterson, D. Figgen, M. Dolg, H. Stoll, J. Chem. Phys. 126, 124101 (2007)
        Ag, Au : Obtained from the Peterson Research Group Website (tyr0.chem.wsu.edu/~kipeters) Feb. 2017
                 K. A. Peterson, C. Puzzarini, Theor. Chem. Acc. 114, 283 (2005)

----- AuxC basis set information -----
Your calculation utilizes the auxiliary basis: cc-pVTZ/C 
  Obtained from the EMSL Basis Set Exchange (bse.pnl.gov) Feb. 2017
  H-He, B-F, Al-Ar, Ga-Kr : F. Weigend, A. Kohn, C. Hattig, J. Chem. Phys. 116, 3175 (2002)
             Li-Be, Na-Mg : C. Haettig, Phys. Chem. Chem. Phys. 7, 59 (2005)
                       Ne : C. Haettig, Phys. Chem. Chem. Phys. 7, 59 (2005)
                            F. Weigend, A. Kohn, C. Hattig, J. Chem. Phys. 116, 3175 (2002)
                    Sc-Zn : J. G. Hill, J. A. Platts, J. Chem. Phys. 128, 044104 (2008)

================================================================================
                                        WARNINGS
                       Please study these warnings very carefully!
================================================================================


WARNING: No MP2 level density has been requested!
         To caclulate MP2 level properties use
         %mp2 Density relaxed end
         or
         %mp2 Density unrelaxed end

WARNING: Post HF methods need fully converged wavefunctions
  ===> : Setting SCFConvForced true
         You can overwrite this default with %scf ConvForced false 


INFO   : the flag for use of the SHARK integral package has been found!

================================================================================
                                       INPUT FILE
================================================================================
NAME = qm_input.vacu
|  1> ! RI-MP2 cc-pVTZ cc-pVTZ/c TightSCF KeepDens NoKeepInts
|  2> 
|  3> *xyz  0  1
|  4>     C    -6.4897493   -9.5862583  -11.6148836
|  5>     C    -4.9569036   -9.4571827  -11.5091032
|  6>     O    -4.3913682   -9.0627130  -10.2240492
|  7>     C    -4.3092744  -10.0110060   -9.2829528
|  8>     O    -4.5393824  -11.1837937   -9.4877639
|  9>     C    -4.4267120   -9.4569987   -7.9226766
| 10>     C    -4.1191053   -8.2313967   -7.6131348
| 11>     C    -3.4872236   -7.0734226   -8.3791291
| 12>     N    -4.1683212   -7.8213780   -6.3020165
| 13>     C    -4.5518188   -8.6321208   -5.3014285
| 14>     S    -4.4230716   -8.0986726   -3.7382885
| 15>     N    -4.9048097   -9.9356568   -5.6318890
| 16>     C    -5.0238257  -10.4406767   -6.9872263
| 17>     C    -6.5319592  -10.6600038   -7.2256431
| 18>     C    -7.1470723  -11.8507900   -6.7014957
| 19>     C    -8.5770102  -12.0298756   -6.9152883
| 20>     C    -9.3039046  -11.0684972   -7.6843896
| 21>     C    -8.6896192   -9.8928014   -8.1640109
| 22>     O    -9.4347153   -8.9378871   -8.7878135
| 23>     C    -7.3778005   -9.6347251   -7.8144100
| 24>     H    -6.9193664   -9.8806564  -10.6495119
| 25>     H    -6.9088443  -10.2371299  -12.3920041
| 26>     H    -6.9639789   -8.6206013  -11.8288983
| 27>     H    -4.5546801  -10.4457509  -11.7623597
| 28>     H    -4.6717257   -8.7162552  -12.2660046
| 29>     H    -4.0322536   -6.8484226   -9.3040666
| 30>     H    -2.4950604   -7.4722609   -8.6235260
| 31>     H    -3.3307921   -6.1435170   -7.8187722
| 32>     H    -4.0529091   -6.8401209   -6.0789003
| 33>     H    -5.0834292  -10.6423157   -4.9285436
| 34>     H    -4.4610143  -11.3779689   -7.0761996
| 35>     H    -6.5396791  -12.6252348   -6.2424696
| 36>     H    -9.0127975  -12.9689539   -6.5872375
| 37>     H   -10.3167919  -11.2144696   -8.0479106
| 38>     H    -8.8656184   -8.1560394   -8.8953867
| 39>     H    -6.9165410   -8.7137029   -8.1584356
| 40> *
| 41> 
| 42>                          ****END OF INPUT****
================================================================================

                       ****************************
                       * Single Point Calculation *
                       ****************************

---------------------------------
CARTESIAN COORDINATES (ANGSTROEM)
---------------------------------
  C     -6.489749   -9.586258  -11.614884
  C     -4.956904   -9.457183  -11.509103
  O     -4.391368   -9.062713  -10.224049
  C     -4.309274  -10.011006   -9.282953
  O     -4.539382  -11.183794   -9.487764
  C     -4.426712   -9.456999   -7.922677
  C     -4.119105   -8.231397   -7.613135
  C     -3.487224   -7.073423   -8.379129
  N     -4.168321   -7.821378   -6.302016
  C     -4.551819   -8.632121   -5.301429
  S     -4.423072   -8.098673   -3.738288
  N     -4.904810   -9.935657   -5.631889
  C     -5.023826  -10.440677   -6.987226
  C     -6.531959  -10.660004   -7.225643
  C     -7.147072  -11.850790   -6.701496
  C     -8.577010  -12.029876   -6.915288
  C     -9.303905  -11.068497   -7.684390
  C     -8.689619   -9.892801   -8.164011
  O     -9.434715   -8.937887   -8.787813
  C     -7.377801   -9.634725   -7.814410
  H     -6.919366   -9.880656  -10.649512
  H     -6.908844  -10.237130  -12.392004
  H     -6.963979   -8.620601  -11.828898
  H     -4.554680  -10.445751  -11.762360
  H     -4.671726   -8.716255  -12.266005
  H     -4.032254   -6.848423   -9.304067
  H     -2.495060   -7.472261   -8.623526
  H     -3.330792   -6.143517   -7.818772
  H     -4.052909   -6.840121   -6.078900
  H     -5.083429  -10.642316   -4.928544
  H     -4.461014  -11.377969   -7.076200
  H     -6.539679  -12.625235   -6.242470
  H     -9.012797  -12.968954   -6.587237
  H    -10.316792  -11.214470   -8.047911
  H     -8.865618   -8.156039   -8.895387
  H     -6.916541   -8.713703   -8.158436

----------------------------
CARTESIAN COORDINATES (A.U.)
----------------------------
  NO LB      ZA    FRAG     MASS         X           Y           Z
   0 C     6.0000    0    12.011  -12.263849  -18.115403  -21.948949
   1 C     6.0000    0    12.011   -9.367190  -17.871485  -21.749053
   2 O     8.0000    0    15.999   -8.298483  -17.126046  -19.320653
   3 C     6.0000    0    12.011   -8.143348  -18.918060  -17.542239
   4 O     8.0000    0    15.999   -8.578190  -21.134307  -17.929275
   5 C     6.0000    0    12.011   -8.365273  -17.871138  -14.971689
   6 C     6.0000    0    12.011   -7.783981  -15.555085  -14.386740
   7 C     6.0000    0    12.011   -6.589898  -13.366832  -15.834259
   8 N     7.0000    0    14.007   -7.876986  -14.780262  -11.909085
   9 C     6.0000    0    12.011   -8.601691  -16.312344  -10.018248
  10 S    16.0000    0    32.060   -8.358394  -15.304273   -7.064341
  11 N     7.0000    0    14.007   -9.268747  -18.775670  -10.642728
  12 C     6.0000    0    12.011   -9.493655  -19.730020  -13.203944
  13 C     6.0000    0    12.011  -12.343614  -20.144488  -13.654487
  14 C     6.0000    0    12.011  -13.506009  -22.394748  -12.663992
  15 C     6.0000    0    12.011  -16.208200  -22.733170  -13.068001
  16 C     6.0000    0    12.011  -17.581832  -20.916428  -14.521392
  17 C     6.0000    0    12.011  -16.421000  -18.694685  -15.427745
  18 O     8.0000    0    15.999  -17.829028  -16.890159  -16.606561
  19 C     6.0000    0    12.011  -13.942022  -18.206992  -14.767095
  20 H     1.0000    0     1.008  -13.075708  -18.671735  -20.124661
  21 H     1.0000    0     1.008  -13.055824  -19.345372  -23.417494
  22 H     1.0000    0     1.008  -13.160013  -16.290576  -22.353378
  23 H     1.0000    0     1.008   -8.607098  -19.739608  -22.227639
  24 H     1.0000    0     1.008   -8.828282  -16.471335  -23.179389
  25 H     1.0000    0     1.008   -7.619855  -12.941643  -17.582138
  26 H     1.0000    0     1.008   -4.714981  -14.120527  -16.296102
  27 H     1.0000    0     1.008   -6.294285  -11.609565  -14.775338
  28 H     1.0000    0     1.008   -7.658888  -12.925955  -11.487457
  29 H     1.0000    0     1.008   -9.606289  -20.111062   -9.313598
  30 H     1.0000    0     1.008   -8.430095  -21.501245  -13.372079
  31 H     1.0000    0     1.008  -12.358203  -23.858236  -11.796558
  32 H     1.0000    0     1.008  -17.031719  -24.507771  -12.448075
  33 H     1.0000    0     1.008  -19.495911  -21.192276  -15.208347
  34 H     1.0000    0     1.008  -16.753591  -15.412681  -16.809845
  35 H     1.0000    0     1.008  -13.070368  -16.466512  -15.417209

--------------------------------
INTERNAL COORDINATES (ANGSTROEM)
--------------------------------
 C      0   0   0     0.000000000000     0.00000000     0.00000000
 C      1   0   0     1.541903350910     0.00000000     0.00000000
 O      2   1   0     1.458355380484   117.94387066     0.00000000
 C      3   2   1     1.338529581272   116.85188485    78.15623134
 O      4   3   2     1.212570933026   123.69838746     8.21671161
 C      4   3   2     1.473454111479   112.19836521   210.24278443
 C      6   4   3     1.300975891489   123.71197283   334.52848497
 C      7   6   4     1.525426421267   133.91576562   354.18029483
 N      7   6   4     1.374615850250   119.96506362   184.59320335
 C      9   7   6     1.343707796622   122.71753016   358.63613247
 S     10   9   7     1.656668187414   119.08748536   173.46932754
 N     10   9   7     1.390328314046   117.46239943     0.18085427
 C     12  10   9     1.451257766361   124.68477772   353.19480279
 C     13  12  10     1.542534797383   105.90272425   250.62546300
 C     14  13  12     1.439120007793   118.63628978   280.13038588
 C     15  14  13     1.456880683446   117.89052226   178.91691525
 C     16  15  14     1.429734488078   119.68910997     3.10327916
 C     17  16  15     1.410547325759   121.46395986   355.31978994
 O     18  17  16     1.362409337294   120.11383447   186.02358830
 C     18  17  16     1.381916230302   118.88429114   356.25846612
 H      1   2   3     1.096897266410   110.57632535   329.92736167
 H      1   2   3     1.096900510635   118.56162371   203.98499483
 H      1   2   3     1.096899925691   111.68391684    84.98986677
 H      2   1   3     1.096900034094   105.85794458   120.63879058
 H      2   1   3     1.096904610359   105.52524971   238.08862396
 H      8   7   6     1.096901125811   111.92021592    54.94813022
 H      8   7   6     1.096900018101   102.15427881   297.73412043
 H      8   7   6     1.096902499989   116.49329559   181.48204119
 H      9   7   6     1.012899939693   119.66847015   188.36172496
 H     12  10   9     1.012900033780   122.26484723   171.54995655
 H     13  12  10     1.096899990092   109.33111025   130.29208799
 H     15  14  13     1.086000095826   120.32809667   353.53603332
 H     16  15  14     1.085999977787   117.11785032   175.09901041
 H     17  16  15     1.086000065149   124.32366099   168.00766835
 H     19  18  17     0.973000051872   107.09471347   170.13279351
 H     20  18  17     1.085999922969   118.77883276   181.92401790

---------------------------
INTERNAL COORDINATES (A.U.)
---------------------------
 C      0   0   0     0.000000000000     0.00000000     0.00000000
 C      1   0   0     2.913775058196     0.00000000     0.00000000
 O      2   1   0     2.755892275046   117.94387066     0.00000000
 C      3   2   1     2.529454330757   116.85188485    78.15623134
 O      4   3   2     2.291426981372   123.69838746     8.21671161
 C      4   3   2     2.784424741595   112.19836521   210.24278443
 C      6   4   3     2.458488141749   123.71197283   334.52848497
 C      7   6   4     2.882638173641   133.91576562   354.18029483
 N      7   6   4     2.597647496319   119.96506362   184.59320335
 C      9   7   6     2.539239739630   122.71753016   358.63613247
 S     10   9   7     3.130649168993   119.08748536   173.46932754
 N     10   9   7     2.627339749784   117.46239943     0.18085427
 C     12  10   9     2.742479728149   124.68477772   353.19480279
 C     13  12  10     2.914968319098   105.90272425   250.62546300
 C     14  13  12     2.719542688575   118.63628978   280.13038588
 C     15  14  13     2.753105501513   117.89052226   178.91691525
 C     16  15  14     2.701806626689   119.68910997     3.10327916
 C     17  16  15     2.665548144619   121.46395986   355.31978994
 O     18  17  16     2.574580529783   120.11383447   186.02358830
 C     18  17  16     2.611443215292   118.88429114   356.25846612
 H      1   2   3     2.072835430561   110.57632535   329.92736167
 H      1   2   3     2.072841561259   118.56162371   203.98499483
 H      1   2   3     2.072840455875   111.68391684    84.98986677
 H      2   1   3     2.072840660727   105.85794458   120.63879058
 H      2   1   3     2.072849308614   105.52524971   238.08862396
 H      8   7   6     2.072842723773   111.92021592    54.94813022
 H      8   7   6     2.072840630505   102.15427881   297.73412043
 H      8   7   6     2.072845320592   116.49329559   181.48204119
 H      9   7   6     1.914103487084   119.66847015   188.36172496
 H     12  10   9     1.914103664883   122.26484723   171.54995655
 H     13  12  10     2.072840577575   109.33111025   130.29208799
 H     15  14  13     2.052242762524   120.32809667   353.53603332
 H     16  15  14     2.052242539462   117.11785032   175.09901041
 H     17  16  15     2.052242704553   124.32366099   168.00766835
 H     19  18  17     1.838703626329   107.09471347   170.13279351
 H     20  18  17     2.052242435871   118.77883276   181.92401790

---------------------
BASIS SET INFORMATION
---------------------
There are 5 groups of distinct atoms

 Group   1 Type C   : 18s5p2d1f contracted to 4s3p2d1f pattern {8811/311/11/1}
 Group   2 Type O   : 18s5p2d1f contracted to 4s3p2d1f pattern {8811/311/11/1}
 Group   3 Type N   : 18s5p2d1f contracted to 4s3p2d1f pattern {8811/311/11/1}
 Group   4 Type S   : 41s16p2d1f contracted to 5s4p2d1f pattern {13131311/7711/11/1}
 Group   5 Type H   : 5s2p1d contracted to 3s2p1d pattern {311/11/1}

Atom   0C    basis set group =>   1
Atom   1C    basis set group =>   1
Atom   2O    basis set group =>   2
Atom   3C    basis set group =>   1
Atom   4O    basis set group =>   2
Atom   5C    basis set group =>   1
Atom   6C    basis set group =>   1
Atom   7C    basis set group =>   1
Atom   8N    basis set group =>   3
Atom   9C    basis set group =>   1
Atom  10S    basis set group =>   4
Atom  11N    basis set group =>   3
Atom  12C    basis set group =>   1
Atom  13C    basis set group =>   1
Atom  14C    basis set group =>   1
Atom  15C    basis set group =>   1
Atom  16C    basis set group =>   1
Atom  17C    basis set group =>   1
Atom  18O    basis set group =>   2
Atom  19C    basis set group =>   1
Atom  20H    basis set group =>   5
Atom  21H    basis set group =>   5
Atom  22H    basis set group =>   5
Atom  23H    basis set group =>   5
Atom  24H    basis set group =>   5
Atom  25H    basis set group =>   5
Atom  26H    basis set group =>   5
Atom  27H    basis set group =>   5
Atom  28H    basis set group =>   5
Atom  29H    basis set group =>   5
Atom  30H    basis set group =>   5
Atom  31H    basis set group =>   5
Atom  32H    basis set group =>   5
Atom  33H    basis set group =>   5
Atom  34H    basis set group =>   5
Atom  35H    basis set group =>   5
---------------------------------
AUXILIARY/C BASIS SET INFORMATION
---------------------------------
There are 5 groups of distinct atoms

 Group   1 Type C   : 8s6p5d3f1g contracted to 8s6p5d3f1g pattern {11111111/111111/11111/111/1}
 Group   2 Type O   : 8s6p5d3f1g contracted to 8s6p5d3f1g pattern {11111111/111111/11111/111/1}
 Group   3 Type N   : 8s6p5d3f1g contracted to 8s6p5d3f1g pattern {11111111/111111/11111/111/1}
 Group   4 Type S   : 10s8p7d5f2g contracted to 10s8p7d5f2g pattern {1111111111/11111111/1111111/11111/11}
 Group   5 Type H   : 4s3p2d1f contracted to 4s3p2d1f pattern {1111/111/11/1}

Atom   0C    basis set group =>   1
Atom   1C    basis set group =>   1
Atom   2O    basis set group =>   2
Atom   3C    basis set group =>   1
Atom   4O    basis set group =>   2
Atom   5C    basis set group =>   1
Atom   6C    basis set group =>   1
Atom   7C    basis set group =>   1
Atom   8N    basis set group =>   3
Atom   9C    basis set group =>   1
Atom  10S    basis set group =>   4
Atom  11N    basis set group =>   3
Atom  12C    basis set group =>   1
Atom  13C    basis set group =>   1
Atom  14C    basis set group =>   1
Atom  15C    basis set group =>   1
Atom  16C    basis set group =>   1
Atom  17C    basis set group =>   1
Atom  18O    basis set group =>   2
Atom  19C    basis set group =>   1
Atom  20H    basis set group =>   5
Atom  21H    basis set group =>   5
Atom  22H    basis set group =>   5
Atom  23H    basis set group =>   5
Atom  24H    basis set group =>   5
Atom  25H    basis set group =>   5
Atom  26H    basis set group =>   5
Atom  27H    basis set group =>   5
Atom  28H    basis set group =>   5
Atom  29H    basis set group =>   5
Atom  30H    basis set group =>   5
Atom  31H    basis set group =>   5
Atom  32H    basis set group =>   5
Atom  33H    basis set group =>   5
Atom  34H    basis set group =>   5
Atom  35H    basis set group =>   5
------------------------------------------------------------------------------
                           ORCA GTO INTEGRAL CALCULATION
------------------------------------------------------------------------------
------------------------------------------------------------------------------
                   ___                                                        
                  /   \      - P O W E R E D   B Y -                         
                 /     \                                                     
                 |  |  |   _    _      __       _____    __    __             
                 |  |  |  | |  | |    /  \     |  _  \  |  |  /  |          
                  \  \/   | |  | |   /    \    | | | |  |  | /  /          
                 / \  \   | |__| |  /  /\  \   | |_| |  |  |/  /          
                |  |  |   |  __  | /  /__\  \  |    /   |      \           
                |  |  |   | |  | | |   __   |  |    \   |  |\   \          
                \     /   | |  | | |  |  |  |  | |\  \  |  | \   \       
                 \___/    |_|  |_| |__|  |__|  |_| \__\ |__|  \__/        
                                                                              
                      - O R C A' S   B I G   F R I E N D -                    
                                      &                                       
                       - I N T E G R A L  F E E D E R -                       
                                                                              
 v1 FN, 2020, v2 2021                                                         
------------------------------------------------------------------------------


Reading SHARK input file qm_input.vacu.SHARKINP.tmp ... ok
----------------------
SHARK INTEGRAL PACKAGE
----------------------

Number of atoms                             ...     36
Number of basis functions                   ...    828
Number of shells                            ...    298
Maximum angular momentum                    ...      3
Integral batch strategy                     ... SHARK/LIBINT Hybrid
RI-J (if used) integral strategy            ... SPLIT-RIJ (Revised 2003 algorithm where possible)
Printlevel                                  ...      1
Contraction scheme used                     ... SEGMENTED contraction
Coulomb Range Separation                    ... NOT USED
Exchange Range Separation                   ... NOT USED
Finite Nucleus Model                        ... NOT USED
Auxiliary Coulomb fitting basis             ... NOT available
Auxiliary J/K fitting basis                 ... NOT available
Auxiliary Correlation fitting basis         ... AVAILABLE
   # of basis functions in Aux-C            ...   2141
   # of shells in Aux-C                     ...    629
   Maximum angular momentum in Aux-C        ...      4
Auxiliary 'external' fitting basis          ... NOT available
Integral threshold                          ...     2.500000e-11
Primitive cut-off                           ...     2.500000e-12
Primitive pair pre-selection threshold      ...     2.500000e-12

Calculating pre-screening integrals         ... done (  0.6 sec) Dimension = 298
Organizing shell pair data                  ... done (  0.4 sec)
Shell pair information
Total number of shell pairs                 ...     44551
Shell pairs after pre-screening             ...     33928
Total number of primitive shell pairs       ...    234348
Primitive shell pairs kept                  ...     97060
          la=0 lb=0:   6760 shell pairs
          la=1 lb=0:   9417 shell pairs
          la=1 lb=1:   3328 shell pairs
          la=2 lb=0:   5425 shell pairs
          la=2 lb=1:   3725 shell pairs
          la=2 lb=2:   1055 shell pairs
          la=3 lb=0:   1964 shell pairs
          la=3 lb=1:   1345 shell pairs
          la=3 lb=2:    760 shell pairs
          la=3 lb=3:    149 shell pairs

Calculating one electron integrals          ... done (  0.3 sec)
Calculating RI/C V-Matrix + Cholesky decomp.... done (  0.4 sec)
Calculating Nuclear repulsion               ... done (  0.0 sec) ENN=   1724.977177595355 Eh

SHARK setup successfully completed in   2.0 seconds

Maximum memory used throughout the entire GTOINT-calculation: 502.9 MB
-------------------------------------------------------------------------------
                                 ORCA SCF
-------------------------------------------------------------------------------

------------
SCF SETTINGS
------------
Hamiltonian:
 Ab initio Hamiltonian  Method          .... Hartree-Fock(GTOs)


General Settings:
 Integral files         IntName         .... qm_input.vacu
 Hartree-Fock type      HFTyp           .... RHF
 Total Charge           Charge          ....    0
 Multiplicity           Mult            ....    1
 Number of Electrons    NEL             ....  154
 Basis Dimension        Dim             ....  828
 Nuclear Repulsion      ENuc            ....   1724.9771775954 Eh

Convergence Acceleration:
 DIIS                   CNVDIIS         .... on
   Start iteration      DIISMaxIt       ....    12
   Startup error        DIISStart       ....  0.200000
   # of expansion vecs  DIISMaxEq       ....     5
   Bias factor          DIISBfac        ....   1.050
   Max. coefficient     DIISMaxC        ....  10.000
 Trust-Rad. Augm. Hess. CNVTRAH         .... auto
   Auto Start mean grad. ratio tolernc. ....  1.125000
   Auto Start start iteration           ....    20
   Auto Start num. interpolation iter.  ....    10
   Max. Number of Micro iterations      ....    16
   Max. Number of Macro iterations      .... Maxiter - #DIIS iter
   Number of Davidson start vectors     ....     2
   Converg. threshold I  (grad. norm)   ....   1.000e-05
   Converg. threshold II (energy diff.) ....   1.000e-08
   Grad. Scal. Fac. for Micro threshold ....   0.100
   Minimum threshold for Micro iter.    ....   0.010
   NR start threshold (gradient norm)   ....   0.001
   Initial trust radius                 ....   0.400
   Minimum AH scaling param. (alpha)    ....   1.000
   Maximum AH scaling param. (alpha)    .... 1000.000
   Orbital update algorithm             .... Taylor
   White noise on init. David. guess    .... on
   Maximum white noise                  ....   0.010
   Quad. conv. algorithm                .... NR
 SOSCF                  CNVSOSCF        .... on
   Start iteration      SOSCFMaxIt      ....   150
   Startup grad/error   SOSCFStart      ....  0.003300
 Level Shifting         CNVShift        .... on
   Level shift para.    LevelShift      ....    0.2500
   Turn off err/grad.   ShiftErr        ....    0.0010
 Zerner damping         CNVZerner       .... off
 Static damping         CNVDamp         .... on
   Fraction old density DampFac         ....    0.7000
   Max. Damping (<1)    DampMax         ....    0.9800
   Min. Damping (>=0)   DampMin         ....    0.0000
   Turn off err/grad.   DampErr         ....    0.1000
 Fernandez-Rico         CNVRico         .... off

SCF Procedure:
 Maximum # iterations   MaxIter         ....   125
 SCF integral mode      SCFMode         .... Direct
   Integral package                     .... SHARK and LIBINT hybrid scheme
 Reset frequency        DirectResetFreq ....    20
 Integral Threshold     Thresh          ....  2.500e-11 Eh
 Primitive CutOff       TCut            ....  2.500e-12 Eh

Convergence Tolerance:
 Convergence Check Mode ConvCheckMode   .... Total+1el-Energy
 Convergence forced     ConvForced      .... 1
 Energy Change          TolE            ....  1.000e-08 Eh
 1-El. energy change                    ....  1.000e-05 Eh
 Orbital Gradient       TolG            ....  1.000e-05
 Orbital Rotation angle TolX            ....  1.000e-05
 DIIS Error             TolErr          ....  5.000e-07


Diagonalization of the overlap matrix:
Smallest eigenvalue                        ... 4.316e-05
Time for diagonalization                   ...    0.136 sec
Threshold for overlap eigenvalues          ... 1.000e-08
Number of eigenvalues below threshold      ... 0
Time for construction of square roots      ...    0.161 sec
Total time needed                          ...    0.298 sec

Time for model grid setup =    1.365 sec

------------------------------
INITIAL GUESS: MODEL POTENTIAL
------------------------------
Loading Hartree-Fock densities                     ... done
Calculating cut-offs                               ... done
Initializing the effective Hamiltonian             ... done
Setting up the integral package (SHARK)            ... done
Starting the Coulomb interaction                   ... done (   3.9 sec)
Reading the grid                                   ... done
Mapping shells                                     ... done
Starting the XC term evaluation                    ... done (   1.3 sec)
Transforming the Hamiltonian                       ... done (   0.0 sec)
Diagonalizing the Hamiltonian                      ... done (   0.1 sec)
Back transforming the eigenvectors                 ... done (   0.0 sec)
Now organizing SCF variables                       ... done
                      ------------------
                      INITIAL GUESS DONE (   6.8 sec)
                      ------------------
--------------
SCF ITERATIONS
--------------
ITER       Energy         Delta-E        Max-DP      RMS-DP      [F,P]     Damp
               ***  Starting incremental Fock matrix formation  ***
  0  -1269.9729051898   0.000000000000 0.04914275  0.00044972  0.3250540 0.7000
  1  -1270.2359762754  -0.263071085581 0.03824986  0.00036479  0.1956131 0.7000
                               ***Turning on DIIS***
  2  -1270.4005664566  -0.164590181269 0.02577522  0.00024154  0.1103089 0.7000
  3  -1272.5309610173  -2.130394560621 0.06306191  0.00051669  0.0827390 0.0000
  4  -1270.7117192611   1.819241756170 0.01428199  0.00011021  0.0087304 0.0000
  5  -1270.7663985654  -0.054679304299 0.00593905  0.00005627  0.0054007 0.0000
  6  -1270.7449786010   0.021419964432 0.00269395  0.00002743  0.0038271 0.0000
                      *** Initiating the SOSCF procedure ***
                           *** Shutting down DIIS ***
                      *** Re-Reading the Fockian *** 
                      *** Removing any level shift *** 
ITER      Energy       Delta-E        Grad      Rot      Max-DP    RMS-DP
  7  -1270.75889852  -0.0139199182  0.000878  0.000878  0.001602  0.000015
               *** Restarting incremental Fock matrix formation ***
  8  -1270.75923799  -0.0003394717  0.000462  0.001109  0.000694  0.000008
  9  -1270.75925240  -0.0000144108  0.000209  0.001274  0.001107  0.000011
 10  -1270.75925850  -0.0000060988  0.000092  0.000143  0.000198  0.000002
 11  -1270.75925906  -0.0000005621  0.000032  0.000054  0.000065  0.000001
 12  -1270.75925918  -0.0000001161  0.000011  0.000041  0.000036  0.000000
 13  -1270.75925920  -0.0000000172  0.000006  0.000026  0.000016  0.000000
 14  -1270.75925921  -0.0000000102  0.000003  0.000008  0.000003  0.000000
                  ***Gradient check signals convergence***
              ***Rediagonalizing the Fockian in SOSCF/NRSCF***

               *****************************************************
               *                     SUCCESS                       *
               *           SCF CONVERGED AFTER  15 CYCLES          *
               *****************************************************


----------------
TOTAL SCF ENERGY
----------------

Total Energy       :        -1270.75925920 Eh          -34579.11741 eV

Components:
Nuclear Repulsion  :         1724.97717760 Eh           46939.01534 eV
Electronic Energy  :        -2995.73643680 Eh          -81518.13275 eV
One Electron Energy:        -5170.72996144 Eh         -140702.71544 eV
Two Electron Energy:         2174.99352464 Eh           59184.58269 eV

Virial components:
Potential Energy   :        -2539.91859482 Eh          -69114.69869 eV
Kinetic Energy     :         1269.15933561 Eh           34535.58128 eV
Virial Ratio       :            2.00126062


---------------
SCF CONVERGENCE
---------------

  Last Energy change         ...    4.8049e-09  Tolerance :   1.0000e-08
  Last MAX-Density change    ...    2.5086e-06  Tolerance :   1.0000e-07
  Last RMS-Density change    ...    3.2116e-08  Tolerance :   5.0000e-09
  Last Orbital Gradient      ...    7.8844e-07  Tolerance :   1.0000e-05
  Last Orbital Rotation      ...    2.8900e-06  Tolerance :   1.0000e-05

             **** THE GBW FILE WAS UPDATED (qm_input.vacu.gbw) ****
             **** DENSITY qm_input.vacu.scfp WAS UPDATED ****
             **** ENERGY FILE WAS UPDATED (qm_input.vacu.en.tmp) ****
             **** THE GBW FILE WAS UPDATED (qm_input.vacu.gbw) ****
             **** DENSITY qm_input.vacu.scfp WAS UPDATED ****
----------------
ORBITAL ENERGIES
----------------

  NO   OCC          E(Eh)            E(eV) 
   0   2.0000     -91.885314     -2500.3265 
   1   2.0000     -20.612997      -560.9082 
   2   2.0000     -20.599212      -560.5331 
   3   2.0000     -20.549486      -559.1799 
   4   2.0000     -15.626360      -425.2149 
   5   2.0000     -15.605921      -424.6587 
   6   2.0000     -11.390737      -309.9577 
   7   2.0000     -11.382883      -309.7440 
   8   2.0000     -11.325041      -308.1700 
   9   2.0000     -11.311897      -307.8124 
  10   2.0000     -11.305345      -307.6341 
  11   2.0000     -11.302459      -307.5556 
  12   2.0000     -11.271171      -306.7041 
  13   2.0000     -11.264254      -306.5159 
  14   2.0000     -11.263898      -306.5062 
  15   2.0000     -11.247568      -306.0619 
  16   2.0000     -11.246421      -306.0307 
  17   2.0000     -11.241954      -305.9091 
  18   2.0000     -11.241726      -305.9029 
  19   2.0000     -11.232898      -305.6627 
  20   2.0000      -8.890415      -241.9205 
  21   2.0000      -6.571980      -178.8327 
  22   2.0000      -6.570002      -178.7789 
  23   2.0000      -6.569399      -178.7624 
  24   2.0000      -1.470693       -40.0196 
  25   2.0000      -1.414881       -38.5009 
  26   2.0000      -1.367441       -37.2100 
  27   2.0000      -1.353741       -36.8372 
  28   2.0000      -1.244872       -33.8747 
  29   2.0000      -1.150352       -31.3027 
  30   2.0000      -1.126504       -30.6537 
  31   2.0000      -1.044546       -28.4235 
  32   2.0000      -1.035160       -28.1681 
  33   2.0000      -1.011697       -27.5297 
  34   2.0000      -1.006144       -27.3786 
  35   2.0000      -0.983386       -26.7593 
  36   2.0000      -0.929058       -25.2809 
  37   2.0000      -0.903451       -24.5841 
  38   2.0000      -0.853298       -23.2194 
  39   2.0000      -0.843298       -22.9473 
  40   2.0000      -0.826794       -22.4982 
  41   2.0000      -0.807632       -21.9768 
  42   2.0000      -0.762557       -20.7502 
  43   2.0000      -0.752984       -20.4897 
  44   2.0000      -0.736685       -20.0462 
  45   2.0000      -0.702512       -19.1163 
  46   2.0000      -0.689841       -18.7715 
  47   2.0000      -0.686738       -18.6871 
  48   2.0000      -0.669927       -18.2296 
  49   2.0000      -0.666797       -18.1445 
  50   2.0000      -0.659704       -17.9515 
  51   2.0000      -0.644733       -17.5441 
  52   2.0000      -0.629862       -17.1394 
  53   2.0000      -0.618159       -16.8210 
  54   2.0000      -0.611780       -16.6474 
  55   2.0000      -0.599691       -16.3184 
  56   2.0000      -0.596207       -16.2236 
  57   2.0000      -0.586163       -15.9503 
  58   2.0000      -0.573361       -15.6020 
  59   2.0000      -0.571033       -15.5386 
  60   2.0000      -0.564545       -15.3621 
  61   2.0000      -0.557016       -15.1572 
  62   2.0000      -0.540615       -14.7109 
  63   2.0000      -0.529495       -14.4083 
  64   2.0000      -0.522981       -14.2310 
  65   2.0000      -0.503494       -13.7008 
  66   2.0000      -0.498084       -13.5536 
  67   2.0000      -0.494756       -13.4630 
  68   2.0000      -0.478123       -13.0104 
  69   2.0000      -0.468829       -12.7575 
  70   2.0000      -0.457856       -12.4589 
  71   2.0000      -0.455078       -12.3833 
  72   2.0000      -0.364137        -9.9087 
  73   2.0000      -0.338041        -9.1986 
  74   2.0000      -0.325833        -8.8664 
  75   2.0000      -0.320131        -8.7112 
  76   2.0000      -0.311452        -8.4750 
  77   0.0000       0.079052         2.1511 
  78   0.0000       0.103205         2.8084 
  79   0.0000       0.110309         3.0017 
  80   0.0000       0.127627         3.4729 
  81   0.0000       0.130326         3.5464 
  82   0.0000       0.137229         3.7342 
  83   0.0000       0.146416         3.9842 
  84   0.0000       0.156006         4.2451 
  85   0.0000       0.164021         4.4632 
  86   0.0000       0.168758         4.5921 
  87   0.0000       0.186566         5.0767 
  88   0.0000       0.190911         5.1950 
  89   0.0000       0.195186         5.3113 
  90   0.0000       0.200452         5.4546 
  91   0.0000       0.202526         5.5110 
  92   0.0000       0.207867         5.6563 
  93   0.0000       0.219617         5.9761 
  94   0.0000       0.225331         6.1316 
  95   0.0000       0.237046         6.4503 
  96   0.0000       0.243542         6.6271 
  97   0.0000       0.250214         6.8087 
  98   0.0000       0.253250         6.8913 
  99   0.0000       0.279911         7.6168 
 100   0.0000       0.286525         7.7967 
 101   0.0000       0.301536         8.2052 
 102   0.0000       0.312177         8.4948 
 103   0.0000       0.319684         8.6990 
 104   0.0000       0.323303         8.7975 
 105   0.0000       0.340091         9.2543 
 106   0.0000       0.347880         9.4663 
 107   0.0000       0.349411         9.5080 
 108   0.0000       0.357101         9.7172 
 109   0.0000       0.365235         9.9385 
 110   0.0000       0.373815        10.1720 
 111   0.0000       0.382715        10.4142 
 112   0.0000       0.386302        10.5118 
 113   0.0000       0.394529        10.7357 
 114   0.0000       0.398578        10.8459 
 115   0.0000       0.400350        10.8941 
 116   0.0000       0.406822        11.0702 
 117   0.0000       0.414277        11.2731 
 118   0.0000       0.430418        11.7123 
 119   0.0000       0.431541        11.7428 
 120   0.0000       0.439731        11.9657 
 121   0.0000       0.449786        12.2393 
 122   0.0000       0.452999        12.3267 
 123   0.0000       0.456827        12.4309 
 124   0.0000       0.462832        12.5943 
 125   0.0000       0.466477        12.6935 
 126   0.0000       0.477762        13.0006 
 127   0.0000       0.483335        13.1522 
 128   0.0000       0.489892        13.3306 
 129   0.0000       0.501495        13.6464 
 130   0.0000       0.504825        13.7370 
 131   0.0000       0.506838        13.7918 
 132   0.0000       0.511008        13.9052 
 133   0.0000       0.514168        13.9912 
 134   0.0000       0.518901        14.1200 
 135   0.0000       0.527374        14.3506 
 136   0.0000       0.536284        14.5930 
 137   0.0000       0.537353        14.6221 
 138   0.0000       0.542585        14.7645 
 139   0.0000       0.547344        14.8940 
 140   0.0000       0.552534        15.0352 
 141   0.0000       0.557243        15.1634 
 142   0.0000       0.565782        15.3957 
 143   0.0000       0.567678        15.4473 
 144   0.0000       0.574411        15.6305 
 145   0.0000       0.575634        15.6638 
 146   0.0000       0.582031        15.8379 
 147   0.0000       0.588134        16.0039 
 148   0.0000       0.592745        16.1294 
 149   0.0000       0.593206        16.1420 
 150   0.0000       0.596390        16.2286 
 151   0.0000       0.603603        16.4249 
 152   0.0000       0.607910        16.5421 
 153   0.0000       0.612451        16.6656 
 154   0.0000       0.614242        16.7144 
 155   0.0000       0.622999        16.9527 
 156   0.0000       0.625682        17.0257 
 157   0.0000       0.628284        17.0965 
 158   0.0000       0.636445        17.3186 
 159   0.0000       0.640126        17.4187 
 160   0.0000       0.648125        17.6364 
 161   0.0000       0.650907        17.7121 
 162   0.0000       0.655785        17.8448 
 163   0.0000       0.660543        17.9743 
 164   0.0000       0.664630        18.0855 
 165   0.0000       0.666981        18.1495 
 166   0.0000       0.676111        18.3979 
 167   0.0000       0.685291        18.6477 
 168   0.0000       0.689136        18.7524 
 169   0.0000       0.697208        18.9720 
 170   0.0000       0.706662        19.2292 
 171   0.0000       0.714350        19.4385 
 172   0.0000       0.715581        19.4720 
 173   0.0000       0.721379        19.6297 
 174   0.0000       0.727479        19.7957 
 175   0.0000       0.739013        20.1096 
 176   0.0000       0.743253        20.2249 
 177   0.0000       0.746896        20.3241 
 178   0.0000       0.754674        20.5357 
 179   0.0000       0.763290        20.7702 
 180   0.0000       0.766240        20.8505 
 181   0.0000       0.774097        21.0642 
 182   0.0000       0.780055        21.2264 
 183   0.0000       0.786149        21.3922 
 184   0.0000       0.799491        21.7553 
 185   0.0000       0.804573        21.8935 
 186   0.0000       0.808069        21.9887 
 187   0.0000       0.812668        22.1138 
 188   0.0000       0.826789        22.4981 
 189   0.0000       0.834992        22.7213 
 190   0.0000       0.844538        22.9810 
 191   0.0000       0.853058        23.2129 
 192   0.0000       0.854719        23.2581 
 193   0.0000       0.857735        23.3402 
 194   0.0000       0.868994        23.6465 
 195   0.0000       0.876597        23.8534 
 196   0.0000       0.884256        24.0618 
 197   0.0000       0.889646        24.2085 
 198   0.0000       0.900463        24.5028 
 199   0.0000       0.915937        24.9239 
 200   0.0000       0.920800        25.0562 
 201   0.0000       0.923199        25.1215 
 202   0.0000       0.927545        25.2398 
 203   0.0000       0.933623        25.4052 
 204   0.0000       0.941082        25.6081 
 205   0.0000       0.950714        25.8702 
 206   0.0000       0.956487        26.0273 
 207   0.0000       0.963622        26.2215 
 208   0.0000       0.965590        26.2750 
 209   0.0000       0.978840        26.6356 
 210   0.0000       0.988376        26.8951 
 211   0.0000       0.989991        26.9390 
 212   0.0000       1.003523        27.3072 
 213   0.0000       1.005111        27.3505 
 214   0.0000       1.008620        27.4459 
 215   0.0000       1.015363        27.6294 
 216   0.0000       1.018591        27.7173 
 217   0.0000       1.024537        27.8791 
 218   0.0000       1.028958        27.9994 
 219   0.0000       1.032301        28.0903 
 220   0.0000       1.047276        28.4978 
 221   0.0000       1.055218        28.7139 
 222   0.0000       1.056788        28.7567 
 223   0.0000       1.076016        29.2799 
 224   0.0000       1.082367        29.4527 
 225   0.0000       1.093771        29.7630 
 226   0.0000       1.100708        29.9518 
 227   0.0000       1.105800        30.0903 
 228   0.0000       1.113994        30.3133 
 229   0.0000       1.125736        30.6328 
 230   0.0000       1.129904        30.7463 
 231   0.0000       1.136129        30.9156 
 232   0.0000       1.144343        31.1392 
 233   0.0000       1.148205        31.2442 
 234   0.0000       1.155154        31.4333 
 235   0.0000       1.158576        31.5264 
 236   0.0000       1.167288        31.7635 
 237   0.0000       1.169523        31.8243 
 238   0.0000       1.183397        32.2019 
 239   0.0000       1.186015        32.2731 
 240   0.0000       1.197284        32.5798 
 241   0.0000       1.199784        32.6478 
 242   0.0000       1.205611        32.8063 
 243   0.0000       1.210026        32.9265 
 244   0.0000       1.217605        33.1327 
 245   0.0000       1.225342        33.3433 
 246   0.0000       1.230694        33.4889 
 247   0.0000       1.245899        33.9026 
 248   0.0000       1.250059        34.0158 
 249   0.0000       1.254331        34.1321 
 250   0.0000       1.258580        34.2477 
 251   0.0000       1.277939        34.7745 
 252   0.0000       1.279367        34.8133 
 253   0.0000       1.286888        35.0180 
 254   0.0000       1.293915        35.2092 
 255   0.0000       1.304243        35.4902 
 256   0.0000       1.313684        35.7472 
 257   0.0000       1.321580        35.9620 
 258   0.0000       1.325094        36.0576 
 259   0.0000       1.338693        36.4277 
 260   0.0000       1.341084        36.4927 
 261   0.0000       1.344355        36.5818 
 262   0.0000       1.353465        36.8296 
 263   0.0000       1.364665        37.1344 
 264   0.0000       1.375768        37.4365 
 265   0.0000       1.383948        37.6591 
 266   0.0000       1.390999        37.8510 
 267   0.0000       1.395900        37.9844 
 268   0.0000       1.403161        38.1820 
 269   0.0000       1.405919        38.2570 
 270   0.0000       1.412028        38.4232 
 271   0.0000       1.420456        38.6526 
 272   0.0000       1.439527        39.1715 
 273   0.0000       1.442082        39.2411 
 274   0.0000       1.455020        39.5931 
 275   0.0000       1.461315        39.7644 
 276   0.0000       1.472222        40.0612 
 277   0.0000       1.477121        40.1945 
 278   0.0000       1.479226        40.2518 
 279   0.0000       1.484784        40.4030 
 280   0.0000       1.497392        40.7461 
 281   0.0000       1.500806        40.8390 
 282   0.0000       1.503599        40.9150 
 283   0.0000       1.516460        41.2650 
 284   0.0000       1.521805        41.4104 
 285   0.0000       1.526020        41.5251 
 286   0.0000       1.535955        41.7955 
 287   0.0000       1.539781        41.8996 
 288   0.0000       1.544378        42.0247 
 289   0.0000       1.552239        42.2386 
 290   0.0000       1.557498        42.3817 
 291   0.0000       1.573449        42.8157 
 292   0.0000       1.576786        42.9065 
 293   0.0000       1.581504        43.0349 
 294   0.0000       1.589712        43.2583 
 295   0.0000       1.600363        43.5481 
 296   0.0000       1.607639        43.7461 
 297   0.0000       1.618502        44.0417 
 298   0.0000       1.620326        44.0913 
 299   0.0000       1.631162        44.3862 
 300   0.0000       1.635761        44.5113 
 301   0.0000       1.649399        44.8824 
 302   0.0000       1.656276        45.0696 
 303   0.0000       1.656686        45.0807 
 304   0.0000       1.662018        45.2258 
 305   0.0000       1.687859        45.9290 
 306   0.0000       1.691940        46.0400 
 307   0.0000       1.700746        46.2797 
 308   0.0000       1.706002        46.4227 
 309   0.0000       1.710236        46.5379 
 310   0.0000       1.731211        47.1087 
 311   0.0000       1.735630        47.2289 
 312   0.0000       1.742512        47.4162 
 313   0.0000       1.747400        47.5492 
 314   0.0000       1.759698        47.8838 
 315   0.0000       1.767203        48.0881 
 316   0.0000       1.783806        48.5398 
 317   0.0000       1.787983        48.6535 
 318   0.0000       1.800273        48.9879 
 319   0.0000       1.811738        49.2999 
 320   0.0000       1.813171        49.3389 
 321   0.0000       1.828805        49.7643 
 322   0.0000       1.847164        50.2639 
 323   0.0000       1.865542        50.7640 
 324   0.0000       1.868359        50.8406 
 325   0.0000       1.889102        51.4051 
 326   0.0000       1.901149        51.7329 
 327   0.0000       1.905731        51.8576 
 328   0.0000       1.907762        51.9128 
 329   0.0000       1.920860        52.2693 
 330   0.0000       1.928882        52.4876 
 331   0.0000       1.931815        52.5674 
 332   0.0000       1.950636        53.0795 
 333   0.0000       1.959292        53.3150 
 334   0.0000       1.977826        53.8194 
 335   0.0000       1.996542        54.3287 
 336   0.0000       2.000962        54.4490 
 337   0.0000       2.002755        54.4977 
 338   0.0000       2.011335        54.7312 
 339   0.0000       2.024673        55.0941 
 340   0.0000       2.028930        55.2100 
 341   0.0000       2.061036        56.0836 
 342   0.0000       2.069352        56.3099 
 343   0.0000       2.079950        56.5983 
 344   0.0000       2.087499        56.8037 
 345   0.0000       2.105878        57.3038 
 346   0.0000       2.108865        57.3851 
 347   0.0000       2.130799        57.9820 
 348   0.0000       2.137050        58.1521 
 349   0.0000       2.161919        58.8288 
 350   0.0000       2.170107        59.0516 
 351   0.0000       2.191640        59.6376 
 352   0.0000       2.203229        59.9529 
 353   0.0000       2.210436        60.1490 
 354   0.0000       2.229660        60.6721 
 355   0.0000       2.253091        61.3097 
 356   0.0000       2.280802        62.0638 
 357   0.0000       2.283491        62.1370 
 358   0.0000       2.288546        62.2745 
 359   0.0000       2.304119        62.6983 
 360   0.0000       2.314643        62.9846 
 361   0.0000       2.324949        63.2651 
 362   0.0000       2.341589        63.7179 
 363   0.0000       2.352487        64.0144 
 364   0.0000       2.364296        64.3358 
 365   0.0000       2.369014        64.4641 
 366   0.0000       2.385037        64.9002 
 367   0.0000       2.395252        65.1781 
 368   0.0000       2.402757        65.3823 
 369   0.0000       2.419667        65.8425 
 370   0.0000       2.433295        66.2133 
 371   0.0000       2.448923        66.6386 
 372   0.0000       2.460599        66.9563 
 373   0.0000       2.480202        67.4897 
 374   0.0000       2.484976        67.6196 
 375   0.0000       2.508328        68.2551 
 376   0.0000       2.515907        68.4613 
 377   0.0000       2.526374        68.7461 
 378   0.0000       2.534313        68.9622 
 379   0.0000       2.552589        69.4595 
 380   0.0000       2.564717        69.7895 
 381   0.0000       2.576219        70.1025 
 382   0.0000       2.592501        70.5455 
 383   0.0000       2.601473        70.7897 
 384   0.0000       2.613419        71.1148 
 385   0.0000       2.620687        71.3125 
 386   0.0000       2.642524        71.9067 
 387   0.0000       2.655686        72.2649 
 388   0.0000       2.660203        72.3878 
 389   0.0000       2.673275        72.7435 
 390   0.0000       2.680552        72.9415 
 391   0.0000       2.686885        73.1139 
 392   0.0000       2.699757        73.4641 
 393   0.0000       2.714026        73.8524 
 394   0.0000       2.728538        74.2473 
 395   0.0000       2.734690        74.4147 
 396   0.0000       2.736636        74.4677 
 397   0.0000       2.752308        74.8941 
 398   0.0000       2.765693        75.2583 
 399   0.0000       2.768095        75.3237 
 400   0.0000       2.776221        75.5448 
 401   0.0000       2.795654        76.0736 
 402   0.0000       2.797460        76.1228 
 403   0.0000       2.812251        76.5252 
 404   0.0000       2.819224        76.7150 
 405   0.0000       2.823735        76.8377 
 406   0.0000       2.842158        77.3391 
 407   0.0000       2.850008        77.5527 
 408   0.0000       2.860651        77.8423 
 409   0.0000       2.871932        78.1492 
 410   0.0000       2.882751        78.4437 
 411   0.0000       2.885712        78.5242 
 412   0.0000       2.892140        78.6991 
 413   0.0000       2.903477        79.0076 
 414   0.0000       2.908806        79.1526 
 415   0.0000       2.916311        79.3568 
 416   0.0000       2.930700        79.7484 
 417   0.0000       2.939811        79.9963 
 418   0.0000       2.946161        80.1691 
 419   0.0000       2.964306        80.6629 
 420   0.0000       2.964925        80.6797 
 421   0.0000       2.970692        80.8366 
 422   0.0000       2.976451        80.9934 
 423   0.0000       2.991191        81.3945 
 424   0.0000       2.996025        81.5260 
 425   0.0000       3.010498        81.9198 
 426   0.0000       3.023715        82.2795 
 427   0.0000       3.027200        82.3743 
 428   0.0000       3.033553        82.5472 
 429   0.0000       3.041077        82.7519 
 430   0.0000       3.052687        83.0678 
 431   0.0000       3.055680        83.1493 
 432   0.0000       3.070841        83.5618 
 433   0.0000       3.076195        83.7075 
 434   0.0000       3.083063        83.8944 
 435   0.0000       3.084050        83.9213 
 436   0.0000       3.099992        84.3551 
 437   0.0000       3.102907        84.4344 
 438   0.0000       3.109898        84.6246 
 439   0.0000       3.113312        84.7175 
 440   0.0000       3.117068        84.8197 
 441   0.0000       3.128884        85.1413 
 442   0.0000       3.139720        85.4361 
 443   0.0000       3.141276        85.4785 
 444   0.0000       3.150753        85.7364 
 445   0.0000       3.157486        85.9196 
 446   0.0000       3.160653        86.0057 
 447   0.0000       3.171787        86.3087 
 448   0.0000       3.178664        86.4959 
 449   0.0000       3.183483        86.6270 
 450   0.0000       3.190503        86.8180 
 451   0.0000       3.201223        87.1097 
 452   0.0000       3.212545        87.4178 
 453   0.0000       3.220148        87.6247 
 454   0.0000       3.225114        87.7598 
 455   0.0000       3.238580        88.1262 
 456   0.0000       3.243462        88.2591 
 457   0.0000       3.246162        88.3326 
 458   0.0000       3.251475        88.4771 
 459   0.0000       3.266130        88.8759 
 460   0.0000       3.267867        88.9232 
 461   0.0000       3.274671        89.1083 
 462   0.0000       3.280478        89.2663 
 463   0.0000       3.287715        89.4633 
 464   0.0000       3.297886        89.7400 
 465   0.0000       3.306186        89.9659 
 466   0.0000       3.315309        90.2141 
 467   0.0000       3.317375        90.2704 
 468   0.0000       3.319665        90.3327 
 469   0.0000       3.324989        90.4776 
 470   0.0000       3.327476        90.5452 
 471   0.0000       3.336658        90.7951 
 472   0.0000       3.341452        90.9255 
 473   0.0000       3.343937        90.9932 
 474   0.0000       3.348701        91.1228 
 475   0.0000       3.351497        91.1989 
 476   0.0000       3.359791        91.4246 
 477   0.0000       3.366963        91.6197 
 478   0.0000       3.373185        91.7890 
 479   0.0000       3.382692        92.0477 
 480   0.0000       3.388212        92.1979 
 481   0.0000       3.394371        92.3655 
 482   0.0000       3.397993        92.4641 
 483   0.0000       3.407675        92.7275 
 484   0.0000       3.409391        92.7743 
 485   0.0000       3.412494        92.8587 
 486   0.0000       3.425026        93.1997 
 487   0.0000       3.428683        93.2992 
 488   0.0000       3.433533        93.4312 
 489   0.0000       3.437936        93.5510 
 490   0.0000       3.442924        93.6867 
 491   0.0000       3.444996        93.7431 
 492   0.0000       3.456737        94.0626 
 493   0.0000       3.467165        94.3463 
 494   0.0000       3.476874        94.6106 
 495   0.0000       3.479654        94.6862 
 496   0.0000       3.489399        94.9514 
 497   0.0000       3.500263        95.2470 
 498   0.0000       3.503390        95.3321 
 499   0.0000       3.513104        95.5964 
 500   0.0000       3.519991        95.7838 
 501   0.0000       3.526027        95.9481 
 502   0.0000       3.528707        96.0210 
 503   0.0000       3.542682        96.4013 
 504   0.0000       3.548763        96.5668 
 505   0.0000       3.553291        96.6900 
 506   0.0000       3.563951        96.9800 
 507   0.0000       3.567558        97.0782 
 508   0.0000       3.579827        97.4121 
 509   0.0000       3.582606        97.4877 
 510   0.0000       3.587544        97.6220 
 511   0.0000       3.594068        97.7996 
 512   0.0000       3.599349        97.9433 
 513   0.0000       3.607438        98.1634 
 514   0.0000       3.610408        98.2442 
 515   0.0000       3.620419        98.5166 
 516   0.0000       3.627437        98.7076 
 517   0.0000       3.629514        98.7641 
 518   0.0000       3.638494        99.0085 
 519   0.0000       3.656249        99.4916 
 520   0.0000       3.662153        99.6523 
 521   0.0000       3.667497        99.7977 
 522   0.0000       3.674761        99.9953 
 523   0.0000       3.677386       100.0668 
 524   0.0000       3.685042       100.2751 
 525   0.0000       3.692945       100.4902 
 526   0.0000       3.694717       100.5384 
 527   0.0000       3.703263       100.7709 
 528   0.0000       3.707202       100.8781 
 529   0.0000       3.712294       101.0167 
 530   0.0000       3.718091       101.1744 
 531   0.0000       3.724675       101.3536 
 532   0.0000       3.731120       101.5289 
 533   0.0000       3.738559       101.7314 
 534   0.0000       3.746582       101.9497 
 535   0.0000       3.758085       102.2627 
 536   0.0000       3.764570       102.4392 
 537   0.0000       3.767296       102.5133 
 538   0.0000       3.776640       102.7676 
 539   0.0000       3.781830       102.9088 
 540   0.0000       3.788241       103.0833 
 541   0.0000       3.795241       103.2737 
 542   0.0000       3.800279       103.4108 
 543   0.0000       3.806173       103.5712 
 544   0.0000       3.815775       103.8325 
 545   0.0000       3.818462       103.9056 
 546   0.0000       3.824500       104.0699 
 547   0.0000       3.838824       104.4597 
 548   0.0000       3.845169       104.6324 
 549   0.0000       3.850548       104.7788 
 550   0.0000       3.853859       104.8688 
 551   0.0000       3.868340       105.2629 
 552   0.0000       3.881856       105.6307 
 553   0.0000       3.887286       105.7784 
 554   0.0000       3.894279       105.9687 
 555   0.0000       3.899840       106.1200 
 556   0.0000       3.908493       106.3555 
 557   0.0000       3.918350       106.6237 
 558   0.0000       3.933389       107.0330 
 559   0.0000       3.935820       107.0991 
 560   0.0000       3.942297       107.2754 
 561   0.0000       3.953020       107.5671 
 562   0.0000       3.961977       107.8109 
 563   0.0000       3.968970       108.0012 
 564   0.0000       3.979160       108.2785 
 565   0.0000       3.989670       108.5644 
 566   0.0000       3.995183       108.7145 
 567   0.0000       3.997952       108.7898 
 568   0.0000       4.007133       109.0396 
 569   0.0000       4.017469       109.3209 
 570   0.0000       4.022489       109.4575 
 571   0.0000       4.032354       109.7259 
 572   0.0000       4.038192       109.8848 
 573   0.0000       4.046954       110.1232 
 574   0.0000       4.057343       110.4059 
 575   0.0000       4.060788       110.4997 
 576   0.0000       4.064477       110.6000 
 577   0.0000       4.073869       110.8556 
 578   0.0000       4.083010       111.1043 
 579   0.0000       4.088367       111.2501 
 580   0.0000       4.102908       111.6458 
 581   0.0000       4.113985       111.9472 
 582   0.0000       4.133571       112.4802 
 583   0.0000       4.135894       112.5434 
 584   0.0000       4.142427       112.7212 
 585   0.0000       4.155517       113.0774 
 586   0.0000       4.157425       113.1293 
 587   0.0000       4.166161       113.3670 
 588   0.0000       4.173027       113.5538 
 589   0.0000       4.181951       113.7967 
 590   0.0000       4.195274       114.1592 
 591   0.0000       4.198160       114.2377 
 592   0.0000       4.201583       114.3309 
 593   0.0000       4.211863       114.6106 
 594   0.0000       4.215699       114.7150 
 595   0.0000       4.228860       115.0731 
 596   0.0000       4.233518       115.1999 
 597   0.0000       4.239491       115.3624 
 598   0.0000       4.251739       115.6957 
 599   0.0000       4.253670       115.7483 
 600   0.0000       4.260845       115.9435 
 601   0.0000       4.272511       116.2609 
 602   0.0000       4.275001       116.3287 
 603   0.0000       4.279125       116.4409 
 604   0.0000       4.289049       116.7110 
 605   0.0000       4.297247       116.9340 
 606   0.0000       4.302341       117.0727 
 607   0.0000       4.306581       117.1880 
 608   0.0000       4.321706       117.5996 
 609   0.0000       4.328115       117.7740 
 610   0.0000       4.332697       117.8987 
 611   0.0000       4.344293       118.2142 
 612   0.0000       4.349099       118.3450 
 613   0.0000       4.358342       118.5965 
 614   0.0000       4.361525       118.6831 
 615   0.0000       4.380230       119.1921 
 616   0.0000       4.383366       119.2774 
 617   0.0000       4.387471       119.3892 
 618   0.0000       4.396364       119.6311 
 619   0.0000       4.399951       119.7288 
 620   0.0000       4.405214       119.8720 
 621   0.0000       4.418821       120.2422 
 622   0.0000       4.429719       120.5388 
 623   0.0000       4.431460       120.5862 
 624   0.0000       4.440310       120.8270 
 625   0.0000       4.446640       120.9992 
 626   0.0000       4.456100       121.2567 
 627   0.0000       4.461014       121.3904 
 628   0.0000       4.470200       121.6403 
 629   0.0000       4.474149       121.7478 
 630   0.0000       4.492890       122.2577 
 631   0.0000       4.495247       122.3219 
 632   0.0000       4.504403       122.5710 
 633   0.0000       4.513101       122.8077 
 634   0.0000       4.522712       123.0692 
 635   0.0000       4.533752       123.3697 
 636   0.0000       4.548978       123.7840 
 637   0.0000       4.555099       123.9506 
 638   0.0000       4.561997       124.1383 
 639   0.0000       4.567252       124.2812 
 640   0.0000       4.576018       124.5198 
 641   0.0000       4.586100       124.7941 
 642   0.0000       4.589863       124.8965 
 643   0.0000       4.600927       125.1976 
 644   0.0000       4.601702       125.2187 
 645   0.0000       4.613008       125.5263 
 646   0.0000       4.618262       125.6693 
 647   0.0000       4.621556       125.7589 
 648   0.0000       4.636483       126.1651 
 649   0.0000       4.644489       126.3830 
 650   0.0000       4.651187       126.5652 
 651   0.0000       4.670090       127.0796 
 652   0.0000       4.675812       127.2353 
 653   0.0000       4.686617       127.5293 
 654   0.0000       4.700806       127.9154 
 655   0.0000       4.711724       128.2125 
 656   0.0000       4.718412       128.3945 
 657   0.0000       4.734669       128.8369 
 658   0.0000       4.744521       129.1050 
 659   0.0000       4.749484       129.2400 
 660   0.0000       4.776088       129.9640 
 661   0.0000       4.795310       130.4870 
 662   0.0000       4.803933       130.7217 
 663   0.0000       4.818386       131.1150 
 664   0.0000       4.822421       131.2247 
 665   0.0000       4.841750       131.7507 
 666   0.0000       4.865277       132.3909 
 667   0.0000       4.880638       132.8089 
 668   0.0000       4.889229       133.0427 
 669   0.0000       4.909464       133.5933 
 670   0.0000       4.913922       133.7146 
 671   0.0000       4.936381       134.3257 
 672   0.0000       4.943422       134.5174 
 673   0.0000       4.967324       135.1678 
 674   0.0000       4.971213       135.2736 
 675   0.0000       4.990189       135.7900 
 676   0.0000       4.998013       136.0028 
 677   0.0000       5.017342       136.5288 
 678   0.0000       5.039793       137.1397 
 679   0.0000       5.047947       137.3616 
 680   0.0000       5.056396       137.5915 
 681   0.0000       5.064352       137.8080 
 682   0.0000       5.066329       137.8618 
 683   0.0000       5.074964       138.0968 
 684   0.0000       5.095952       138.6679 
 685   0.0000       5.105936       138.9396 
 686   0.0000       5.120169       139.3269 
 687   0.0000       5.136971       139.7841 
 688   0.0000       5.139819       139.8616 
 689   0.0000       5.154877       140.2713 
 690   0.0000       5.167685       140.6199 
 691   0.0000       5.175168       140.8235 
 692   0.0000       5.178533       140.9151 
 693   0.0000       5.192485       141.2947 
 694   0.0000       5.210693       141.7902 
 695   0.0000       5.213400       141.8638 
 696   0.0000       5.225925       142.2046 
 697   0.0000       5.242950       142.6679 
 698   0.0000       5.245321       142.7324 
 699   0.0000       5.262653       143.2041 
 700   0.0000       5.270987       143.4309 
 701   0.0000       5.288764       143.9146 
 702   0.0000       5.306095       144.3862 
 703   0.0000       5.311386       144.5302 
 704   0.0000       5.323609       144.8628 
 705   0.0000       5.339440       145.2936 
 706   0.0000       5.349824       145.5761 
 707   0.0000       5.359875       145.8496 
 708   0.0000       5.370731       146.1450 
 709   0.0000       5.402434       147.0077 
 710   0.0000       5.403504       147.0368 
 711   0.0000       5.418203       147.4368 
 712   0.0000       5.422499       147.5537 
 713   0.0000       5.431526       147.7993 
 714   0.0000       5.449212       148.2806 
 715   0.0000       5.466588       148.7534 
 716   0.0000       5.470152       148.8504 
 717   0.0000       5.515130       150.0743 
 718   0.0000       5.525416       150.3542 
 719   0.0000       5.528833       150.4472 
 720   0.0000       5.543667       150.8508 
 721   0.0000       5.553598       151.1211 
 722   0.0000       5.564164       151.4086 
 723   0.0000       5.581614       151.8834 
 724   0.0000       5.591548       152.1538 
 725   0.0000       5.604922       152.5177 
 726   0.0000       5.612439       152.7222 
 727   0.0000       5.614229       152.7709 
 728   0.0000       5.640557       153.4874 
 729   0.0000       5.643348       153.5633 
 730   0.0000       5.660283       154.0241 
 731   0.0000       5.669593       154.2775 
 732   0.0000       5.702789       155.1808 
 733   0.0000       5.708555       155.3377 
 734   0.0000       5.718346       155.6041 
 735   0.0000       5.722703       155.7227 
 736   0.0000       5.734160       156.0344 
 737   0.0000       5.745111       156.3324 
 738   0.0000       5.757670       156.6742 
 739   0.0000       5.763894       156.8435 
 740   0.0000       5.778428       157.2390 
 741   0.0000       5.781013       157.3094 
 742   0.0000       5.803242       157.9142 
 743   0.0000       5.818349       158.3253 
 744   0.0000       5.827350       158.5703 
 745   0.0000       5.865382       159.6052 
 746   0.0000       5.877679       159.9398 
 747   0.0000       5.900761       160.5679 
 748   0.0000       5.905022       160.6838 
 749   0.0000       5.938035       161.5822 
 750   0.0000       5.948052       161.8547 
 751   0.0000       5.966350       162.3526 
 752   0.0000       5.977873       162.6662 
 753   0.0000       5.981935       162.7767 
 754   0.0000       5.993220       163.0838 
 755   0.0000       6.013864       163.6456 
 756   0.0000       6.030508       164.0985 
 757   0.0000       6.060893       164.9253 
 758   0.0000       6.080670       165.4634 
 759   0.0000       6.098235       165.9414 
 760   0.0000       6.120643       166.5512 
 761   0.0000       6.125156       166.6740 
 762   0.0000       6.215616       169.1355 
 763   0.0000       6.223677       169.3549 
 764   0.0000       6.249408       170.0550 
 765   0.0000       6.254829       170.2026 
 766   0.0000       6.289623       171.1493 
 767   0.0000       6.301795       171.4805 
 768   0.0000       6.310375       171.7140 
 769   0.0000       6.327545       172.1812 
 770   0.0000       6.340707       172.5394 
 771   0.0000       6.353950       172.8998 
 772   0.0000       6.375264       173.4798 
 773   0.0000       6.383697       173.7092 
 774   0.0000       6.454775       175.6434 
 775   0.0000       6.470201       176.0631 
 776   0.0000       6.508005       177.0918 
 777   0.0000       6.536413       177.8648 
 778   0.0000       6.565784       178.6641 
 779   0.0000       6.668508       181.4593 
 780   0.0000       6.677977       181.7170 
 781   0.0000       6.711232       182.6219 
 782   0.0000       6.748586       183.6384 
 783   0.0000       6.786433       184.6682 
 784   0.0000       6.807606       185.2444 
 785   0.0000       6.817669       185.5182 
 786   0.0000       6.904114       187.8705 
 787   0.0000       6.932367       188.6393 
 788   0.0000       6.979076       189.9103 
 789   0.0000       7.013193       190.8387 
 790   0.0000       7.028639       191.2590 
 791   0.0000       7.081442       192.6958 
 792   0.0000       7.092298       192.9912 
 793   0.0000       7.180219       195.3837 
 794   0.0000       7.192043       195.7054 
 795   0.0000       7.213958       196.3018 
 796   0.0000       7.267429       197.7568 
 797   0.0000       7.285497       198.2485 
 798   0.0000       7.326240       199.3571 
 799   0.0000       7.375895       200.7083 
 800   0.0000       7.459701       202.9888 
 801   0.0000       7.475791       203.4266 
 802   0.0000       7.579321       206.2438 
 803   0.0000       7.603887       206.9123 
 804   0.0000       7.705431       209.6754 
 805   0.0000       7.791723       212.0236 
 806   0.0000       7.852271       213.6712 
 807   0.0000       7.912477       215.3095 
 808   0.0000       7.963508       216.6981 
 809   0.0000       9.362259       254.7600 
 810   0.0000      10.001687       272.1597 
 811   0.0000      11.038905       300.3839 
 812   0.0000      11.806330       321.2666 
 813   0.0000      11.979789       325.9866 
 814   0.0000      12.004388       326.6560 
 815   0.0000      12.469294       339.3067 
 816   0.0000      12.691961       345.3658 
 817   0.0000      12.902296       351.0893 
 818   0.0000      13.069803       355.6474 
 819   0.0000      13.396385       364.5342 
 820   0.0000      13.564166       369.0997 
 821   0.0000      13.777046       374.8925 
 822   0.0000      13.870584       377.4378 
 823   0.0000      14.049972       382.3192 
 824   0.0000      14.413791       392.2192 
 825   0.0000      15.014294       408.5597 
 826   0.0000      15.271544       415.5598 
 827   0.0000      15.882553       432.1862 

                    ********************************
                    * MULLIKEN POPULATION ANALYSIS *
                    ********************************

-----------------------
MULLIKEN ATOMIC CHARGES
-----------------------
   0 C :   -0.315937
   1 C :    0.038210
   2 O :   -0.348000
   3 C :    0.439290
   4 O :   -0.423099
   5 C :   -0.206495
   6 C :    0.118895
   7 C :   -0.282248
   8 N :   -0.081600
   9 C :    0.205522
  10 S :   -0.453218
  11 N :   -0.218766
  12 C :    0.080616
  13 C :    0.083908
  14 C :   -0.242468
  15 C :   -0.119418
  16 C :   -0.229133
  17 C :    0.306649
  18 O :   -0.362386
  19 C :   -0.304949
  20 H :    0.122979
  21 H :    0.118061
  22 H :    0.082780
  23 H :    0.112052
  24 H :    0.110203
  25 H :    0.124527
  26 H :    0.124517
  27 H :    0.106070
  28 H :    0.193140
  29 H :    0.193068
  30 H :    0.160783
  31 H :    0.160714
  32 H :    0.167505
  33 H :    0.158667
  34 H :    0.244269
  35 H :    0.135293
Sum of atomic charges:    0.0000000

--------------------------------
MULLIKEN REDUCED ORBITAL CHARGES
--------------------------------
  0 C s       :     3.276069  s :     3.276069
      pz      :     1.045189  p :     2.963025
      px      :     0.907014
      py      :     1.010822
      dz2     :     0.013199  d :     0.072371
      dxz     :     0.011212
      dyz     :     0.010955
      dx2y2   :     0.015452
      dxy     :     0.021554
      f0      :     0.000388  f :     0.004473
      f+1     :     0.000781
      f-1     :     0.000763
      f+2     :     0.000371
      f-2     :     0.000226
      f+3     :     0.001279
      f-3     :     0.000665
  1 C s       :     3.157806  s :     3.157806
      pz      :     0.727924  p :     2.648850
      px      :     0.911173
      py      :     1.009753
      dz2     :     0.032679  d :     0.144194
      dxz     :     0.036576
      dyz     :     0.027250
      dx2y2   :     0.024190
      dxy     :     0.023498
      f0      :     0.002393  f :     0.010940
      f+1     :     0.002172
      f-1     :     0.001850
      f+2     :     0.001685
      f-2     :     0.000839
      f+3     :     0.001254
      f-3     :     0.000747
  2 O s       :     3.717667  s :     3.717667
      pz      :     1.291642  p :     4.593501
      px      :     1.725500
      py      :     1.576359
      dz2     :     0.006323  d :     0.034564
      dxz     :     0.005041
      dyz     :     0.014326
      dx2y2   :     0.004480
      dxy     :     0.004393
      f0      :     0.000365  f :     0.002269
      f+1     :     0.000437
      f-1     :     0.000525
      f+2     :     0.000474
      f-2     :     0.000261
      f+3     :     0.000090
      f-3     :     0.000116
[...]
 15 C s       :     2.723698  s :     2.723698
      pz      :     0.862456  p :     2.789936
      px      :     0.980244
      py      :     0.947236
      dz2     :     0.049899  d :     0.387888
      dxz     :     0.081365
      dyz     :     0.039370
      dx2y2   :     0.104529
      dxy     :     0.112725
      f0      :     0.003738  f :     0.036098
      f+1     :     0.003647
      f-1     :     0.003158
      f+2     :     0.006765
      f-2     :     0.003891
      f+3     :     0.006815
      f-3     :     0.008083
 16 C s       :     2.709223  s :     2.709223
      pz      :     0.923907  p :     2.859054
      px      :     0.963661
      py      :     0.971486
      dz2     :     0.051246  d :     0.374267
      dxz     :     0.052531
      dyz     :     0.070681
      dx2y2   :     0.112414
      dxy     :     0.087396
      f0      :     0.003576  f :     0.037900
      f+1     :     0.002998
      f-1     :     0.004097
      f+2     :     0.006624
      f-2     :     0.006022
      f+3     :     0.006533
      f-3     :     0.008048
 17 C s       :     2.702577  s :     2.702577
      pz      :     0.807490  p :     2.685318
      px      :     0.982588
      py      :     0.895240
      dz2     :     0.100923  d :     0.712222
      dxz     :     0.132102
      dyz     :     0.110617
      dx2y2   :     0.170437
      dxy     :     0.198143
      f0      :     0.006921  f :     0.099089
      f+1     :     0.010205
      f-1     :     0.012792
      f+2     :     0.014204
      f-2     :     0.014917
      f+3     :     0.015300
      f-3     :     0.024749
 18 O s       :     3.182449  s :     3.182449
      pz      :     1.579064  p :     4.351125
      px      :     1.520374
      py      :     1.251686
      dz2     :     0.010446  d :     0.074188
      dxz     :     0.008771
      dyz     :     0.011836
      dx2y2   :     0.013588
      dxy     :     0.029546
      f0      :     0.000309  f :     0.004956
      f+1     :     0.000410
      f-1     :     0.000687
      f+2     :     0.000455
      f-2     :     0.000961
      f+3     :     0.001071
      f-3     :     0.001063
 19 C s       :     2.702353  s :     2.702353
      pz      :     0.933150  p :     2.872247
      px      :     0.984072
      py      :     0.955025
      dz2     :     0.041172  d :     0.384477
      dxz     :     0.076269
      dyz     :     0.037848
      dx2y2   :     0.107653
      dxy     :     0.121535
      f0      :     0.003431  f :     0.039474
      f+1     :     0.003935
      f-1     :     0.002531
      f+2     :     0.006671
      f-2     :     0.005046
      f+3     :     0.008450
      f-3     :     0.009411
 20 H s       :     0.839240  s :     0.839240
      pz      :     0.068294  p :     0.158101
      px      :     0.044754
      py      :     0.045052
      dz2     :     0.008537  d :     0.027966
      dxz     :     0.007474
      dyz     :     0.007747
      dx2y2   :     0.002616
      dxy     :     0.001592
 21 H s       :     0.838284  s :     0.838284
      pz      :     0.056529  p :     0.152616
      px      :     0.041334
      py      :     0.054753
      dz2     :     0.008104  d :     0.027513
      dxz     :     0.004934
      dyz     :     0.005716
      dx2y2   :     0.004921
      dxy     :     0.003839
 22 H s       :     0.849423  s :     0.849423
      pz      :     0.044769  p :     0.156117
      px      :     0.044937
      py      :     0.066411
      dz2     :     0.002973  d :     0.028140
      dxz     :     0.001633
      dyz     :     0.008174
      dx2y2   :     0.007941
      dxy     :     0.007420
 23 H s       :     0.847434  s :     0.847434
      pz      :     0.031489  p :     0.154329
      px      :     0.046168
      py      :     0.076672
      dz2     :     0.002998  d :     0.027914
      dxz     :     0.001336
      dyz     :     0.007096
      dx2y2   :     0.008822
      dxy     :     0.007661
 24 H s       :     0.853450  s :     0.853450
      pz      :     0.048455  p :     0.146609
      px      :     0.043856
      py      :     0.054298
      dz2     :     0.006000  d :     0.027286
      dxz     :     0.004803
      dyz     :     0.007075
      dx2y2   :     0.005157
      dxy     :     0.004251
 25 H s       :     0.836236  s :     0.836236
      pz      :     0.068590  p :     0.154661
      px      :     0.047534
      py      :     0.038537
      dz2     :     0.008697  d :     0.027667
      dxz     :     0.006847
      dyz     :     0.006995
      dx2y2   :     0.002610
      dxy     :     0.002519
 26 H s       :     0.822530  s :     0.822530
      pz      :     0.043946  p :     0.156294
      px      :     0.068418
      py      :     0.043930
      dz2     :     0.002599  d :     0.028373
      dxz     :     0.008337
      dyz     :     0.002099
      dx2y2   :     0.007674
      dxy     :     0.007664
 27 H s       :     0.842335  s :     0.842335
      pz      :     0.046570  p :     0.149177
      px      :     0.041846
      py      :     0.060761
      dz2     :     0.005177  d :     0.027521
      dxz     :     0.002869
      dyz     :     0.006883
      dx2y2   :     0.005590
      dxy     :     0.007002
 28 H s       :     0.736829  s :     0.736829
      pz      :     0.046533  p :     0.249666
      px      :     0.086911
      py      :     0.116222
      dz2     :     0.006903  d :     0.060724
      dxz     :     0.001674
      dyz     :     0.015558
      dx2y2   :     0.015049
      dxy     :     0.021539
 29 H s       :     0.749632  s :     0.749632
      pz      :     0.083411  p :     0.252355
      px      :     0.090105
      py      :     0.078838
      dz2     :     0.012710  d :     0.060928
      dxz     :     0.011804
      dyz     :     0.015827
      dx2y2   :     0.008781
      dxy     :     0.011806
 30 H s       :     0.823948  s :     0.823948
      pz      :     0.033177  p :     0.148771
      px      :     0.046372
      py      :     0.069222
      dz2     :     0.003264  d :     0.028354
      dxz     :     0.001693
      dyz     :     0.006302
      dx2y2   :     0.008847
      dxy     :     0.008248
 31 H s       :     0.850518  s :     0.850518
      pz      :     0.052956  p :     0.160595
      px      :     0.047287
      py      :     0.060352
      dz2     :     0.004292  d :     0.027491
      dxz     :     0.004046
      dyz     :     0.005461
      dx2y2   :     0.007052
      dxy     :     0.006639
 32 H s       :     0.845654  s :     0.845654
      pz      :     0.042040  p :     0.155190
      px      :     0.042453
      py      :     0.070696
      dz2     :     0.003322  d :     0.026786
      dxz     :     0.001970
      dyz     :     0.006338
      dx2y2   :     0.007598
      dxy     :     0.007557
 33 H s       :     0.842254  s :     0.842254
      pz      :     0.046301  p :     0.159426
      px      :     0.076071
      py      :     0.037054
      dz2     :     0.003594  d :     0.027902
      dxz     :     0.008115
      dyz     :     0.001147
      dx2y2   :     0.007045
      dxy     :     0.008001
 34 H s       :     0.705925  s :     0.705925
      pz      :     0.096888  p :     0.345617
      px      :     0.125008
      py      :     0.123721
      dz2     :     0.008905  d :     0.098356
      dxz     :     0.012224
      dyz     :     0.022286
      dx2y2   :     0.028206
      dxy     :     0.026734
 35 H s       :     0.848427  s :     0.848427
      pz      :     0.052742  p :     0.167493
      px      :     0.047062
      py      :     0.067690
      dz2     :     0.003534  d :     0.028637
      dxz     :     0.002519
      dyz     :     0.007077
      dx2y2   :     0.008020
      dxy     :     0.007487


                      *****************************
                      * MAYER POPULATION ANALYSIS *
                      *****************************

  NA   - Mulliken gross atomic population
  ZA   - Total nuclear charge
  QA   - Mulliken gross atomic charge
  VA   - Mayer's total valence
  BVA  - Mayer's bonded valence
  FA   - Mayer's free valence

  ATOM       NA         ZA         QA         VA         BVA        FA
  0 C      6.3159     6.0000    -0.3159     3.8626     3.8626     0.0000
  1 C      5.9618     6.0000     0.0382     3.8286     3.8286     0.0000
  2 O      8.3480     8.0000    -0.3480     2.0729     2.0729    -0.0000
  3 C      5.5607     6.0000     0.4393     4.2135     4.2135    -0.0000
  4 O      8.4231     8.0000    -0.4231     2.0884     2.0884     0.0000
  5 C      6.2065     6.0000    -0.2065     3.6299     3.6299     0.0000
  6 C      5.8811     6.0000     0.1189     3.7943     3.7943     0.0000
  7 C      6.2822     6.0000    -0.2822     3.8859     3.8859    -0.0000
  8 N      7.0816     7.0000    -0.0816     3.2939     3.2939    -0.0000
  9 C      5.7945     6.0000     0.2055     4.1475     4.1475     0.0000
 10 S     16.4532    16.0000    -0.4532     1.7326     1.7326     0.0000
 11 N      7.2188     7.0000    -0.2188     3.2119     3.2119    -0.0000
 12 C      5.9194     6.0000     0.0806     3.9618     3.9618     0.0000
 13 C      5.9161     6.0000     0.0839     3.7128     3.7128     0.0000
 14 C      6.2425     6.0000    -0.2425     3.8864     3.8864     0.0000
 15 C      6.1194     6.0000    -0.1194     3.8372     3.8372     0.0000
 16 C      6.2291     6.0000    -0.2291     3.8332     3.8332     0.0000
 17 C      5.6934     6.0000     0.3066     3.8874     3.8874    -0.0000
 18 O      8.3624     8.0000    -0.3624     2.1100     2.1100    -0.0000
 19 C      6.3049     6.0000    -0.3049     3.7778     3.7778     0.0000
 20 H      0.8770     1.0000     0.1230     0.9806     0.9806     0.0000
 21 H      0.8819     1.0000     0.1181     0.9835     0.9835     0.0000
 22 H      0.9172     1.0000     0.0828     0.9783     0.9783     0.0000
 23 H      0.8879     1.0000     0.1121     0.9870     0.9870    -0.0000
 24 H      0.8898     1.0000     0.1102     0.9778     0.9778    -0.0000
 25 H      0.8755     1.0000     0.1245     0.9885     0.9885    -0.0000
 26 H      0.8755     1.0000     0.1245     0.9779     0.9779    -0.0000
 27 H      0.8939     1.0000     0.1061     0.9850     0.9850    -0.0000
 28 H      0.8069     1.0000     0.1931     1.0265     1.0265    -0.0000
 29 H      0.8069     1.0000     0.1931     1.0170     1.0170     0.0000
 30 H      0.8392     1.0000     0.1608     0.9921     0.9921     0.0000
 31 H      0.8393     1.0000     0.1607     0.9826     0.9826     0.0000
 32 H      0.8325     1.0000     0.1675     0.9757     0.9757    -0.0000
 33 H      0.8413     1.0000     0.1587     0.9858     0.9858     0.0000
 34 H      0.7557     1.0000     0.2443     1.0086     1.0086    -0.0000
 35 H      0.8647     1.0000     0.1353     0.9934     0.9934    -0.0000

  Mayer bond orders larger than 0.100000
B(  0-C ,  1-C ) :   0.9396 B(  0-C , 20-H ) :   0.9715 B(  0-C , 21-H ) :   0.9758 
B(  0-C , 22-H ) :   0.9828 B(  1-C ,  2-O ) :   0.8947 B(  1-C , 23-H ) :   0.9804 
B(  1-C , 24-H ) :   0.9890 B(  2-O ,  3-C ) :   1.1718 B(  3-C ,  4-O ) :   1.9911 
B(  3-C ,  5-C ) :   1.0398 B(  5-C ,  6-C ) :   1.6458 B(  5-C , 12-C ) :   0.9985 
B(  6-C ,  7-C ) :   0.9479 B(  6-C ,  8-N ) :   1.1403 B(  7-C , 25-H ) :   0.9701 
B(  7-C , 26-H ) :   0.9639 B(  7-C , 27-H ) :   0.9908 B(  8-N ,  9-C ) :   1.2092 
B(  8-N , 28-H ) :   0.9449 B(  9-C , 10-S ) :   1.5815 B(  9-C , 11-N ) :   1.3000 
B( 11-N , 12-C ) :   0.9404 B( 11-N , 29-H ) :   0.9558 B( 12-C , 13-C ) :   0.9596 
B( 12-C , 30-H ) :   0.9868 B( 13-C , 14-C ) :   1.4126 B( 13-C , 19-C ) :   1.2815 
B( 14-C , 15-C ) :   1.3639 B( 14-C , 31-H ) :   0.9633 B( 15-C , 16-C ) :   1.4271 
B( 15-C , 32-H ) :   0.9684 B( 16-C , 17-C ) :   1.3252 B( 16-C , 33-H ) :   0.9671 
B( 17-C , 18-O ) :   1.1067 B( 17-C , 19-C ) :   1.3865 B( 18-O , 34-H ) :   0.9767 
B( 19-C , 35-H ) :   0.9750 

-------
TIMINGS
-------

Total SCF time: 0 days 1 hours 35 min 15 sec 

Total time                  ....    5715.730 sec
Sum of individual times     ....    5708.983 sec  ( 99.9%)

Fock matrix formation       ....    5693.585 sec  ( 99.6%)
Diagonalization             ....       1.251 sec  (  0.0%)
Density matrix formation    ....       0.188 sec  (  0.0%)
Population analysis         ....       0.358 sec  (  0.0%)
Initial guess               ....       5.461 sec  (  0.1%)
Orbital Transformation      ....       0.000 sec  (  0.0%)
Orbital Orthonormalization  ....       0.000 sec  (  0.0%)
DIIS solution               ....       4.501 sec  (  0.1%)
SOSCF solution              ....       2.274 sec  (  0.0%)

Maximum memory used throughout the entire SCF-calculation: 745.3 MB

------------------------------------------------------------------------------
                                ORCA  MP2 
------------------------------------------------------------------------------

Freezing NCore=48 chemical core electrons

-------------
RI-MP2 ENERGY
-------------
Dimension of the basis                    ...  828
Memory devoted to MP2                     ...  256 MB   
Data format for buffers                   ... DOUBLE
Compression type for matrix containers    ... UNCOMPRESSED
Overall scaling of the MP2 energy         ...   1.000e+00
Calculating two index integrals           ... done (    0.033 sec)
Cholesky decomposition of V**-1           ... done (    0.592 sec)

-----------------
RI-TRANSFORMATION (AUX index driven)
-----------------

Dimension of the orbital-basis         ... 828
Dimension of the aux-basis             ... 2141
Transformation of internal/external MOs...   24-  76 to   77- 827
Number Format for Storage              ... Double (8 Byte)
Integral mode                          ... Direct

First Phase: integral generation and transformation of MO indices
  Aux angular momentum 0               ... done (    3.660 sec)
  Aux angular momentum 1               ... done (    6.185 sec)
  Aux angular momentum 2               ... done (    8.608 sec)
  Aux angular momentum 3               ... done (    6.959 sec)
  Aux angular momentum 4               ... done (    2.417 sec)
Closing buffer VIA ( 0.63 GB; CompressionRatio= 1.00)
  Phase 1 completed in    28.269 sec
Second Phase: sorting and transformation of aux index

IA-Transformation
Memory available                       ... 157 MB 
Max. # MO pairs treated in a batch     ... 11    
# of internal orbitals                 ... 53
# batches for internal orbitals        ... 5
Closing buffer IAV ( 0.63 GB; CompressionRatio= 1.00)
(ia|v) transformation done in    20.722 sec

  Phase 2 completed in    20.730 sec
RI-Integral transformation completed in    49.017 sec
Opening buffers                              ... done

Starting loop over batches of integrals:

Operator 0  - window                       ... ( 24- 76)x( 77-827)
Operator 0  - Memory available             ...   256 MB
Operator 0  - Memory needed per MO         ...  12.3 MB
Operator 0  - Number of orbitals per batch ... 13
Operator 0  - Number of batches            ... 5

OPERATOR  0   PASS   0:  MOs    24 ...   36
  Reading integrals       ... ok
  Internal MO  26
  Internal MO  29
  Internal MO  32
  Internal MO  35
OPERATOR  0   PASS   1:  MOs    37 ...   49
  Reading integrals       ... ok
  Internal MO  38
  Internal MO  41
  Internal MO  44
  Internal MO  47
OPERATOR  0   PASS   2:  MOs    50 ...   62
  Reading integrals       ... ok
  Internal MO  50
  Internal MO  53
  Internal MO  56
  Internal MO  59
  Internal MO  62
OPERATOR  0   PASS   3:  MOs    63 ...   75
  Reading integrals       ... ok
  Internal MO  65
  Internal MO  68
  Internal MO  71
  Internal MO  74
OPERATOR  0   PASS   4:  MOs    76 ...   76
  Reading integrals       ... ok
Time spent in pair loops =    74.126 sec
Deleting buffer (Ka|jb)[aa] ...done

-----------------------------------------------
 RI-MP2 CORRELATION ENERGY:     -3.540194023 Eh
-----------------------------------------------


-------
TIMINGS
-------

Total time                :  123.864 sec
Integral trafo            :   49.035 sec ( 39.6%)
I/O of integrals          :    1.962 sec (  1.6%)
K(i,j) Operators          :   45.035 sec ( 36.4%)
T(i,j) pair energies      :    7.631 sec (  6.2%)
V-calculation             :    0.033 sec (  0.0%)
V**(-1/2)                 :    0.592 sec (  0.5%)
Gamma(ia|P)               :    0.000 sec (  0.0%)
Gamma-Trafo               :    0.000 sec (  0.0%)
D(virtual)                :    0.000 sec (  0.0%)
D(internal)               :    0.000 sec (  0.0%)
W(virtual)                :    0.000 sec (  0.0%)
W(internal)               :    0.000 sec (  0.0%)
L(virtual)                :    0.000 sec (  0.0%)
L(internal)               :    0.000 sec (  0.0%)
G(D)                      :    0.000 sec (  0.0%)
G(Z)                      :    0.000 sec (  0.0%)
Z-Vector Solution         :    0.000 sec (  0.0%)
3-Index Derivative        :    0.000 sec (  0.0%)
2-Index Derivative        :    0.000 sec (  0.0%)
Separable Gradient        :    0.000 sec (  0.0%)


---------------------------------------
MP2 TOTAL ENERGY:    -1274.299453224 Eh
---------------------------------------

Maximum memory used throughout the entire MP2-calculation: 304.9 MB

-------------------------   --------------------
FINAL SINGLE POINT ENERGY     -1274.299453224344
-------------------------   --------------------


                            ***************************************
                            *     ORCA property calculations      *
                            ***************************************


  WARNING: The energy has been calculated at the MP2 level but the densities
           used in the property calculations are still SCF densities
           MP2 response densities have not been calculated 
           use %mp2 Density relaxed end
           or  %mp2 Density unrelaxed end

                                    ---------------------
                                    Active property flags
                                    ---------------------
   (+) Dipole Moment


------------------------------------------------------------------------------
                       ORCA ELECTRIC PROPERTIES CALCULATION
------------------------------------------------------------------------------

Dipole Moment Calculation                       ... on
Quadrupole Moment Calculation                   ... off
Polarizability Calculation                      ... off
GBWName                                         ... qm_input.vacu.gbw
Electron density file                           ... qm_input.vacu.scfp
The origin for moment calculation is the CENTER OF MASS  = (-10.855683, -18.003281 -14.500953)

-------------
DIPOLE MOMENT
-------------
                                X             Y             Z
Electronic contribution:      3.33451      -0.79009      14.88987
Nuclear contribution   :     -3.05530       1.38985     -16.95361
                        -----------------------------------------
Total Dipole Moment    :      0.27922       0.59976      -2.06374
                        -----------------------------------------
Magnitude (a.u.)       :      2.16718
Magnitude (Debye)      :      5.50854



--------------------
Rotational spectrum 
--------------------
 
Rotational constants in cm-1:     0.012075     0.009103     0.006467 
Rotational constants in MHz :   361.999429   272.914036   193.865791 

 Dipole components along the rotational axes: 
x,y,z [a.u.] :    -1.310203     1.642050     0.532660 
x,y,z [Debye]:    -3.330270     4.173761     1.353915 

 

Timings for individual modules:

Sum of individual times         ...     5842.898 sec (=  97.382 min)
GTO integral calculation        ...        2.120 sec (=   0.035 min)   0.0 %
SCF iterations                  ...     5715.887 sec (=  95.265 min)  97.8 %
MP2 module                      ...      124.890 sec (=   2.082 min)   2.1 %
                             ****ORCA TERMINATED NORMALLY****
TOTAL RUN TIME: 0 days 1 hours 37 minutes 24 seconds 975 msec
