
                                        *****************
                                        * O   R   C   A *
                                        *****************

                                            #,                                       
                                            ###                                      
                                            ####                                     
                                            #####                                    
                                            ######                                   
                                           ########,                                 
                                     ,,################,,,,,                         
                               ,,#################################,,                 
                          ,,##########################################,,             
                       ,#########################################, ''#####,          
                    ,#############################################,,   '####,        
                  ,##################################################,,,,####,       
                ,###########''''           ''''###############################       
              ,#####''   ,,,,##########,,,,          '''####'''          '####       
            ,##' ,,,,###########################,,,                        '##       
           ' ,,###''''                  '''############,,,                           
         ,,##''                                '''############,,,,        ,,,,,,###''
      ,#''                                            '''#######################'''  
     '                                                          ''''####''''         
             ,#######,   #######,   ,#######,      ##                                
            ,#'     '#,  ##    ##  ,#'     '#,    #''#        ######   ,####,        
            ##       ##  ##   ,#'  ##            #'  '#       #        #'  '#        
            ##       ##  #######   ##           ,######,      #####,   #    #        
            '#,     ,#'  ##    ##  '#,     ,#' ,#      #,         ##   #,  ,#        
             '#######'   ##     ##  '#######'  #'      '#     #####' # '####'        



                  #######################################################
                  #                        -***-                        #
                  #          Department of theory and spectroscopy      #
                  #    Directorship and core code : Frank Neese         #
                  #        Max Planck Institute fuer Kohlenforschung    #
                  #                Kaiser Wilhelm Platz 1               #
                  #                 D-45470 Muelheim/Ruhr               #
                  #                      Germany                        #
                  #                                                     #
                  #                  All rights reserved                #
                  #                        -***-                        #
                  #######################################################


                         Program Version 5.0.0 -  RELEASE  -
                                (SVN: $Rev: 19529$)
                ($Date: 2021-06-28 11:36:33 +0200 (Mo, 28 Jun 2021) $)


 With contributions from (in alphabetic order):
   Daniel Aravena         : Magnetic Suceptibility
   Michael Atanasov       : Ab Initio Ligand Field Theory (pilot matlab implementation)
   Alexander A. Auer      : GIAO ZORA, VPT2 properties, NMR spectrum
   Ute Becker             : Parallelization
   Giovanni Bistoni       : ED, misc. LED, open-shell LED, HFLD
   Martin Brehm           : Molecular dynamics
   Dmytro Bykov           : SCF Hessian
   Vijay G. Chilkuri      : MRCI spin determinant printing, contributions to CSF-ICE
   Dipayan Datta          : RHF DLPNO-CCSD density
   Achintya Kumar Dutta   : EOM-CC, STEOM-CC
   Dmitry Ganyushin       : Spin-Orbit,Spin-Spin,Magnetic field MRCI
   Miquel Garcia          : C-PCM Hessian, Gaussian charge scheme
   Yang Guo               : DLPNO-NEVPT2, F12-NEVPT2, CIM, IAO-localization
   Andreas Hansen         : Spin unrestricted coupled pair/coupled cluster methods
   Benjamin Helmich-Paris : MC-RPA, TRAH-SCF, COSX integrals
   Lee Huntington         : MR-EOM, pCC
   Robert Izsak           : Overlap fitted RIJCOSX, COSX-SCS-MP3, EOM
   Marcus Kettner         : VPT2
   Christian Kollmar      : KDIIS, OOCD, Brueckner-CCSD(T), CCSD density, CASPT2, CASPT2-K
   Simone Kossmann        : Meta GGA functionals, TD-DFT gradient, OOMP2, MP2 Hessian
   Martin Krupicka        : Initial AUTO-CI
   Lucas Lang             : DCDCAS
   Marvin Lechner         : AUTO-CI (C++ implementation), FIC-MRCC
   Dagmar Lenk            : GEPOL surface, SMD
   Dimitrios Liakos       : Extrapolation schemes; Compound Job, initial MDCI parallelization
   Dimitrios Manganas     : Further ROCIS development; embedding schemes
   Dimitrios Pantazis     : SARC Basis sets
   Anastasios Papadopoulos: AUTO-CI, single reference methods and gradients
   Taras Petrenko         : DFT Hessian,TD-DFT gradient, ASA, ECA, R-Raman, ABS, FL, XAS/XES, NRVS
   Peter Pinski           : DLPNO-MP2, DLPNO-MP2 Gradient
   Christoph Reimann      : Effective Core Potentials
   Marius Retegan         : Local ZFS, SOC
   Christoph Riplinger    : Optimizer, TS searches, QM/MM, DLPNO-CCSD(T), (RO)-DLPNO pert. Triples
   Tobias Risthaus        : Range-separated hybrids, TD-DFT gradient, RPA, STAB
   Michael Roemelt        : Original ROCIS implementation
   Masaaki Saitow         : Open-shell DLPNO-CCSD energy and density
   Barbara Sandhoefer     : DKH picture change effects
   Avijit Sen             : IP-ROCIS
   Kantharuban Sivalingam : CASSCF convergence, NEVPT2, FIC-MRCI
   Bernardo de Souza      : ESD, SOC TD-DFT
   Georgi Stoychev        : AutoAux, RI-MP2 NMR
   Willem Van den Heuvel  : Paramagnetic NMR
   Boris Wezisla          : Elementary symmetry handling
   Frank Wennmohs         : Technical directorship


 We gratefully acknowledge several colleagues who have allowed us to
 interface, adapt or use parts of their codes:
   Stefan Grimme, W. Hujo, H. Kruse, P. Pracht,  : VdW corrections, initial TS optimization,
                  C. Bannwarth, S. Ehlert          DFT functionals, gCP, sTDA/sTD-DF
   Ed Valeev, F. Pavosevic, A. Kumar             : LibInt (2-el integral package), F12 methods
   Garnet Chan, S. Sharma, J. Yang, R. Olivares  : DMRG
   Ulf Ekstrom                                   : XCFun DFT Library
   Mihaly Kallay                                 : mrcc  (arbitrary order and MRCC methods)
   Jiri Pittner, Ondrej Demel                    : Mk-CCSD
   Frank Weinhold                                : gennbo (NPA and NBO analysis)
   Christopher J. Cramer and Donald G. Truhlar   : smd solvation model
   Lars Goerigk                                  : TD-DFT with DH, B97 family of functionals
   V. Asgeirsson, H. Jonsson                     : NEB implementation
   FAccTs GmbH                                   : IRC, NEB, NEB-TS, DLPNO-Multilevel, CI-OPT
                                                   MM, QMMM, 2- and 3-layer-ONIOM, Crystal-QMMM,
                                                   LR-CPCM, SF, NACMEs, symmetry and pop. for TD-DFT,
                                                   nearIR, NL-DFT gradient (VV10), updates on ESD,
                                                   ML-optimized integration grids
   S Lehtola, MJT Oliveira, MAL Marques          : LibXC Library
   Liviu Ungur et al                             : ANISO software


 Your calculation uses the libint2 library for the computation of 2-el integrals
 For citations please refer to: http://libint.valeyev.net

 Your ORCA version has been built with support for libXC version: 5.1.0
 For citations please refer to: https://tddft.org/programs/libxc/

 This ORCA versions uses:
   CBLAS   interface :  Fast vector & matrix operations
   LAPACKE interface :  Fast linear algebra routines
   SCALAPACK package :  Parallel linear algebra routines
   Shared memory     :  Shared parallel matrices
   BLAS/LAPACK       :  OpenBLAS 0.3.15  USE64BITINT DYNAMIC_ARCH NO_AFFINITY SkylakeX SINGLE_THREADED
        Core in use  :  SkylakeX
   Copyright (c) 2011-2014, The OpenBLAS Project


================================================================================

----- Orbital basis set information -----
Your calculation utilizes the basis: cc-pVTZ 
       H, B-Ne : Obtained from the ccRepo (grant-hill.group.shef.ac.uk/ccrepo) Feb. 2017
                 T. H. Dunning, Jr., J. Chem. Phys. 90, 1007 (1989)
            He : Obtained from the ccRepo (grant-hill.group.shef.ac.uk/ccrepo) Feb. 2017
                 D. E. Woon, T. H. Dunning, Jr., J. Chem. Phys. 100, 2975 (1994)
  Li-Be, Na-Mg : Obtained from the ccRepo (grant-hill.group.shef.ac.uk/ccrepo) Feb. 2017
                 B. P. Prascher, D. E. Woon, K. A. Peterson, T. H. Dunning, Jr., A. K. Wilson, Theor. Chem. Acc. 128, 69 (2011)
         Al-Ar : Obtained from the ccRepo (grant-hill.group.shef.ac.uk/ccrepo) Feb. 2017
                 D. E. Woon, T. H. Dunning, Jr., J. Chem. Phys. 98, 1358 (1993)
            Ca : Obtained from the Peterson Research Group Website (tyr0.chem.wsu.edu/~kipeters) Feb. 2017
                 J. Koput, K. A. Peterson, J. Phys. Chem. 106, 9595 (2002)
         Sc-Zn : Obtained from the ccRepo (grant-hill.group.shef.ac.uk/ccrepo) Feb. 2017
                 N. B. Balabanov, K. A. Peterson, J. Chem. Phys. 123, 064107 (2005)
                 N. B. Balabanov, K. A. Peterson, J. Chem. Phys. 125, 074110 (2006)
         Ga-Kr : Obtained from the ccRepo (grant-hill.group.shef.ac.uk/ccrepo) Feb. 2017
                 A. K. Wilson, D. E. Woon, K. A. Peterson, T. H. Dunning, Jr., J. Chem. Phys. 110, 7667 (1999)
             Y : Obtained from the ccRepo (grant-hill.group.shef.ac.uk/ccrepo) Feb. 2017
                 K. A. Peterson, D. Figgen, M. Dolg, H. Stoll, J. Chem. Phys. 126, 124101 (2007)
        Ag, Au : Obtained from the Peterson Research Group Website (tyr0.chem.wsu.edu/~kipeters) Feb. 2017
                 K. A. Peterson, C. Puzzarini, Theor. Chem. Acc. 114, 283 (2005)

----- AuxC basis set information -----
Your calculation utilizes the auxiliary basis: cc-pVTZ/C 
  Obtained from the EMSL Basis Set Exchange (bse.pnl.gov) Feb. 2017
  H-He, B-F, Al-Ar, Ga-Kr : F. Weigend, A. Kohn, C. Hattig, J. Chem. Phys. 116, 3175 (2002)
             Li-Be, Na-Mg : C. Haettig, Phys. Chem. Chem. Phys. 7, 59 (2005)
                       Ne : C. Haettig, Phys. Chem. Chem. Phys. 7, 59 (2005)
                            F. Weigend, A. Kohn, C. Hattig, J. Chem. Phys. 116, 3175 (2002)
                    Sc-Zn : J. G. Hill, J. A. Platts, J. Chem. Phys. 128, 044104 (2008)

================================================================================
                                        WARNINGS
                       Please study these warnings very carefully!
================================================================================


WARNING: No MP2 level density has been requested!
         To caclulate MP2 level properties use
         %mp2 Density relaxed end
         or
         %mp2 Density unrelaxed end

WARNING: Post HF methods need fully converged wavefunctions
  ===> : Setting SCFConvForced true
         You can overwrite this default with %scf ConvForced false 


INFO   : the flag for use of the SHARK integral package has been found!

================================================================================
                                       INPUT FILE
================================================================================
NAME = qm_input.vacu
|  1> ! RI-MP2 cc-pVTZ cc-pVTZ/c TightSCF KeepDens NoKeepInts
|  2> 
|  3> *xyz  0  1
|  4>     C    -1.4905696   13.7970861    9.6224204
|  5>     C    -1.1760527   13.5300349    8.1278132
|  6>     O    -2.1551040   12.6856714    7.6646444
|  7>     C    -2.0428788   12.1929461    6.3853975
|  8>     O    -1.0585548   12.3791569    5.6950942
|  9>     C    -3.3049358   11.7032169    5.8320548
| 10>     C    -4.4983409   11.5209556    6.5024558
| 11>     C    -4.8520457   11.9136492    7.9496020
| 12>     N    -5.5865577   11.0639899    5.8511071
| 13>     C    -5.4809056   10.4545586    4.6298909
| 14>     S    -6.8105557    9.8150821    3.8682099
| 15>     N    -4.3014602   10.5683301    3.9437184
| 16>     C    -3.2065297   11.4658153    4.3686877
| 17>     C    -3.0886710   12.7121886    3.4528040
| 18>     C    -2.4858786   12.6991143    2.2096627
| 19>     C    -2.5430754   13.8051633    1.3270792
| 20>     C    -3.2511082   15.0161928    1.7694840
| 21>     C    -3.7656489   15.0268330    3.0908676
| 22>     O    -4.3372014   16.1528578    3.4909499
| 23>     C    -3.7385491   13.9099374    3.8794696
| 24>     H    -0.9360338   13.0998992   10.2624283
| 25>     H    -2.5264629   13.5014015    9.8290435
| 26>     H    -1.1713521   14.8122506    9.8883738
| 27>     H    -1.1825379   14.4829760    7.5846274
| 28>     H    -0.1583439   13.1251793    8.0681737
| 29>     H    -5.8734070   11.5854399    8.1782720
| 30>     H    -4.9492339   12.9888394    8.1437929
| 31>     H    -4.1311351   11.6126368    8.7195791
| 32>     H    -6.4905059   11.0945744    6.3070771
| 33>     H    -4.3314867   10.1437913    3.0245712
| 34>     H    -2.3103819   10.8564659    4.1989759
| 35>     H    -1.9823322   11.7995961    1.8680431
| 36>     H    -2.0518610   13.7824907    0.3587866
| 37>     H    -3.4110713   15.8822153    1.1340213
| 38>     H    -4.0180312   16.2933804    4.3993074
| 39>     H    -4.1302736   13.9341426    4.8920712
| 40> *
| 41> 
| 42>                          ****END OF INPUT****
================================================================================

                       ****************************
                       * Single Point Calculation *
                       ****************************

---------------------------------
CARTESIAN COORDINATES (ANGSTROEM)
---------------------------------
  C     -1.490570   13.797086    9.622420
  C     -1.176053   13.530035    8.127813
  O     -2.155104   12.685671    7.664644
  C     -2.042879   12.192946    6.385397
  O     -1.058555   12.379157    5.695094
  C     -3.304936   11.703217    5.832055
  C     -4.498341   11.520956    6.502456
  C     -4.852046   11.913649    7.949602
  N     -5.586558   11.063990    5.851107
  C     -5.480906   10.454559    4.629891
  S     -6.810556    9.815082    3.868210
  N     -4.301460   10.568330    3.943718
  C     -3.206530   11.465815    4.368688
  C     -3.088671   12.712189    3.452804
  C     -2.485879   12.699114    2.209663
  C     -2.543075   13.805163    1.327079
  C     -3.251108   15.016193    1.769484
  C     -3.765649   15.026833    3.090868
  O     -4.337201   16.152858    3.490950
  C     -3.738549   13.909937    3.879470
  H     -0.936034   13.099899   10.262428
  H     -2.526463   13.501402    9.829043
  H     -1.171352   14.812251    9.888374
  H     -1.182538   14.482976    7.584627
  H     -0.158344   13.125179    8.068174
  H     -5.873407   11.585440    8.178272
  H     -4.949234   12.988839    8.143793
  H     -4.131135   11.612637    8.719579
  H     -6.490506   11.094574    6.307077
  H     -4.331487   10.143791    3.024571
  H     -2.310382   10.856466    4.198976
  H     -1.982332   11.799596    1.868043
  H     -2.051861   13.782491    0.358787
  H     -3.411071   15.882215    1.134021
  H     -4.018031   16.293380    4.399307
  H     -4.130274   13.934143    4.892071

----------------------------
CARTESIAN COORDINATES (A.U.)
----------------------------
  NO LB      ZA    FRAG     MASS         X           Y           Z
   0 C     6.0000    0    12.011   -2.816768   26.072714   18.183739
   1 C     6.0000    0    12.011   -2.222418   25.568061   15.359341
   2 O     8.0000    0    15.999   -4.072556   23.972445   14.484079
   3 C     6.0000    0    12.011   -3.860481   23.041329   12.066653
   4 O     8.0000    0    15.999   -2.000379   23.393216   10.762168
   5 C     6.0000    0    12.011   -6.245424   22.115875   11.020986
   6 C     6.0000    0    12.011   -8.500632   21.771451   12.287861
   7 C     6.0000    0    12.011   -9.169038   22.513534   15.022571
   8 N     7.0000    0    14.007  -10.557064   20.907911   11.056990
   9 C     6.0000    0    12.011  -10.357411   19.756253    8.749226
  10 S    16.0000    0    32.060  -12.870085   18.547817    7.309857
  11 N     7.0000    0    14.007   -8.128582   19.971250    7.452548
  12 C     6.0000    0    12.011   -6.059463   21.667251    8.255623
  13 C     6.0000    0    12.011   -5.836742   24.022555    6.524854
  14 C     6.0000    0    12.011   -4.697630   23.997848    4.175657
  15 C     6.0000    0    12.011   -4.805716   26.087978    2.507816
  16 C     6.0000    0    12.011   -6.143704   28.376492    3.343840
  17 C     6.0000    0    12.011   -7.116045   28.396599    5.840893
  18 O     8.0000    0    15.999   -8.196123   30.524478    6.596939
  19 C     6.0000    0    12.011   -7.064834   26.285972    7.331135
  20 H     1.0000    0     1.008   -1.768848   24.755222   19.393179
  21 H     1.0000    0     1.008   -4.774323   25.513951   18.574200
  22 H     1.0000    0     1.008   -2.213535   27.991097   18.686318
  23 H     1.0000    0     1.008   -2.234673   27.368858   14.332869
  24 H     1.0000    0     1.008   -0.299227   24.802994   15.246639
  25 H     1.0000    0     1.008  -11.099131   21.893309   15.454694
  26 H     1.0000    0     1.008   -9.352697   24.545349   15.389538
  27 H     1.0000    0     1.008   -7.806714   21.944703   16.477617
  28 H     1.0000    0     1.008  -12.265279   20.965707   11.918648
  29 H     1.0000    0     1.008   -8.185324   19.168988    5.715611
  30 H     1.0000    0     1.008   -4.365989   20.515747    7.934914
  31 H     1.0000    0     1.008   -3.746065   22.298005    3.530090
  32 H     1.0000    0     1.008   -3.877455   26.045133    0.678008
  33 H     1.0000    0     1.008   -6.445991   30.013037    2.142990
  34 H     1.0000    0     1.008   -7.592979   30.790027    8.313486
  35 H     1.0000    0     1.008   -7.805086   26.331713    9.244675

--------------------------------
INTERNAL COORDINATES (ANGSTROEM)
--------------------------------
 C      0   0   0     0.000000000000     0.00000000     0.00000000
 C      1   0   0     1.550512143164     0.00000000     0.00000000
 O      2   1   0     1.373323161334   106.64166617     0.00000000
 C      3   2   1     1.375443691299   118.40869247   185.72781536
 O      4   3   2     1.216588198613   122.60943886     6.65295379
 C      4   3   2     1.462467334413   113.66873126   199.85208381
 C      6   4   3     1.380895511972   127.32283064   350.41030653
 C      7   6   4     1.540632166741   128.37410752     6.82378261
 N      7   6   4     1.348068464052   120.51793380   179.70860718
 C      9   7   6     1.368918508457   121.30857472    16.71578654
 S     10   9   7     1.660438956494   121.25705645   176.47206790
 N     10   9   7     1.369258231872   118.46008283   346.06072606
 C     12  10   9     1.478158107237   122.98576145   351.35650525
 C     13  12  10     1.551186651581   111.98628514   253.24160481
 C     14  13  12     1.381640295657   123.83471949   281.20759224
 C     15  14  13     1.416181308591   122.39341749   171.75806763
 C     16  15  14     1.470926545688   118.36010418     1.16083096
 C     17  16  15     1.418069097104   117.45769503     3.69015600
 O     18  17  16     1.324639557481   116.38345453   176.56694080
 C     18  17  16     1.367509888397   121.60319208   353.01905117
 H      1   2   3     1.096900013254   110.51249349    94.22115136
 H      1   2   3     1.096903558712   109.06946897   343.67488415
 H      1   2   3     1.096900171090   109.51690873   212.38822886
 H      2   1   3     1.096900000552   109.05749449   120.26500003
 H      2   1   3     1.096902971283   107.70897269   236.53583031
 H      8   7   6     1.096900277438   109.47075340   182.41327347
 H      8   7   6     1.096900003664   115.87961281    70.29576193
 H      8   7   6     1.096898032030   116.00994645   311.10537544
 H      9   7   6     1.012899995470   119.51620638   191.09849208
 H     12  10   9     1.012899974665   113.22750728   184.02789037
 H     13  12  10     1.096900025428   102.90867565   138.61948267
 H     15  14  13     1.085999963254   119.54886248   354.39640122
 H     16  15  14     1.086000088754   121.40556124   179.15637636
 H     17  16  15     1.086000003204   123.46678126   184.82846350
 H     19  18  17     0.973000290588   105.25980965   222.71361581
 H     20  18  17     1.085999988918   120.82005207   179.59403240

---------------------------
INTERNAL COORDINATES (A.U.)
---------------------------
 C      0   0   0     0.000000000000     0.00000000     0.00000000
 C      1   0   0     2.930043317899     0.00000000     0.00000000
 O      2   1   0     2.595204668293   106.64166617     0.00000000
 C      3   2   1     2.599211889185   118.40869247   185.72781536
 O      4   3   2     2.299018513138   122.60943886     6.65295379
 C      4   3   2     2.763662741846   113.66873126   199.85208381
 C      6   4   3     2.609514337188   127.32283064   350.41030653
 C      7   6   4     2.911372868251   128.37410752     6.82378261
 N      7   6   4     2.547480206833   120.51793380   179.70860718
 C      9   7   6     2.586881080640   121.30857472    16.71578654
 S     10   9   7     3.137774889868   121.25705645   176.47206790
 N     10   9   7     2.587523064856   118.46008283   346.06072606
 C     12  10   9     2.793314005314   122.98576145   351.35650525
 C     13  12  10     2.931317954083   111.98628514   253.24160481
 C     14  13  12     2.610921774382   123.83471949   281.20759224
 C     15  14  13     2.676194829216   122.39341749   171.75806763
 C     16  15  14     2.779648334465   118.36010418     1.16083096
 C     17  16  15     2.679762232504   117.45769503     3.69015600
 O     18  17  16     2.503205989799   116.38345453   176.56694080
 C     18  17  16     2.584219174499   121.60319208   353.01905117
 H      1   2   3     2.072840621344   110.51249349    94.22115136
 H      1   2   3     2.072847321290   109.06946897   343.67488415
 H      1   2   3     2.072840919612   109.51690873   212.38822886
 H      2   1   3     2.072840597340   109.05749449   120.26500003
 H      2   1   3     2.072846211209   107.70897269   236.53583031
 H      8   7   6     2.072841120581   109.47075340   182.41327347
 H      8   7   6     2.072840603222   115.87961281    70.29576193
 H      8   7   6     2.072836877373   116.00994645   311.10537544
 H      9   7   6     1.914103592489   119.51620638   191.09849208
 H     12  10   9     1.914103553172   113.22750728   184.02789037
 H     13  12  10     2.072840644351   102.90867565   138.61948267
 H     15  14  13     2.052242511999   119.54886248   354.39640122
 H     16  15  14     2.052242749159   121.40556124   179.15637636
 H     17  16  15     2.052242587493   123.46678126   184.82846350
 H     19  18  17     1.838704077438   105.25980965   222.71361581
 H     20  18  17     2.052242560496   120.82005207   179.59403240

---------------------
BASIS SET INFORMATION
---------------------
There are 5 groups of distinct atoms

 Group   1 Type C   : 18s5p2d1f contracted to 4s3p2d1f pattern {8811/311/11/1}
 Group   2 Type O   : 18s5p2d1f contracted to 4s3p2d1f pattern {8811/311/11/1}
 Group   3 Type N   : 18s5p2d1f contracted to 4s3p2d1f pattern {8811/311/11/1}
 Group   4 Type S   : 41s16p2d1f contracted to 5s4p2d1f pattern {13131311/7711/11/1}
 Group   5 Type H   : 5s2p1d contracted to 3s2p1d pattern {311/11/1}

Atom   0C    basis set group =>   1
Atom   1C    basis set group =>   1
Atom   2O    basis set group =>   2
Atom   3C    basis set group =>   1
Atom   4O    basis set group =>   2
Atom   5C    basis set group =>   1
Atom   6C    basis set group =>   1
Atom   7C    basis set group =>   1
Atom   8N    basis set group =>   3
Atom   9C    basis set group =>   1
Atom  10S    basis set group =>   4
Atom  11N    basis set group =>   3
Atom  12C    basis set group =>   1
Atom  13C    basis set group =>   1
Atom  14C    basis set group =>   1
Atom  15C    basis set group =>   1
Atom  16C    basis set group =>   1
Atom  17C    basis set group =>   1
Atom  18O    basis set group =>   2
Atom  19C    basis set group =>   1
Atom  20H    basis set group =>   5
Atom  21H    basis set group =>   5
Atom  22H    basis set group =>   5
Atom  23H    basis set group =>   5
Atom  24H    basis set group =>   5
Atom  25H    basis set group =>   5
Atom  26H    basis set group =>   5
Atom  27H    basis set group =>   5
Atom  28H    basis set group =>   5
Atom  29H    basis set group =>   5
Atom  30H    basis set group =>   5
Atom  31H    basis set group =>   5
Atom  32H    basis set group =>   5
Atom  33H    basis set group =>   5
Atom  34H    basis set group =>   5
Atom  35H    basis set group =>   5
---------------------------------
AUXILIARY/C BASIS SET INFORMATION
---------------------------------
There are 5 groups of distinct atoms

 Group   1 Type C   : 8s6p5d3f1g contracted to 8s6p5d3f1g pattern {11111111/111111/11111/111/1}
 Group   2 Type O   : 8s6p5d3f1g contracted to 8s6p5d3f1g pattern {11111111/111111/11111/111/1}
 Group   3 Type N   : 8s6p5d3f1g contracted to 8s6p5d3f1g pattern {11111111/111111/11111/111/1}
 Group   4 Type S   : 10s8p7d5f2g contracted to 10s8p7d5f2g pattern {1111111111/11111111/1111111/11111/11}
 Group   5 Type H   : 4s3p2d1f contracted to 4s3p2d1f pattern {1111/111/11/1}

Atom   0C    basis set group =>   1
Atom   1C    basis set group =>   1
Atom   2O    basis set group =>   2
Atom   3C    basis set group =>   1
Atom   4O    basis set group =>   2
Atom   5C    basis set group =>   1
Atom   6C    basis set group =>   1
Atom   7C    basis set group =>   1
Atom   8N    basis set group =>   3
Atom   9C    basis set group =>   1
Atom  10S    basis set group =>   4
Atom  11N    basis set group =>   3
Atom  12C    basis set group =>   1
Atom  13C    basis set group =>   1
Atom  14C    basis set group =>   1
Atom  15C    basis set group =>   1
Atom  16C    basis set group =>   1
Atom  17C    basis set group =>   1
Atom  18O    basis set group =>   2
Atom  19C    basis set group =>   1
Atom  20H    basis set group =>   5
Atom  21H    basis set group =>   5
Atom  22H    basis set group =>   5
Atom  23H    basis set group =>   5
Atom  24H    basis set group =>   5
Atom  25H    basis set group =>   5
Atom  26H    basis set group =>   5
Atom  27H    basis set group =>   5
Atom  28H    basis set group =>   5
Atom  29H    basis set group =>   5
Atom  30H    basis set group =>   5
Atom  31H    basis set group =>   5
Atom  32H    basis set group =>   5
Atom  33H    basis set group =>   5
Atom  34H    basis set group =>   5
Atom  35H    basis set group =>   5
------------------------------------------------------------------------------
                           ORCA GTO INTEGRAL CALCULATION
------------------------------------------------------------------------------
------------------------------------------------------------------------------
                   ___                                                        
                  /   \      - P O W E R E D   B Y -                         
                 /     \                                                     
                 |  |  |   _    _      __       _____    __    __             
                 |  |  |  | |  | |    /  \     |  _  \  |  |  /  |          
                  \  \/   | |  | |   /    \    | | | |  |  | /  /          
                 / \  \   | |__| |  /  /\  \   | |_| |  |  |/  /          
                |  |  |   |  __  | /  /__\  \  |    /   |      \           
                |  |  |   | |  | | |   __   |  |    \   |  |\   \          
                \     /   | |  | | |  |  |  |  | |\  \  |  | \   \       
                 \___/    |_|  |_| |__|  |__|  |_| \__\ |__|  \__/        
                                                                              
                      - O R C A' S   B I G   F R I E N D -                    
                                      &                                       
                       - I N T E G R A L  F E E D E R -                       
                                                                              
 v1 FN, 2020, v2 2021                                                         
------------------------------------------------------------------------------


Reading SHARK input file qm_input.vacu.SHARKINP.tmp ... ok
----------------------
SHARK INTEGRAL PACKAGE
----------------------

Number of atoms                             ...     36
Number of basis functions                   ...    828
Number of shells                            ...    298
Maximum angular momentum                    ...      3
Integral batch strategy                     ... SHARK/LIBINT Hybrid
RI-J (if used) integral strategy            ... SPLIT-RIJ (Revised 2003 algorithm where possible)
Printlevel                                  ...      1
Contraction scheme used                     ... SEGMENTED contraction
Coulomb Range Separation                    ... NOT USED
Exchange Range Separation                   ... NOT USED
Finite Nucleus Model                        ... NOT USED
Auxiliary Coulomb fitting basis             ... NOT available
Auxiliary J/K fitting basis                 ... NOT available
Auxiliary Correlation fitting basis         ... AVAILABLE
   # of basis functions in Aux-C            ...   2141
   # of shells in Aux-C                     ...    629
   Maximum angular momentum in Aux-C        ...      4
Auxiliary 'external' fitting basis          ... NOT available
Integral threshold                          ...     2.500000e-11
Primitive cut-off                           ...     2.500000e-12
Primitive pair pre-selection threshold      ...     2.500000e-12

Calculating pre-screening integrals         ... done (  0.6 sec) Dimension = 298
Organizing shell pair data                  ... done (  0.4 sec)
Shell pair information
Total number of shell pairs                 ...     44551
Shell pairs after pre-screening             ...     32443
Total number of primitive shell pairs       ...    234348
Primitive shell pairs kept                  ...     93537
          la=0 lb=0:   6495 shell pairs
          la=1 lb=0:   9047 shell pairs
          la=1 lb=1:   3212 shell pairs
          la=2 lb=0:   5163 shell pairs
          la=2 lb=1:   3536 shell pairs
          la=2 lb=2:    996 shell pairs
          la=3 lb=0:   1868 shell pairs
          la=3 lb=1:   1269 shell pairs
          la=3 lb=2:    714 shell pairs
          la=3 lb=3:    143 shell pairs

Calculating one electron integrals          ... done (  0.3 sec)
Calculating RI/C V-Matrix + Cholesky decomp.... done (  0.4 sec)
Calculating Nuclear repulsion               ... done (  0.0 sec) ENN=   1693.405015808861 Eh

SHARK setup successfully completed in   1.8 seconds

Maximum memory used throughout the entire GTOINT-calculation: 479.8 MB
-------------------------------------------------------------------------------
                                 ORCA SCF
-------------------------------------------------------------------------------

------------
SCF SETTINGS
------------
Hamiltonian:
 Ab initio Hamiltonian  Method          .... Hartree-Fock(GTOs)


General Settings:
 Integral files         IntName         .... qm_input.vacu
 Hartree-Fock type      HFTyp           .... RHF
 Total Charge           Charge          ....    0
 Multiplicity           Mult            ....    1
 Number of Electrons    NEL             ....  154
 Basis Dimension        Dim             ....  828
 Nuclear Repulsion      ENuc            ....   1693.4050158089 Eh

Convergence Acceleration:
 DIIS                   CNVDIIS         .... on
   Start iteration      DIISMaxIt       ....    12
   Startup error        DIISStart       ....  0.200000
   # of expansion vecs  DIISMaxEq       ....     5
   Bias factor          DIISBfac        ....   1.050
   Max. coefficient     DIISMaxC        ....  10.000
 Trust-Rad. Augm. Hess. CNVTRAH         .... auto
   Auto Start mean grad. ratio tolernc. ....  1.125000
   Auto Start start iteration           ....    20
   Auto Start num. interpolation iter.  ....    10
   Max. Number of Micro iterations      ....    16
   Max. Number of Macro iterations      .... Maxiter - #DIIS iter
   Number of Davidson start vectors     ....     2
   Converg. threshold I  (grad. norm)   ....   1.000e-05
   Converg. threshold II (energy diff.) ....   1.000e-08
   Grad. Scal. Fac. for Micro threshold ....   0.100
   Minimum threshold for Micro iter.    ....   0.010
   NR start threshold (gradient norm)   ....   0.001
   Initial trust radius                 ....   0.400
   Minimum AH scaling param. (alpha)    ....   1.000
   Maximum AH scaling param. (alpha)    .... 1000.000
   Orbital update algorithm             .... Taylor
   White noise on init. David. guess    .... on
   Maximum white noise                  ....   0.010
   Quad. conv. algorithm                .... NR
 SOSCF                  CNVSOSCF        .... on
   Start iteration      SOSCFMaxIt      ....   150
   Startup grad/error   SOSCFStart      ....  0.003300
 Level Shifting         CNVShift        .... on
   Level shift para.    LevelShift      ....    0.2500
   Turn off err/grad.   ShiftErr        ....    0.0010
 Zerner damping         CNVZerner       .... off
 Static damping         CNVDamp         .... on
   Fraction old density DampFac         ....    0.7000
   Max. Damping (<1)    DampMax         ....    0.9800
   Min. Damping (>=0)   DampMin         ....    0.0000
   Turn off err/grad.   DampErr         ....    0.1000
 Fernandez-Rico         CNVRico         .... off

SCF Procedure:
 Maximum # iterations   MaxIter         ....   125
 SCF integral mode      SCFMode         .... Direct
   Integral package                     .... SHARK and LIBINT hybrid scheme
 Reset frequency        DirectResetFreq ....    20
 Integral Threshold     Thresh          ....  2.500e-11 Eh
 Primitive CutOff       TCut            ....  2.500e-12 Eh

Convergence Tolerance:
 Convergence Check Mode ConvCheckMode   .... Total+1el-Energy
 Convergence forced     ConvForced      .... 1
 Energy Change          TolE            ....  1.000e-08 Eh
 1-El. energy change                    ....  1.000e-05 Eh
 Orbital Gradient       TolG            ....  1.000e-05
 Orbital Rotation angle TolX            ....  1.000e-05
 DIIS Error             TolErr          ....  5.000e-07


Diagonalization of the overlap matrix:
Smallest eigenvalue                        ... 3.777e-05
Time for diagonalization                   ...    0.144 sec
Threshold for overlap eigenvalues          ... 1.000e-08
Number of eigenvalues below threshold      ... 0
Time for construction of square roots      ...    0.061 sec
Total time needed                          ...    0.208 sec

Time for model grid setup =    1.418 sec

------------------------------
INITIAL GUESS: MODEL POTENTIAL
------------------------------
Loading Hartree-Fock densities                     ... done
Calculating cut-offs                               ... done
Initializing the effective Hamiltonian             ... done
Setting up the integral package (SHARK)            ... done
Starting the Coulomb interaction                   ... done (   4.0 sec)
Reading the grid                                   ... done
Mapping shells                                     ... done
Starting the XC term evaluation                    ... done (   1.4 sec)
Transforming the Hamiltonian                       ... done (   0.0 sec)
Diagonalizing the Hamiltonian                      ... done (   0.1 sec)
Back transforming the eigenvectors                 ... done (   0.0 sec)
Now organizing SCF variables                       ... done
                      ------------------
                      INITIAL GUESS DONE (   7.1 sec)
                      ------------------
--------------
SCF ITERATIONS
--------------
ITER       Energy         Delta-E        Max-DP      RMS-DP      [F,P]     Damp
               ***  Starting incremental Fock matrix formation  ***
  0  -1269.9775167972   0.000000000000 0.06371016  0.00046556  0.3219844 0.7000
  1  -1270.2451619527  -0.267645155413 0.05977252  0.00038270  0.1909526 0.7000
                               ***Turning on DIIS***
  2  -1270.4122633174  -0.167101364711 0.03411696  0.00025029  0.1097416 0.7000
  3  -1272.5562406120  -2.143977294645 0.06305677  0.00051245  0.0829428 0.0000
  4  -1270.7228414506   1.833399161390 0.02173930  0.00011743  0.0076585 0.0000
  5  -1270.7828445430  -0.060003092413 0.00720175  0.00005889  0.0047360 0.0000
                      *** Initiating the SOSCF procedure ***
                           *** Shutting down DIIS ***
                      *** Re-Reading the Fockian *** 
                      *** Removing any level shift *** 
ITER      Energy       Delta-E        Grad      Rot      Max-DP    RMS-DP
  6  -1270.76116142   0.0216831239  0.001839  0.001839  0.002440  0.000029
               *** Restarting incremental Fock matrix formation ***
  7  -1270.77562646  -0.0144650408  0.000884  0.001980  0.001694  0.000018
  8  -1270.77568073  -0.0000542669  0.000473  0.002467  0.001656  0.000020
  9  -1270.77570259  -0.0000218602  0.000172  0.000362  0.000365  0.000005
 10  -1270.77570532  -0.0000027291  0.000066  0.000183  0.000130  0.000002
 11  -1270.77570560  -0.0000002883  0.000025  0.000154  0.000096  0.000001
 12  -1270.77570568  -0.0000000765  0.000009  0.000031  0.000034  0.000000
                  ***Gradient check signals convergence***
              ***Rediagonalizing the Fockian in SOSCF/NRSCF***

               *****************************************************
               *                     SUCCESS                       *
               *           SCF CONVERGED AFTER  13 CYCLES          *
               *****************************************************


----------------
TOTAL SCF ENERGY
----------------

Total Energy       :        -1270.77570568 Eh          -34579.56494 eV

Components:
Nuclear Repulsion  :         1693.40501581 Eh           46079.89314 eV
Electronic Energy  :        -2964.18072149 Eh          -80659.45808 eV
One Electron Energy:        -5107.58838957 Eh         -138984.54592 eV
Two Electron Energy:         2143.40766807 Eh           58325.08784 eV

Virial components:
Potential Energy   :        -2539.98816219 Eh          -69116.59171 eV
Kinetic Energy     :         1269.21245651 Eh           34537.02677 eV
Virial Ratio       :            2.00123167


---------------
SCF CONVERGENCE
---------------

  Last Energy change         ...   -3.2833e-09  Tolerance :   1.0000e-08
  Last MAX-Density change    ...    7.1964e-06  Tolerance :   1.0000e-07
  Last RMS-Density change    ...    1.0652e-07  Tolerance :   5.0000e-09
  Last Orbital Gradient      ...    2.1476e-06  Tolerance :   1.0000e-05
  Last Orbital Rotation      ...    6.5228e-06  Tolerance :   1.0000e-05

             **** THE GBW FILE WAS UPDATED (qm_input.vacu.gbw) ****
             **** DENSITY qm_input.vacu.scfp WAS UPDATED ****
             **** ENERGY FILE WAS UPDATED (qm_input.vacu.en.tmp) ****
             **** THE GBW FILE WAS UPDATED (qm_input.vacu.gbw) ****
             **** DENSITY qm_input.vacu.scfp WAS UPDATED ****
----------------
ORBITAL ENERGIES
----------------

  NO   OCC          E(Eh)            E(eV) 
   0   2.0000     -91.890782     -2500.4753 
   1   2.0000     -20.607732      -560.7649 
   2   2.0000     -20.588231      -560.2343 
   3   2.0000     -20.549590      -559.1828 
   4   2.0000     -15.641653      -425.6310 
   5   2.0000     -15.609403      -424.7534 
   6   2.0000     -11.393678      -310.0377 
   7   2.0000     -11.386760      -309.8495 
   8   2.0000     -11.349499      -308.8356 
   9   2.0000     -11.303218      -307.5762 
  10   2.0000     -11.298759      -307.4549 
  11   2.0000     -11.292656      -307.2888 
  12   2.0000     -11.269832      -306.6677 
  13   2.0000     -11.257517      -306.3326 
  14   2.0000     -11.257476      -306.3315 
  15   2.0000     -11.257149      -306.3226 
  16   2.0000     -11.242054      -305.9118 
  17   2.0000     -11.234751      -305.7131 
  18   2.0000     -11.233256      -305.6724 
  19   2.0000     -11.231285      -305.6188 
  20   2.0000      -8.895723      -242.0649 
  21   2.0000      -6.577243      -178.9759 
  22   2.0000      -6.575303      -178.9231 
  23   2.0000      -6.574688      -178.9064 
  24   2.0000      -1.469652       -39.9913 
  25   2.0000      -1.424516       -38.7631 
  26   2.0000      -1.370871       -37.3033 
  27   2.0000      -1.358847       -36.9761 
  28   2.0000      -1.249335       -33.9961 
  29   2.0000      -1.149979       -31.2925 
  30   2.0000      -1.120987       -30.5036 
  31   2.0000      -1.044921       -28.4337 
  32   2.0000      -1.034175       -28.1413 
  33   2.0000      -1.009062       -27.4580 
  34   2.0000      -1.003453       -27.3054 
  35   2.0000      -0.985723       -26.8229 
  36   2.0000      -0.926738       -25.2178 
  37   2.0000      -0.896116       -24.3846 
  38   2.0000      -0.858629       -23.3645 
  39   2.0000      -0.844560       -22.9816 
  40   2.0000      -0.828715       -22.5505 
  41   2.0000      -0.812295       -22.1037 
  42   2.0000      -0.773465       -21.0471 
  43   2.0000      -0.746474       -20.3126 
  44   2.0000      -0.736735       -20.0476 
  45   2.0000      -0.703581       -19.1454 
  46   2.0000      -0.692741       -18.8504 
  47   2.0000      -0.685128       -18.6433 
  48   2.0000      -0.679741       -18.4967 
  49   2.0000      -0.662379       -18.0242 
  50   2.0000      -0.653439       -17.7810 
  51   2.0000      -0.649344       -17.6696 
  52   2.0000      -0.635019       -17.2797 
  53   2.0000      -0.624362       -16.9898 
  54   2.0000      -0.607489       -16.5306 
  55   2.0000      -0.602001       -16.3813 
  56   2.0000      -0.594502       -16.1772 
  57   2.0000      -0.589368       -16.0375 
  58   2.0000      -0.571105       -15.5405 
  59   2.0000      -0.570583       -15.5263 
  60   2.0000      -0.559006       -15.2113 
  61   2.0000      -0.555206       -15.1079 
  62   2.0000      -0.533497       -14.5172 
  63   2.0000      -0.521341       -14.1864 
  64   2.0000      -0.515185       -14.0189 
  65   2.0000      -0.504463       -13.7271 
  66   2.0000      -0.499710       -13.5978 
  67   2.0000      -0.499209       -13.5842 
  68   2.0000      -0.477919       -13.0048 
  69   2.0000      -0.463685       -12.6175 
  70   2.0000      -0.459621       -12.5069 
  71   2.0000      -0.455957       -12.4072 
  72   2.0000      -0.354855        -9.6561 
  73   2.0000      -0.335418        -9.1272 
  74   2.0000      -0.329230        -8.9588 
  75   2.0000      -0.322838        -8.7849 
  76   2.0000      -0.315152        -8.5757 
  77   0.0000       0.067370         1.8332 
  78   0.0000       0.099967         2.7202 
  79   0.0000       0.111303         3.0287 
  80   0.0000       0.128361         3.4929 
  81   0.0000       0.137460         3.7405 
  82   0.0000       0.140165         3.8141 
  83   0.0000       0.145217         3.9516 
  84   0.0000       0.155295         4.2258 
  85   0.0000       0.158873         4.3232 
  86   0.0000       0.168004         4.5716 
  87   0.0000       0.178006         4.8438 
  88   0.0000       0.188184         5.1207 
  89   0.0000       0.195327         5.3151 
  90   0.0000       0.198292         5.3958 
  91   0.0000       0.203759         5.5446 
  92   0.0000       0.209438         5.6991 
  93   0.0000       0.221718         6.0333 
  94   0.0000       0.225546         6.1374 
  95   0.0000       0.235082         6.3969 
  96   0.0000       0.243180         6.6173 
  97   0.0000       0.246660         6.7120 
  98   0.0000       0.267206         7.2710 
  99   0.0000       0.281184         7.6514 
 100   0.0000       0.295912         8.0522 
 101   0.0000       0.304128         8.2758 
 102   0.0000       0.310807         8.4575 
 103   0.0000       0.318976         8.6798 
 104   0.0000       0.327334         8.9072 
 105   0.0000       0.336630         9.1602 
 106   0.0000       0.341510         9.2930 
 107   0.0000       0.351635         9.5685 
 108   0.0000       0.360684         9.8147 
 109   0.0000       0.366155         9.9636 
 110   0.0000       0.374821        10.1994 
 111   0.0000       0.384583        10.4650 
 112   0.0000       0.387473        10.5437 
 113   0.0000       0.395867        10.7721 
 114   0.0000       0.401096        10.9144 
 115   0.0000       0.408693        11.1211 
 116   0.0000       0.420516        11.4428 
 117   0.0000       0.423174        11.5152 
 118   0.0000       0.429748        11.6940 
 119   0.0000       0.435167        11.8415 
 120   0.0000       0.438885        11.9427 
 121   0.0000       0.451148        12.2764 
 122   0.0000       0.456277        12.4159 
 123   0.0000       0.456887        12.4325 
 124   0.0000       0.461063        12.5462 
 125   0.0000       0.470334        12.7984 
 126   0.0000       0.480607        13.0780 
 127   0.0000       0.481592        13.1048 
 128   0.0000       0.492660        13.4060 
 129   0.0000       0.494644        13.4599 
 130   0.0000       0.499912        13.6033 
 131   0.0000       0.505633        13.7590 
 132   0.0000       0.510179        13.8827 
 133   0.0000       0.515561        14.0291 
 134   0.0000       0.520013        14.1503 
 135   0.0000       0.526363        14.3231 
 136   0.0000       0.532292        14.4844 
 137   0.0000       0.535290        14.5660 
 138   0.0000       0.540710        14.7135 
 139   0.0000       0.544108        14.8059 
 140   0.0000       0.547286        14.8924 
 141   0.0000       0.551195        14.9988 
 142   0.0000       0.557156        15.1610 
 143   0.0000       0.562508        15.3066 
 144   0.0000       0.572236        15.5713 
 145   0.0000       0.576850        15.6969 
 146   0.0000       0.577201        15.7064 
 147   0.0000       0.582442        15.8491 
 148   0.0000       0.590620        16.0716 
 149   0.0000       0.595053        16.1922 
 150   0.0000       0.601000        16.3541 
 151   0.0000       0.603867        16.4321 
 152   0.0000       0.610933        16.6243 
 153   0.0000       0.615845        16.7580 
 154   0.0000       0.621445        16.9104 
 155   0.0000       0.622693        16.9443 
 156   0.0000       0.628408        17.0998 
 157   0.0000       0.630923        17.1683 
 158   0.0000       0.632835        17.2203 
 159   0.0000       0.639232        17.3944 
 160   0.0000       0.645186        17.5564 
 161   0.0000       0.651536        17.7292 
 162   0.0000       0.653247        17.7758 
 163   0.0000       0.658070        17.9070 
 164   0.0000       0.665052        18.0970 
 165   0.0000       0.669059        18.2060 
 166   0.0000       0.674366        18.3504 
 167   0.0000       0.677828        18.4446 
 168   0.0000       0.682031        18.5590 
 169   0.0000       0.684232        18.6189 
 170   0.0000       0.697653        18.9841 
 171   0.0000       0.700931        19.0733 
 172   0.0000       0.708630        19.2828 
 173   0.0000       0.715304        19.4644 
 174   0.0000       0.725540        19.7429 
 175   0.0000       0.729439        19.8490 
 176   0.0000       0.732392        19.9294 
 177   0.0000       0.737416        20.0661 
 178   0.0000       0.744089        20.2477 
 179   0.0000       0.748655        20.3719 
 180   0.0000       0.755281        20.5523 
 181   0.0000       0.764062        20.7912 
 182   0.0000       0.772523        21.0214 
 183   0.0000       0.779919        21.2227 
 184   0.0000       0.789630        21.4869 
 185   0.0000       0.800450        21.7813 
 186   0.0000       0.804079        21.8801 
 187   0.0000       0.814728        22.1699 
 188   0.0000       0.819185        22.2912 
 189   0.0000       0.826449        22.4888 
 190   0.0000       0.836891        22.7730 
 191   0.0000       0.840735        22.8775 
 192   0.0000       0.844506        22.9802 
 193   0.0000       0.848156        23.0795 
 194   0.0000       0.867602        23.6086 
 195   0.0000       0.877470        23.8772 
 196   0.0000       0.885645        24.0996 
 197   0.0000       0.887347        24.1459 
 198   0.0000       0.903654        24.5897 
 199   0.0000       0.905585        24.6422 
 200   0.0000       0.908999        24.7351 
 201   0.0000       0.918176        24.9848 
 202   0.0000       0.923164        25.1206 
 203   0.0000       0.933197        25.3936 
 204   0.0000       0.935552        25.4577 
 205   0.0000       0.939199        25.5569 
 206   0.0000       0.945585        25.7307 
 207   0.0000       0.960779        26.1441 
 208   0.0000       0.969237        26.3743 
 209   0.0000       0.976725        26.5780 
 210   0.0000       0.978855        26.6360 
 211   0.0000       0.983733        26.7687 
 212   0.0000       0.994293        27.0561 
 213   0.0000       1.001656        27.2564 
 214   0.0000       1.010588        27.4995 
 215   0.0000       1.015078        27.6217 
 216   0.0000       1.016674        27.6651 
 217   0.0000       1.030322        28.0365 
 218   0.0000       1.034915        28.1615 
 219   0.0000       1.047345        28.4997 
 220   0.0000       1.050072        28.5739 
 221   0.0000       1.056683        28.7538 
 222   0.0000       1.063145        28.9296 
 223   0.0000       1.073576        29.2135 
 224   0.0000       1.079265        29.3683 
 225   0.0000       1.086860        29.5750 
 226   0.0000       1.100685        29.9512 
 227   0.0000       1.107131        30.1266 
 228   0.0000       1.112571        30.2746 
 229   0.0000       1.116101        30.3707 
 230   0.0000       1.122937        30.5567 
 231   0.0000       1.131227        30.7823 
 232   0.0000       1.140679        31.0394 
 233   0.0000       1.147935        31.2369 
 234   0.0000       1.154756        31.4225 
 235   0.0000       1.160874        31.5890 
 236   0.0000       1.168223        31.7890 
 237   0.0000       1.170023        31.8379 
 238   0.0000       1.176337        32.0098 
 239   0.0000       1.179304        32.0905 
 240   0.0000       1.188026        32.3278 
 241   0.0000       1.199057        32.6280 
 242   0.0000       1.203026        32.7360 
 243   0.0000       1.206635        32.8342 
 244   0.0000       1.213018        33.0079 
 245   0.0000       1.222487        33.2656 
 246   0.0000       1.227455        33.4007 
 247   0.0000       1.231523        33.5114 
 248   0.0000       1.238469        33.7004 
 249   0.0000       1.255054        34.1518 
 250   0.0000       1.260434        34.2982 
 251   0.0000       1.264742        34.4154 
 252   0.0000       1.273303        34.6483 
 253   0.0000       1.287453        35.0334 
 254   0.0000       1.292421        35.1686 
 255   0.0000       1.300467        35.3875 
 256   0.0000       1.311870        35.6978 
 257   0.0000       1.313747        35.7489 
 258   0.0000       1.319974        35.9183 
 259   0.0000       1.325097        36.0577 
 260   0.0000       1.338229        36.4150 
 261   0.0000       1.344661        36.5901 
 262   0.0000       1.356444        36.9107 
 263   0.0000       1.360792        37.0290 
 264   0.0000       1.364094        37.1189 
 265   0.0000       1.376267        37.4501 
 266   0.0000       1.380367        37.5617 
 267   0.0000       1.393691        37.9242 
 268   0.0000       1.396856        38.0104 
 269   0.0000       1.405828        38.2545 
 270   0.0000       1.413750        38.4701 
 271   0.0000       1.417166        38.5630 
 272   0.0000       1.430165        38.9168 
 273   0.0000       1.443122        39.2693 
 274   0.0000       1.447084        39.3772 
 275   0.0000       1.450990        39.4834 
 276   0.0000       1.460559        39.7438 
 277   0.0000       1.473423        40.0939 
 278   0.0000       1.479728        40.2654 
 279   0.0000       1.490873        40.5687 
 280   0.0000       1.495107        40.6839 
 281   0.0000       1.497363        40.7453 
 282   0.0000       1.504172        40.9306 
 283   0.0000       1.510908        41.1139 
 284   0.0000       1.514593        41.2142 
 285   0.0000       1.520990        41.3882 
 286   0.0000       1.523355        41.4526 
 287   0.0000       1.533121        41.7183 
 288   0.0000       1.537247        41.8306 
 289   0.0000       1.542393        41.9706 
 290   0.0000       1.552292        42.2400 
 291   0.0000       1.553695        42.2782 
 292   0.0000       1.565444        42.5979 
 293   0.0000       1.577672        42.9306 
 294   0.0000       1.581875        43.0450 
 295   0.0000       1.586693        43.1761 
 296   0.0000       1.598267        43.4911 
 297   0.0000       1.609735        43.8031 
 298   0.0000       1.610758        43.8310 
 299   0.0000       1.619987        44.0821 
 300   0.0000       1.632000        44.4090 
 301   0.0000       1.638076        44.5743 
 302   0.0000       1.641736        44.6739 
 303   0.0000       1.646975        44.8165 
 304   0.0000       1.650786        44.9202 
 305   0.0000       1.671114        45.4733 
 306   0.0000       1.675637        45.5964 
 307   0.0000       1.682551        45.7845 
 308   0.0000       1.689944        45.9857 
 309   0.0000       1.701136        46.2903 
 310   0.0000       1.705475        46.4083 
 311   0.0000       1.718057        46.7507 
 312   0.0000       1.730980        47.1024 
 313   0.0000       1.738113        47.2965 
 314   0.0000       1.745821        47.5062 
 315   0.0000       1.757425        47.8220 
 316   0.0000       1.770434        48.1760 
 317   0.0000       1.775394        48.3109 
 318   0.0000       1.785350        48.5818 
 319   0.0000       1.795106        48.8473 
 320   0.0000       1.804623        49.1063 
 321   0.0000       1.829833        49.7923 
 322   0.0000       1.833369        49.8885 
 323   0.0000       1.853256        50.4297 
 324   0.0000       1.861378        50.6507 
 325   0.0000       1.890034        51.4304 
 326   0.0000       1.891706        51.4759 
 327   0.0000       1.899826        51.6969 
 328   0.0000       1.905877        51.8615 
 329   0.0000       1.912356        52.0379 
 330   0.0000       1.923562        52.3428 
 331   0.0000       1.924761        52.3754 
 332   0.0000       1.942734        52.8645 
 333   0.0000       1.959746        53.3274 
 334   0.0000       1.965209        53.4761 
 335   0.0000       1.987448        54.0812 
 336   0.0000       2.003440        54.5164 
 337   0.0000       2.007721        54.6329 
 338   0.0000       2.009966        54.6940 
 339   0.0000       2.016301        54.8663 
 340   0.0000       2.021195        54.9995 
 341   0.0000       2.034331        55.3570 
 342   0.0000       2.050652        55.8011 
 343   0.0000       2.075081        56.4658 
 344   0.0000       2.095923        57.0330 
 345   0.0000       2.102732        57.2182 
 346   0.0000       2.111592        57.4593 
 347   0.0000       2.119438        57.6728 
 348   0.0000       2.121431        57.7271 
 349   0.0000       2.139717        58.2247 
 350   0.0000       2.190676        59.6113 
 351   0.0000       2.211506        60.1781 
 352   0.0000       2.219823        60.4044 
 353   0.0000       2.224435        60.5299 
 354   0.0000       2.244720        61.0819 
 355   0.0000       2.252924        61.3052 
 356   0.0000       2.263066        61.5811 
 357   0.0000       2.277276        61.9678 
 358   0.0000       2.287257        62.2394 
 359   0.0000       2.294390        62.4335 
 360   0.0000       2.303278        62.6754 
 361   0.0000       2.309801        62.8529 
 362   0.0000       2.325510        63.2803 
 363   0.0000       2.335634        63.5558 
 364   0.0000       2.342485        63.7422 
 365   0.0000       2.351274        63.9814 
 366   0.0000       2.374872        64.6235 
 367   0.0000       2.387916        64.9785 
 368   0.0000       2.390618        65.0520 
 369   0.0000       2.396713        65.2179 
 370   0.0000       2.420404        65.8626 
 371   0.0000       2.425385        65.9981 
 372   0.0000       2.439111        66.3716 
 373   0.0000       2.452872        66.7460 
 374   0.0000       2.465815        67.0982 
 375   0.0000       2.495952        67.9183 
 376   0.0000       2.502041        68.0840 
 377   0.0000       2.513495        68.3957 
 378   0.0000       2.522102        68.6299 
 379   0.0000       2.540540        69.1316 
 380   0.0000       2.567792        69.8732 
 381   0.0000       2.578739        70.1710 
 382   0.0000       2.591290        70.5126 
 383   0.0000       2.608664        70.9854 
 384   0.0000       2.617121        71.2155 
 385   0.0000       2.629089        71.5412 
 386   0.0000       2.632761        71.6411 
 387   0.0000       2.638638        71.8010 
 388   0.0000       2.657985        72.3274 
 389   0.0000       2.670927        72.6796 
 390   0.0000       2.676260        72.8247 
 391   0.0000       2.688613        73.1609 
 392   0.0000       2.696461        73.3744 
 393   0.0000       2.708612        73.7051 
 394   0.0000       2.718328        73.9695 
 395   0.0000       2.722051        74.0708 
 396   0.0000       2.734696        74.4149 
 397   0.0000       2.744111        74.6710 
 398   0.0000       2.758336        75.0581 
 399   0.0000       2.769584        75.3642 
 400   0.0000       2.771545        75.4176 
 401   0.0000       2.778464        75.6058 
 402   0.0000       2.787674        75.8565 
 403   0.0000       2.793438        76.0133 
 404   0.0000       2.804976        76.3273 
 405   0.0000       2.814240        76.5794 
 406   0.0000       2.821748        76.7837 
 407   0.0000       2.831185        77.0405 
 408   0.0000       2.845112        77.4194 
 409   0.0000       2.854986        77.6881 
 410   0.0000       2.857530        77.7574 
 411   0.0000       2.863508        77.9200 
 412   0.0000       2.880600        78.3851 
 413   0.0000       2.883579        78.4662 
 414   0.0000       2.902780        78.9887 
 415   0.0000       2.910761        79.2058 
 416   0.0000       2.917180        79.3805 
 417   0.0000       2.923151        79.5430 
 418   0.0000       2.932179        79.7886 
 419   0.0000       2.941380        80.0390 
 420   0.0000       2.944533        80.1248 
 421   0.0000       2.960073        80.5477 
 422   0.0000       2.973933        80.9248 
 423   0.0000       2.990601        81.3784 
 424   0.0000       2.996878        81.5492 
 425   0.0000       3.007561        81.8399 
 426   0.0000       3.014712        82.0345 
 427   0.0000       3.025892        82.3387 
 428   0.0000       3.030422        82.4620 
 429   0.0000       3.041032        82.7507 
 430   0.0000       3.044349        82.8410 
 431   0.0000       3.057332        83.1942 
 432   0.0000       3.059521        83.2538 
 433   0.0000       3.068574        83.5002 
 434   0.0000       3.076301        83.7104 
 435   0.0000       3.085577        83.9628 
 436   0.0000       3.088785        84.0501 
 437   0.0000       3.100884        84.3793 
 438   0.0000       3.106243        84.5252 
 439   0.0000       3.111599        84.6709 
 440   0.0000       3.115883        84.7875 
 441   0.0000       3.119785        84.8937 
 442   0.0000       3.125619        85.0524 
 443   0.0000       3.136405        85.3459 
 444   0.0000       3.147185        85.6392 
 445   0.0000       3.154103        85.8275 
 446   0.0000       3.164339        86.1060 
 447   0.0000       3.174765        86.3898 
 448   0.0000       3.180459        86.5447 
 449   0.0000       3.183151        86.6179 
 450   0.0000       3.189264        86.7843 
 451   0.0000       3.193559        86.9011 
 452   0.0000       3.203308        87.1664 
 453   0.0000       3.207286        87.2747 
 454   0.0000       3.217653        87.5568 
 455   0.0000       3.224946        87.7552 
 456   0.0000       3.240003        88.1650 
 457   0.0000       3.247832        88.3780 
 458   0.0000       3.257106        88.6304 
 459   0.0000       3.262990        88.7905 
 460   0.0000       3.265093        88.8477 
 461   0.0000       3.276733        89.1644 
 462   0.0000       3.283693        89.3538 
 463   0.0000       3.290489        89.5388 
 464   0.0000       3.291901        89.5772 
 465   0.0000       3.298606        89.7596 
 466   0.0000       3.303475        89.8921 
 467   0.0000       3.309533        90.0570 
 468   0.0000       3.312086        90.1265 
 469   0.0000       3.320730        90.3617 
 470   0.0000       3.329865        90.6102 
 471   0.0000       3.335097        90.7526 
 472   0.0000       3.344705        91.0140 
 473   0.0000       3.348893        91.1280 
 474   0.0000       3.352977        91.2392 
 475   0.0000       3.361089        91.4599 
 476   0.0000       3.363349        91.5214 
 477   0.0000       3.367406        91.6318 
 478   0.0000       3.377266        91.9001 
 479   0.0000       3.381106        92.0046 
 480   0.0000       3.383212        92.0619 
 481   0.0000       3.389994        92.2464 
 482   0.0000       3.393230        92.3345 
 483   0.0000       3.405687        92.6734 
 484   0.0000       3.411257        92.8250 
 485   0.0000       3.416091        92.9566 
 486   0.0000       3.427505        93.2671 
 487   0.0000       3.433912        93.4415 
 488   0.0000       3.438976        93.5793 
 489   0.0000       3.441982        93.6611 
 490   0.0000       3.449930        93.8774 
 491   0.0000       3.457490        94.0831 
 492   0.0000       3.465500        94.3011 
 493   0.0000       3.466266        94.3219 
 494   0.0000       3.469056        94.3978 
 495   0.0000       3.480007        94.6958 
 496   0.0000       3.488056        94.9148 
 497   0.0000       3.491657        95.0128 
 498   0.0000       3.504221        95.3547 
 499   0.0000       3.506508        95.4169 
 500   0.0000       3.512737        95.5864 
 501   0.0000       3.515435        95.6598 
 502   0.0000       3.527359        95.9843 
 503   0.0000       3.538240        96.2804 
 504   0.0000       3.545643        96.4819 
 505   0.0000       3.550188        96.6055 
 506   0.0000       3.555751        96.7569 
 507   0.0000       3.563046        96.9554 
 508   0.0000       3.572228        97.2053 
 509   0.0000       3.586040        97.5811 
 510   0.0000       3.590467        97.7016 
 511   0.0000       3.602998        98.0426 
 512   0.0000       3.614203        98.3475 
 513   0.0000       3.617653        98.4413 
 514   0.0000       3.618299        98.4589 
 515   0.0000       3.626058        98.6701 
 516   0.0000       3.627772        98.7167 
 517   0.0000       3.637319        98.9765 
 518   0.0000       3.647037        99.2409 
 519   0.0000       3.650360        99.3314 
 520   0.0000       3.651172        99.3534 
 521   0.0000       3.662075        99.6501 
 522   0.0000       3.665364        99.7396 
 523   0.0000       3.673476        99.9604 
 524   0.0000       3.680875       100.1617 
 525   0.0000       3.681120       100.1684 
 526   0.0000       3.686837       100.3239 
 527   0.0000       3.699018       100.6554 
 528   0.0000       3.706512       100.8593 
 529   0.0000       3.708237       100.9063 
 530   0.0000       3.713524       101.0501 
 531   0.0000       3.721333       101.2626 
 532   0.0000       3.734484       101.6205 
 533   0.0000       3.744991       101.9064 
 534   0.0000       3.750235       102.0491 
 535   0.0000       3.751566       102.0853 
 536   0.0000       3.762591       102.3853 
 537   0.0000       3.768106       102.5354 
 538   0.0000       3.769163       102.5641 
 539   0.0000       3.780586       102.8750 
 540   0.0000       3.782748       102.9338 
 541   0.0000       3.788283       103.0844 
 542   0.0000       3.790969       103.1575 
 543   0.0000       3.796052       103.2958 
 544   0.0000       3.797927       103.3468 
 545   0.0000       3.805144       103.5432 
 546   0.0000       3.819881       103.9442 
 547   0.0000       3.821107       103.9776 
 548   0.0000       3.835681       104.3742 
 549   0.0000       3.844297       104.6087 
 550   0.0000       3.849165       104.7411 
 551   0.0000       3.864952       105.1707 
 552   0.0000       3.871529       105.3497 
 553   0.0000       3.882764       105.6554 
 554   0.0000       3.886994       105.7705 
 555   0.0000       3.893583       105.9498 
 556   0.0000       3.901700       106.1707 
 557   0.0000       3.905584       106.2763 
 558   0.0000       3.916889       106.5840 
 559   0.0000       3.928220       106.8923 
 560   0.0000       3.928924       106.9115 
 561   0.0000       3.942156       107.2715 
 562   0.0000       3.956918       107.6732 
 563   0.0000       3.958952       107.7286 
 564   0.0000       3.974702       108.1571 
 565   0.0000       3.980923       108.3264 
 566   0.0000       3.991214       108.6065 
 567   0.0000       4.000671       108.8638 
 568   0.0000       4.002182       108.9049 
 569   0.0000       4.007518       109.0501 
 570   0.0000       4.015831       109.2763 
 571   0.0000       4.018059       109.3369 
 572   0.0000       4.028914       109.6323 
 573   0.0000       4.042697       110.0074 
 574   0.0000       4.046822       110.1196 
 575   0.0000       4.055490       110.3555 
 576   0.0000       4.068774       110.7170 
 577   0.0000       4.079637       111.0126 
 578   0.0000       4.081385       111.0601 
 579   0.0000       4.096028       111.4586 
 580   0.0000       4.103081       111.6505 
 581   0.0000       4.109016       111.8120 
 582   0.0000       4.114959       111.9737 
 583   0.0000       4.122949       112.1911 
 584   0.0000       4.130996       112.4101 
 585   0.0000       4.138022       112.6013 
 586   0.0000       4.145081       112.7934 
 587   0.0000       4.151864       112.9780 
 588   0.0000       4.156953       113.1164 
 589   0.0000       4.177137       113.6657 
 590   0.0000       4.182501       113.8116 
 591   0.0000       4.189313       113.9970 
 592   0.0000       4.197123       114.2095 
 593   0.0000       4.209791       114.5542 
 594   0.0000       4.218552       114.7926 
 595   0.0000       4.223787       114.9351 
 596   0.0000       4.225514       114.9821 
 597   0.0000       4.236806       115.2893 
 598   0.0000       4.241283       115.4112 
 599   0.0000       4.249576       115.6368 
 600   0.0000       4.256232       115.8180 
 601   0.0000       4.262052       115.9763 
 602   0.0000       4.273187       116.2793 
 603   0.0000       4.285143       116.6047 
 604   0.0000       4.295394       116.8836 
 605   0.0000       4.301221       117.0422 
 606   0.0000       4.303794       117.1122 
 607   0.0000       4.308907       117.2513 
 608   0.0000       4.313167       117.3672 
 609   0.0000       4.323566       117.6502 
 610   0.0000       4.332798       117.9014 
 611   0.0000       4.340952       118.1233 
 612   0.0000       4.349744       118.3626 
 613   0.0000       4.354091       118.4808 
 614   0.0000       4.359458       118.6269 
 615   0.0000       4.366086       118.8072 
 616   0.0000       4.376769       119.0979 
 617   0.0000       4.384225       119.3008 
 618   0.0000       4.395044       119.5952 
 619   0.0000       4.404637       119.8563 
 620   0.0000       4.408250       119.9546 
 621   0.0000       4.420101       120.2771 
 622   0.0000       4.422037       120.3297 
 623   0.0000       4.441215       120.8516 
 624   0.0000       4.445518       120.9687 
 625   0.0000       4.447083       121.0113 
 626   0.0000       4.459635       121.3528 
 627   0.0000       4.462278       121.4248 
 628   0.0000       4.469006       121.6078 
 629   0.0000       4.473947       121.7423 
 630   0.0000       4.481217       121.9401 
 631   0.0000       4.501640       122.4959 
 632   0.0000       4.508477       122.6819 
 633   0.0000       4.515513       122.8733 
 634   0.0000       4.528267       123.2204 
 635   0.0000       4.535253       123.4105 
 636   0.0000       4.545433       123.6875 
 637   0.0000       4.554415       123.9319 
 638   0.0000       4.560834       124.1066 
 639   0.0000       4.565273       124.2274 
 640   0.0000       4.579212       124.6067 
 641   0.0000       4.588102       124.8486 
 642   0.0000       4.596858       125.0869 
 643   0.0000       4.607871       125.3865 
 644   0.0000       4.609754       125.4378 
 645   0.0000       4.617479       125.6480 
 646   0.0000       4.624348       125.8349 
 647   0.0000       4.627244       125.9137 
 648   0.0000       4.632367       126.0531 
 649   0.0000       4.654683       126.6604 
 650   0.0000       4.660286       126.8128 
 651   0.0000       4.669759       127.0706 
 652   0.0000       4.671655       127.1222 
 653   0.0000       4.685121       127.4886 
 654   0.0000       4.700462       127.9061 
 655   0.0000       4.706488       128.0700 
 656   0.0000       4.721664       128.4830 
 657   0.0000       4.733273       128.7989 
 658   0.0000       4.742012       129.0367 
 659   0.0000       4.748671       129.2179 
 660   0.0000       4.753898       129.3601 
 661   0.0000       4.767008       129.7169 
 662   0.0000       4.779199       130.0486 
 663   0.0000       4.793572       130.4397 
 664   0.0000       4.809716       130.8790 
 665   0.0000       4.821308       131.1944 
 666   0.0000       4.838402       131.6596 
 667   0.0000       4.851668       132.0206 
 668   0.0000       4.860391       132.2580 
 669   0.0000       4.896644       133.2445 
 670   0.0000       4.899827       133.3311 
 671   0.0000       4.911403       133.6461 
 672   0.0000       4.938543       134.3846 
 673   0.0000       4.954727       134.8250 
 674   0.0000       4.977177       135.4359 
 675   0.0000       5.001903       136.1087 
 676   0.0000       5.002599       136.1276 
 677   0.0000       5.015611       136.4817 
 678   0.0000       5.018585       136.5626 
 679   0.0000       5.033923       136.9800 
 680   0.0000       5.045314       137.2900 
 681   0.0000       5.062249       137.7508 
 682   0.0000       5.073140       138.0472 
 683   0.0000       5.087500       138.4379 
 684   0.0000       5.093211       138.5933 
 685   0.0000       5.100453       138.7904 
 686   0.0000       5.106369       138.9514 
 687   0.0000       5.121227       139.3557 
 688   0.0000       5.135799       139.7522 
 689   0.0000       5.151123       140.1692 
 690   0.0000       5.157913       140.3539 
 691   0.0000       5.180273       140.9624 
 692   0.0000       5.185997       141.1182 
 693   0.0000       5.198562       141.4601 
 694   0.0000       5.203077       141.5829 
 695   0.0000       5.215562       141.9226 
 696   0.0000       5.218003       141.9891 
 697   0.0000       5.224702       142.1714 
 698   0.0000       5.240447       142.5998 
 699   0.0000       5.248774       142.8264 
 700   0.0000       5.275568       143.5555 
 701   0.0000       5.288151       143.8979 
 702   0.0000       5.295115       144.0874 
 703   0.0000       5.307456       144.4232 
 704   0.0000       5.322950       144.8448 
 705   0.0000       5.336802       145.2218 
 706   0.0000       5.347360       145.5091 
 707   0.0000       5.353221       145.6686 
 708   0.0000       5.367987       146.0704 
 709   0.0000       5.377410       146.3268 
 710   0.0000       5.391498       146.7101 
 711   0.0000       5.411129       147.2443 
 712   0.0000       5.427498       147.6897 
 713   0.0000       5.456599       148.4816 
 714   0.0000       5.465734       148.7302 
 715   0.0000       5.469606       148.8355 
 716   0.0000       5.480482       149.1315 
 717   0.0000       5.494363       149.5092 
 718   0.0000       5.511725       149.9817 
 719   0.0000       5.525223       150.3490 
 720   0.0000       5.533705       150.5798 
 721   0.0000       5.536472       150.6551 
 722   0.0000       5.556314       151.1950 
 723   0.0000       5.562722       151.3694 
 724   0.0000       5.575092       151.7060 
 725   0.0000       5.581360       151.8765 
 726   0.0000       5.602691       152.4570 
 727   0.0000       5.612129       152.7138 
 728   0.0000       5.623180       153.0145 
 729   0.0000       5.624831       153.0594 
 730   0.0000       5.652760       153.8194 
 731   0.0000       5.664979       154.1519 
 732   0.0000       5.670578       154.3043 
 733   0.0000       5.693550       154.9294 
 734   0.0000       5.715886       155.5372 
 735   0.0000       5.728400       155.8777 
 736   0.0000       5.751275       156.5001 
 737   0.0000       5.762230       156.7982 
 738   0.0000       5.765401       156.8845 
 739   0.0000       5.780510       157.2957 
 740   0.0000       5.785550       157.4328 
 741   0.0000       5.791680       157.5996 
 742   0.0000       5.807533       158.0310 
 743   0.0000       5.834841       158.7741 
 744   0.0000       5.848451       159.1444 
 745   0.0000       5.858878       159.4282 
 746   0.0000       5.871969       159.7844 
 747   0.0000       5.875243       159.8735 
 748   0.0000       5.906256       160.7174 
 749   0.0000       5.910333       160.8283 
 750   0.0000       5.949133       161.8841 
 751   0.0000       5.974528       162.5752 
 752   0.0000       5.991807       163.0454 
 753   0.0000       6.003509       163.3638 
 754   0.0000       6.034499       164.2071 
 755   0.0000       6.041208       164.3896 
 756   0.0000       6.068128       165.1222 
 757   0.0000       6.092048       165.7731 
 758   0.0000       6.100983       166.0162 
 759   0.0000       6.105503       166.1392 
 760   0.0000       6.123112       166.6184 
 761   0.0000       6.145385       167.2244 
 762   0.0000       6.152903       167.4290 
 763   0.0000       6.187605       168.3733 
 764   0.0000       6.238402       169.7556 
 765   0.0000       6.248976       170.0433 
 766   0.0000       6.262087       170.4001 
 767   0.0000       6.312738       171.7783 
 768   0.0000       6.322565       172.0457 
 769   0.0000       6.360724       173.0841 
 770   0.0000       6.376881       173.5238 
 771   0.0000       6.403404       174.2455 
 772   0.0000       6.423467       174.7914 
 773   0.0000       6.448103       175.4618 
 774   0.0000       6.469454       176.0428 
 775   0.0000       6.489817       176.5969 
 776   0.0000       6.535947       177.8522 
 777   0.0000       6.590759       179.3437 
 778   0.0000       6.615626       180.0203 
 779   0.0000       6.651032       180.9838 
 780   0.0000       6.655233       181.0981 
 781   0.0000       6.707979       182.5334 
 782   0.0000       6.752350       183.7408 
 783   0.0000       6.786823       184.6789 
 784   0.0000       6.809810       185.3043 
 785   0.0000       6.838862       186.0949 
 786   0.0000       6.926543       188.4808 
 787   0.0000       6.961089       189.4209 
 788   0.0000       6.971840       189.7134 
 789   0.0000       7.032730       191.3703 
 790   0.0000       7.074790       192.5148 
 791   0.0000       7.091633       192.9732 
 792   0.0000       7.150708       194.5807 
 793   0.0000       7.164358       194.9521 
 794   0.0000       7.237566       196.9442 
 795   0.0000       7.242043       197.0660 
 796   0.0000       7.251118       197.3130 
 797   0.0000       7.298473       198.6015 
 798   0.0000       7.369816       200.5429 
 799   0.0000       7.430687       202.1993 
 800   0.0000       7.449842       202.7205 
 801   0.0000       7.507430       204.2876 
 802   0.0000       7.548725       205.4113 
 803   0.0000       7.595595       206.6866 
 804   0.0000       7.704066       209.6383 
 805   0.0000       7.739221       210.5949 
 806   0.0000       7.889515       214.6846 
 807   0.0000       7.970946       216.9005 
 808   0.0000       7.992721       217.4930 
 809   0.0000       9.292698       252.8672 
 810   0.0000       9.887368       269.0490 
 811   0.0000      10.909823       296.8714 
 812   0.0000      11.751615       319.7777 
 813   0.0000      11.977753       325.9312 
 814   0.0000      12.460508       339.0676 
 815   0.0000      12.710548       345.8716 
 816   0.0000      12.971444       352.9709 
 817   0.0000      13.010904       354.0447 
 818   0.0000      13.375310       363.9607 
 819   0.0000      13.398344       364.5875 
 820   0.0000      13.530008       368.1702 
 821   0.0000      13.855058       377.0153 
 822   0.0000      13.968675       380.1070 
 823   0.0000      14.101912       383.7325 
 824   0.0000      14.144290       384.8857 
 825   0.0000      14.580306       396.7503 
 826   0.0000      14.857930       404.3048 
 827   0.0000      15.823843       430.5887 

                    ********************************
                    * MULLIKEN POPULATION ANALYSIS *
                    ********************************

-----------------------
MULLIKEN ATOMIC CHARGES
-----------------------
   0 C :   -0.289324
   1 C :    0.052521
   2 O :   -0.320137
   3 C :    0.445544
   4 O :   -0.417809
   5 C :   -0.231407
   6 C :    0.144352
   7 C :   -0.308041
   8 N :   -0.096164
   9 C :    0.214880
  10 S :   -0.440785
  11 N :   -0.206850
  12 C :    0.049364
  13 C :    0.102824
  14 C :   -0.206483
  15 C :   -0.132951
  16 C :   -0.236900
  17 C :    0.278343
  18 O :   -0.354422
  19 C :   -0.276454
  20 H :    0.095278
  21 H :    0.092320
  22 H :    0.100772
  23 H :    0.067318
  24 H :    0.092990
  25 H :    0.103226
  26 H :    0.125514
  27 H :    0.140411
  28 H :    0.202051
  29 H :    0.199359
  30 H :    0.151041
  31 H :    0.143500
  32 H :    0.166876
  33 H :    0.169887
  34 H :    0.239460
  35 H :    0.139897
Sum of atomic charges:   -0.0000000

--------------------------------
MULLIKEN REDUCED ORBITAL CHARGES
--------------------------------
  0 C s       :     3.268524  s :     3.268524
      pz      :     0.916740  p :     2.944092
      px      :     1.015007
      py      :     1.012345
      dz2     :     0.021053  d :     0.072236
      dxz     :     0.011954
      dyz     :     0.016242
      dx2y2   :     0.013017
      dxy     :     0.009970
      f0      :     0.001476  f :     0.004471
      f+1     :     0.000608
      f-1     :     0.000736
      f+2     :     0.000162
      f-2     :     0.000258
      f+3     :     0.000719
      f-3     :     0.000512
  1 C s       :     3.168322  s :     3.168322
      pz      :     0.912425  p :     2.617865
      px      :     0.847516
      py      :     0.857924
      dz2     :     0.032404  d :     0.148379
      dxz     :     0.026220
      dyz     :     0.031280
      dx2y2   :     0.031860
      dxy     :     0.026616
      f0      :     0.001884  f :     0.012912
      f+1     :     0.001842
      f-1     :     0.001508
      f+2     :     0.001020
      f-2     :     0.001700
      f+3     :     0.002475
      f-3     :     0.002483
  2 O s       :     3.692656  s :     3.692656
      pz      :     1.399460  p :     4.587626
      px      :     1.606413
      py      :     1.581753
      dz2     :     0.012970  d :     0.037426
      dxz     :     0.006235
      dyz     :     0.006195
      dx2y2   :     0.004619
      dxy     :     0.007407
      f0      :     0.000474  f :     0.002428
      f+1     :     0.000289
      f-1     :     0.000556
      f+2     :     0.000180
      f-2     :     0.000386
      f+3     :     0.000237
      f-3     :     0.000308
  3 C s       :     3.053381  s :     3.053381
      pz      :     0.687551  p :     2.174652
      px      :     0.817443
      py      :     0.669657
      dz2     :     0.096464  d :     0.299831
[...]
 15 C s       :     2.722303  s :     2.722303
      pz      :     0.957040  p :     2.792399
      px      :     0.865908
      py      :     0.969451
      dz2     :     0.085841  d :     0.384203
      dxz     :     0.053108
      dyz     :     0.090926
      dx2y2   :     0.076422
      dxy     :     0.077906
      f0      :     0.003794  f :     0.036047
      f+1     :     0.003213
      f-1     :     0.008623
      f+2     :     0.004787
      f-2     :     0.006467
      f+3     :     0.004565
      f-3     :     0.004596
 16 C s       :     2.722204  s :     2.722204
      pz      :     0.974261  p :     2.841678
      px      :     0.906323
      py      :     0.961094
      dz2     :     0.084543  d :     0.356952
      dxz     :     0.060685
      dyz     :     0.112464
      dx2y2   :     0.056774
      dxy     :     0.042486
      f0      :     0.007043  f :     0.035178
      f+1     :     0.005745
      f-1     :     0.007224
      f+2     :     0.003528
      f-2     :     0.004544
      f+3     :     0.003344
      f-3     :     0.003750
 17 C s       :     2.695256  s :     2.695256
      pz      :     0.993332  p :     2.702463
      px      :     0.820051
      py      :     0.889080
      dz2     :     0.167123  d :     0.741549
      dxz     :     0.100198
      dyz     :     0.177028
      dx2y2   :     0.146117
      dxy     :     0.151083
      f0      :     0.011349  f :     0.108689
      f+1     :     0.007617
      f-1     :     0.027677
      f+2     :     0.010713
      f-2     :     0.016770
      f+3     :     0.014268
      f-3     :     0.020295
 18 O s       :     3.164564  s :     3.164564
      pz      :     1.328135  p :     4.333842
      px      :     1.573855
      py      :     1.431853
      dz2     :     0.022125  d :     0.080682
      dxz     :     0.009163
      dyz     :     0.016966
      dx2y2   :     0.015745
      dxy     :     0.016683
      f0      :     0.000827  f :     0.005766
      f+1     :     0.000907
      f-1     :     0.000960
      f+2     :     0.000371
      f-2     :     0.000891
      f+3     :     0.000911
      f-3     :     0.000898
 19 C s       :     2.694813  s :     2.694813
      pz      :     0.958321  p :     2.856263
      px      :     0.914459
      py      :     0.983483
      dz2     :     0.095269  d :     0.397463
      dxz     :     0.044340
      dyz     :     0.101956
      dx2y2   :     0.077397
      dxy     :     0.078501
      f0      :     0.004683  f :     0.041920
      f+1     :     0.002959
      f-1     :     0.010286
      f+2     :     0.005723
      f-2     :     0.006538
      f+3     :     0.005667
      f-3     :     0.006063
 20 H s       :     0.845808  s :     0.845808
      pz      :     0.050297  p :     0.154796
      px      :     0.051110
      py      :     0.053388
      dz2     :     0.006763  d :     0.027959
      dxz     :     0.004419
      dyz     :     0.005325
      dx2y2   :     0.006946
      dxy     :     0.004506
 21 H s       :     0.849967  s :     0.849967
      pz      :     0.039539  p :     0.154043
      px      :     0.072588
      py      :     0.041916
      dz2     :     0.003008  d :     0.028219
      dxz     :     0.008778
      dyz     :     0.000782
      dx2y2   :     0.007459
      dxy     :     0.008192
 22 H s       :     0.850256  s :     0.850256
      pz      :     0.040641  p :     0.150459
      px      :     0.041226
      py      :     0.068592
      dz2     :     0.003317  d :     0.027171
      dxz     :     0.000907
      dyz     :     0.008019
      dx2y2   :     0.007356
      dxy     :     0.007571
 23 H s       :     0.863613  s :     0.863613
      pz      :     0.046709  p :     0.144723
      px      :     0.032266
      py      :     0.065748
      dz2     :     0.005557  d :     0.027298
      dxz     :     0.001718
      dyz     :     0.007595
      dx2y2   :     0.005660
      dxy     :     0.006768
 24 H s       :     0.855722  s :     0.855722
      pz      :     0.038951  p :     0.146021
      px      :     0.070801
      py      :     0.036269
      dz2     :     0.003030  d :     0.027349
      dxz     :     0.007825
      dyz     :     0.001436
      dx2y2   :     0.007729
      dxy     :     0.007329
 25 H s       :     0.840440  s :     0.840440
      pz      :     0.036601  p :     0.153879
      px      :     0.068776
      py      :     0.048502
      dz2     :     0.002842  d :     0.028433
      dxz     :     0.008153
      dyz     :     0.001008
      dx2y2   :     0.008273
      dxy     :     0.008156
 26 H s       :     0.826491  s :     0.826491
      pz      :     0.038137  p :     0.156353
      px      :     0.043292
      py      :     0.074924
      dz2     :     0.002824  d :     0.028426
      dxz     :     0.000300
      dyz     :     0.008469
      dx2y2   :     0.006598
      dxy     :     0.010235
 27 H s       :     0.831006  s :     0.831006
      pz      :     0.053782  p :     0.154437
      px      :     0.054750
      py      :     0.045905
      dz2     :     0.007070  d :     0.027822
      dxz     :     0.006750
      dyz     :     0.004703
      dx2y2   :     0.004783
      dxy     :     0.004515
 28 H s       :     0.734969  s :     0.734969
      pz      :     0.064588  p :     0.246680
      px      :     0.104383
      py      :     0.077709
      dz2     :     0.009379  d :     0.060101
      dxz     :     0.016633
      dyz     :     0.004244
      dx2y2   :     0.012251
      dxy     :     0.017594
 29 H s       :     0.749165  s :     0.749165
      pz      :     0.115679  p :     0.254652
      px      :     0.052168
      py      :     0.086805
      dz2     :     0.021050  d :     0.061309
      dxz     :     0.014405
      dyz     :     0.018638
      dx2y2   :     0.004060
      dxy     :     0.003156
 30 H s       :     0.823672  s :     0.823672
      pz      :     0.037095  p :     0.153240
      px      :     0.067917
      py      :     0.048228
      dz2     :     0.003457  d :     0.029358
      dxz     :     0.006365
      dyz     :     0.003010
      dx2y2   :     0.007888
      dxy     :     0.008638
 31 H s       :     0.844810  s :     0.844810
      pz      :     0.038774  p :     0.157353
      px      :     0.052419
      py      :     0.066160
      dz2     :     0.003688  d :     0.027618
      dxz     :     0.002682
      dyz     :     0.006808
      dx2y2   :     0.007507
      dxy     :     0.006933
 32 H s       :     0.847345  s :     0.847345
      pz      :     0.072265  p :     0.154934
      px      :     0.048132
      py      :     0.034537
      dz2     :     0.008764  d :     0.026673
      dxz     :     0.007763
      dyz     :     0.006731
      dx2y2   :     0.001651
      dxy     :     0.001764
 33 H s       :     0.847324  s :     0.847324
      pz      :     0.049018  p :     0.158031
      px      :     0.042947
      py      :     0.066066
      dz2     :     0.005635  d :     0.027363
      dxz     :     0.003081
      dyz     :     0.008020
      dx2y2   :     0.005247
      dxy     :     0.005380
 34 H s       :     0.699247  s :     0.699247
      pz      :     0.157226  p :     0.347624
      px      :     0.110275
      py      :     0.080123
      dz2     :     0.032545  d :     0.098408
      dxz     :     0.030765
      dyz     :     0.026504
      dx2y2   :     0.004439
      dxy     :     0.004154
 35 H s       :     0.842193  s :     0.842193
      pz      :     0.077770  p :     0.164846
      px      :     0.051219
      py      :     0.035858
      dz2     :     0.009662  d :     0.028304
      dxz     :     0.008126
      dyz     :     0.007964
      dx2y2   :     0.001268
      dxy     :     0.001284


                      *****************************
                      * MAYER POPULATION ANALYSIS *
                      *****************************

  NA   - Mulliken gross atomic population
  ZA   - Total nuclear charge
  QA   - Mulliken gross atomic charge
  VA   - Mayer's total valence
  BVA  - Mayer's bonded valence
  FA   - Mayer's free valence

  ATOM       NA         ZA         QA         VA         BVA        FA
  0 C      6.2893     6.0000    -0.2893     3.8746     3.8746     0.0000
  1 C      5.9475     6.0000     0.0525     3.8625     3.8625     0.0000
  2 O      8.3201     8.0000    -0.3201     2.0789     2.0789     0.0000
  3 C      5.5545     6.0000     0.4455     4.2468     4.2468    -0.0000
  4 O      8.4178     8.0000    -0.4178     2.1035     2.1035     0.0000
  5 C      6.2314     6.0000    -0.2314     3.5910     3.5910    -0.0000
  6 C      5.8556     6.0000     0.1444     3.8359     3.8359     0.0000
  7 C      6.3080     6.0000    -0.3080     3.8847     3.8847    -0.0000
  8 N      7.0962     7.0000    -0.0962     3.3474     3.3474    -0.0000
  9 C      5.7851     6.0000     0.2149     4.1450     4.1450     0.0000
 10 S     16.4408    16.0000    -0.4408     1.7439     1.7439    -0.0000
 11 N      7.2069     7.0000    -0.2069     3.2216     3.2216     0.0000
 12 C      5.9506     6.0000     0.0494     3.9640     3.9640    -0.0000
 13 C      5.8972     6.0000     0.1028     3.7069     3.7069    -0.0000
 14 C      6.2065     6.0000    -0.2065     3.8790     3.8790     0.0000
 15 C      6.1330     6.0000    -0.1330     3.8180     3.8180     0.0000
 16 C      6.2369     6.0000    -0.2369     3.8304     3.8304    -0.0000
 17 C      5.7217     6.0000     0.2783     3.9010     3.9010    -0.0000
 18 O      8.3544     8.0000    -0.3544     2.0869     2.0869    -0.0000
 19 C      6.2765     6.0000    -0.2765     3.7856     3.7856     0.0000
 20 H      0.9047     1.0000     0.0953     0.9791     0.9791     0.0000
 21 H      0.9077     1.0000     0.0923     0.9860     0.9860    -0.0000
 22 H      0.8992     1.0000     0.1008     0.9887     0.9887     0.0000
 23 H      0.9327     1.0000     0.0673     0.9798     0.9798     0.0000
 24 H      0.9070     1.0000     0.0930     0.9804     0.9804     0.0000
 25 H      0.8968     1.0000     0.1032     0.9889     0.9889    -0.0000
 26 H      0.8745     1.0000     0.1255     0.9689     0.9689    -0.0000
 27 H      0.8596     1.0000     0.1404     0.9817     0.9817    -0.0000
 28 H      0.7979     1.0000     0.2021     1.0197     1.0197    -0.0000
 29 H      0.8006     1.0000     0.1994     1.0160     1.0160     0.0000
 30 H      0.8490     1.0000     0.1510     0.9922     0.9922     0.0000
 31 H      0.8565     1.0000     0.1435     0.9839     0.9839     0.0000
 32 H      0.8331     1.0000     0.1669     0.9760     0.9760     0.0000
 33 H      0.8301     1.0000     0.1699     0.9865     0.9865     0.0000
 34 H      0.7605     1.0000     0.2395     1.0071     1.0071    -0.0000
 35 H      0.8601     1.0000     0.1399     0.9913     0.9913     0.0000

  Mayer bond orders larger than 0.100000
B(  0-C ,  1-C ) :   0.9337 B(  0-C , 20-H ) :   0.9863 B(  0-C , 21-H ) :   0.9809 
B(  0-C , 22-H ) :   0.9860 B(  1-C ,  2-O ) :   0.9414 B(  1-C , 23-H ) :   0.9823 
B(  1-C , 24-H ) :   0.9819 B(  2-O ,  3-C ) :   1.1362 B(  3-C ,  4-O ) :   1.9958 
B(  3-C ,  5-C ) :   1.0833 B(  5-C ,  6-C ) :   1.5772 B(  5-C , 12-C ) :   0.9774 
B(  6-C ,  7-C ) :   0.9591 B(  6-C ,  8-N ) :   1.2092 B(  7-C , 25-H ) :   0.9965 
B(  7-C , 26-H ) :   0.9570 B(  7-C , 27-H ) :   0.9647 B(  8-N ,  9-C ) :   1.1660 
B(  8-N , 28-H ) :   0.9431 B(  9-C , 10-S ) :   1.5929 B(  9-C , 11-N ) :   1.3314 
B( 11-N , 12-C ) :   0.9358 B( 11-N , 29-H ) :   0.9450 B( 12-C , 13-C ) :   0.9797 
B( 12-C , 30-H ) :   0.9946 B( 13-C , 14-C ) :   1.3979 B( 13-C , 19-C ) :   1.2744 
B( 14-C , 15-C ) :   1.3674 B( 14-C , 31-H ) :   0.9726 B( 15-C , 16-C ) :   1.4056 
B( 15-C , 32-H ) :   0.9684 B( 16-C , 17-C ) :   1.3554 B( 16-C , 33-H ) :   0.9594 
B( 17-C , 18-O ) :   1.0718 B( 17-C , 19-C ) :   1.4015 B( 18-O , 34-H ) :   0.9783 
B( 19-C , 35-H ) :   0.9648 

-------
TIMINGS
-------

Total SCF time: 0 days 1 hours 42 min 39 sec 

Total time                  ....    6159.315 sec
Sum of individual times     ....    6154.129 sec  ( 99.9%)

Fock matrix formation       ....    6140.764 sec  ( 99.7%)
Diagonalization             ....       1.308 sec  (  0.0%)
Density matrix formation    ....       0.173 sec  (  0.0%)
Population analysis         ....       0.256 sec  (  0.0%)
Initial guess               ....       5.675 sec  (  0.1%)
Orbital Transformation      ....       0.000 sec  (  0.0%)
Orbital Orthonormalization  ....       0.000 sec  (  0.0%)
DIIS solution               ....       2.687 sec  (  0.0%)
SOSCF solution              ....       1.847 sec  (  0.0%)

Maximum memory used throughout the entire SCF-calculation: 722.2 MB

------------------------------------------------------------------------------
                                ORCA  MP2 
------------------------------------------------------------------------------

Freezing NCore=48 chemical core electrons

-------------
RI-MP2 ENERGY
-------------
Dimension of the basis                    ...  828
Memory devoted to MP2                     ...  256 MB   
Data format for buffers                   ... DOUBLE
Compression type for matrix containers    ... UNCOMPRESSED
Overall scaling of the MP2 energy         ...   1.000e+00
Calculating two index integrals           ... done (    0.048 sec)
Cholesky decomposition of V**-1           ... done (    0.543 sec)

-----------------
RI-TRANSFORMATION (AUX index driven)
-----------------

Dimension of the orbital-basis         ... 828
Dimension of the aux-basis             ... 2141
Transformation of internal/external MOs...   24-  76 to   77- 827
Number Format for Storage              ... Double (8 Byte)
Integral mode                          ... Direct

First Phase: integral generation and transformation of MO indices
  Aux angular momentum 0               ... done (    4.444 sec)
  Aux angular momentum 1               ... done (    7.663 sec)
  Aux angular momentum 2               ... done (   10.365 sec)
  Aux angular momentum 3               ... done (    7.859 sec)
  Aux angular momentum 4               ... done (    2.780 sec)
Closing buffer VIA ( 0.63 GB; CompressionRatio= 1.00)
  Phase 1 completed in    33.731 sec
Second Phase: sorting and transformation of aux index

IA-Transformation
Memory available                       ... 158 MB 
Max. # MO pairs treated in a batch     ... 11    
# of internal orbitals                 ... 53
# batches for internal orbitals        ... 5
Closing buffer IAV ( 0.63 GB; CompressionRatio= 1.00)
(ia|v) transformation done in    25.531 sec

  Phase 2 completed in    25.555 sec
RI-Integral transformation completed in    59.291 sec
Opening buffers                              ... done

Starting loop over batches of integrals:

Operator 0  - window                       ... ( 24- 76)x( 77-827)
Operator 0  - Memory available             ...   256 MB
Operator 0  - Memory needed per MO         ...  12.3 MB
Operator 0  - Number of orbitals per batch ... 13
Operator 0  - Number of batches            ... 5

OPERATOR  0   PASS   0:  MOs    24 ...   36
  Reading integrals       ... ok
  Internal MO  26
  Internal MO  29
  Internal MO  32
  Internal MO  35
OPERATOR  0   PASS   1:  MOs    37 ...   49
  Reading integrals       ... ok
  Internal MO  38
  Internal MO  41
  Internal MO  44
  Internal MO  47
OPERATOR  0   PASS   2:  MOs    50 ...   62
  Reading integrals       ... ok
  Internal MO  50
  Internal MO  53
  Internal MO  56
  Internal MO  59
  Internal MO  62
OPERATOR  0   PASS   3:  MOs    63 ...   75
  Reading integrals       ... ok
  Internal MO  65
  Internal MO  68
  Internal MO  71
  Internal MO  74
OPERATOR  0   PASS   4:  MOs    76 ...   76
  Reading integrals       ... ok
Time spent in pair loops =    89.024 sec
Deleting buffer (Ka|jb)[aa] ...done

-----------------------------------------------
 RI-MP2 CORRELATION ENERGY:     -3.534173258 Eh
-----------------------------------------------


-------
TIMINGS
-------

Total time                :  148.996 sec
Integral trafo            :   59.309 sec ( 39.8%)
I/O of integrals          :    3.871 sec (  2.6%)
K(i,j) Operators          :   57.709 sec ( 38.7%)
T(i,j) pair energies      :    8.355 sec (  5.6%)
V-calculation             :    0.048 sec (  0.0%)
V**(-1/2)                 :    0.543 sec (  0.4%)
Gamma(ia|P)               :    0.000 sec (  0.0%)
Gamma-Trafo               :    0.000 sec (  0.0%)
D(virtual)                :    0.000 sec (  0.0%)
D(internal)               :    0.000 sec (  0.0%)
W(virtual)                :    0.000 sec (  0.0%)
W(internal)               :    0.000 sec (  0.0%)
L(virtual)                :    0.000 sec (  0.0%)
L(internal)               :    0.000 sec (  0.0%)
G(D)                      :    0.000 sec (  0.0%)
G(Z)                      :    0.000 sec (  0.0%)
Z-Vector Solution         :    0.000 sec (  0.0%)
3-Index Derivative        :    0.000 sec (  0.0%)
2-Index Derivative        :    0.000 sec (  0.0%)
Separable Gradient        :    0.000 sec (  0.0%)


---------------------------------------
MP2 TOTAL ENERGY:    -1274.309878942 Eh
---------------------------------------

Maximum memory used throughout the entire MP2-calculation: 303.3 MB

-------------------------   --------------------
FINAL SINGLE POINT ENERGY     -1274.309878942047
-------------------------   --------------------


                            ***************************************
                            *     ORCA property calculations      *
                            ***************************************


  WARNING: The energy has been calculated at the MP2 level but the densities
           used in the property calculations are still SCF densities
           MP2 response densities have not been calculated 
           use %mp2 Density relaxed end
           or  %mp2 Density unrelaxed end

                                    ---------------------
                                    Active property flags
                                    ---------------------
   (+) Dipole Moment


------------------------------------------------------------------------------
                       ORCA ELECTRIC PROPERTIES CALCULATION
------------------------------------------------------------------------------

Dipole Moment Calculation                       ... on
Quadrupole Moment Calculation                   ... off
Polarizability Calculation                      ... off
GBWName                                         ... qm_input.vacu.gbw
Electron density file                           ... qm_input.vacu.scfp
The origin for moment calculation is the CENTER OF MASS  = (-6.898882, 23.571944  9.430564)

-------------
DIPOLE MOMENT
-------------
                                X             Y             Z
Electronic contribution:     -7.62782      -8.07991     -14.05617
Nuclear contribution   :      8.34338       8.94827      16.01774
                        -----------------------------------------
Total Dipole Moment    :      0.71556       0.86836       1.96157
                        -----------------------------------------
Magnitude (a.u.)       :      2.26138
Magnitude (Debye)      :      5.74797



--------------------
Rotational spectrum 
--------------------
 
Rotational constants in cm-1:     0.010499     0.008900     0.005945 
Rotational constants in MHz :   314.744957   266.817940   178.224304 

 Dipole components along the rotational axes: 
x,y,z [a.u.] :     2.170077    -0.226047    -0.594569 
x,y,z [Debye]:     5.515897    -0.574565    -1.511274 

 

Timings for individual modules:

Sum of individual times         ...     6311.218 sec (= 105.187 min)
GTO integral calculation        ...        1.939 sec (=   0.032 min)   0.0 %
SCF iterations                  ...     6159.422 sec (= 102.657 min)  97.6 %
MP2 module                      ...      149.857 sec (=   2.498 min)   2.4 %
                             ****ORCA TERMINATED NORMALLY****
TOTAL RUN TIME: 0 days 1 hours 45 minutes 12 seconds 774 msec
