
                                        *****************
                                        * O   R   C   A *
                                        *****************

                                            #,                                       
                                            ###                                      
                                            ####                                     
                                            #####                                    
                                            ######                                   
                                           ########,                                 
                                     ,,################,,,,,                         
                               ,,#################################,,                 
                          ,,##########################################,,             
                       ,#########################################, ''#####,          
                    ,#############################################,,   '####,        
                  ,##################################################,,,,####,       
                ,###########''''           ''''###############################       
              ,#####''   ,,,,##########,,,,          '''####'''          '####       
            ,##' ,,,,###########################,,,                        '##       
           ' ,,###''''                  '''############,,,                           
         ,,##''                                '''############,,,,        ,,,,,,###''
      ,#''                                            '''#######################'''  
     '                                                          ''''####''''         
             ,#######,   #######,   ,#######,      ##                                
            ,#'     '#,  ##    ##  ,#'     '#,    #''#        ######   ,####,        
            ##       ##  ##   ,#'  ##            #'  '#       #        #'  '#        
            ##       ##  #######   ##           ,######,      #####,   #    #        
            '#,     ,#'  ##    ##  '#,     ,#' ,#      #,         ##   #,  ,#        
             '#######'   ##     ##  '#######'  #'      '#     #####' # '####'        



                  #######################################################
                  #                        -***-                        #
                  #          Department of theory and spectroscopy      #
                  #    Directorship and core code : Frank Neese         #
                  #        Max Planck Institute fuer Kohlenforschung    #
                  #                Kaiser Wilhelm Platz 1               #
                  #                 D-45470 Muelheim/Ruhr               #
                  #                      Germany                        #
                  #                                                     #
                  #                  All rights reserved                #
                  #                        -***-                        #
                  #######################################################


                         Program Version 5.0.0 -  RELEASE  -
                                (SVN: $Rev: 19529$)
                ($Date: 2021-06-28 11:36:33 +0200 (Mo, 28 Jun 2021) $)


 With contributions from (in alphabetic order):
   Daniel Aravena         : Magnetic Suceptibility
   Michael Atanasov       : Ab Initio Ligand Field Theory (pilot matlab implementation)
   Alexander A. Auer      : GIAO ZORA, VPT2 properties, NMR spectrum
   Ute Becker             : Parallelization
   Giovanni Bistoni       : ED, misc. LED, open-shell LED, HFLD
   Martin Brehm           : Molecular dynamics
   Dmytro Bykov           : SCF Hessian
   Vijay G. Chilkuri      : MRCI spin determinant printing, contributions to CSF-ICE
   Dipayan Datta          : RHF DLPNO-CCSD density
   Achintya Kumar Dutta   : EOM-CC, STEOM-CC
   Dmitry Ganyushin       : Spin-Orbit,Spin-Spin,Magnetic field MRCI
   Miquel Garcia          : C-PCM Hessian, Gaussian charge scheme
   Yang Guo               : DLPNO-NEVPT2, F12-NEVPT2, CIM, IAO-localization
   Andreas Hansen         : Spin unrestricted coupled pair/coupled cluster methods
   Benjamin Helmich-Paris : MC-RPA, TRAH-SCF, COSX integrals
   Lee Huntington         : MR-EOM, pCC
   Robert Izsak           : Overlap fitted RIJCOSX, COSX-SCS-MP3, EOM
   Marcus Kettner         : VPT2
   Christian Kollmar      : KDIIS, OOCD, Brueckner-CCSD(T), CCSD density, CASPT2, CASPT2-K
   Simone Kossmann        : Meta GGA functionals, TD-DFT gradient, OOMP2, MP2 Hessian
   Martin Krupicka        : Initial AUTO-CI
   Lucas Lang             : DCDCAS
   Marvin Lechner         : AUTO-CI (C++ implementation), FIC-MRCC
   Dagmar Lenk            : GEPOL surface, SMD
   Dimitrios Liakos       : Extrapolation schemes; Compound Job, initial MDCI parallelization
   Dimitrios Manganas     : Further ROCIS development; embedding schemes
   Dimitrios Pantazis     : SARC Basis sets
   Anastasios Papadopoulos: AUTO-CI, single reference methods and gradients
   Taras Petrenko         : DFT Hessian,TD-DFT gradient, ASA, ECA, R-Raman, ABS, FL, XAS/XES, NRVS
   Peter Pinski           : DLPNO-MP2, DLPNO-MP2 Gradient
   Christoph Reimann      : Effective Core Potentials
   Marius Retegan         : Local ZFS, SOC
   Christoph Riplinger    : Optimizer, TS searches, QM/MM, DLPNO-CCSD(T), (RO)-DLPNO pert. Triples
   Tobias Risthaus        : Range-separated hybrids, TD-DFT gradient, RPA, STAB
   Michael Roemelt        : Original ROCIS implementation
   Masaaki Saitow         : Open-shell DLPNO-CCSD energy and density
   Barbara Sandhoefer     : DKH picture change effects
   Avijit Sen             : IP-ROCIS
   Kantharuban Sivalingam : CASSCF convergence, NEVPT2, FIC-MRCI
   Bernardo de Souza      : ESD, SOC TD-DFT
   Georgi Stoychev        : AutoAux, RI-MP2 NMR
   Willem Van den Heuvel  : Paramagnetic NMR
   Boris Wezisla          : Elementary symmetry handling
   Frank Wennmohs         : Technical directorship


 We gratefully acknowledge several colleagues who have allowed us to
 interface, adapt or use parts of their codes:
   Stefan Grimme, W. Hujo, H. Kruse, P. Pracht,  : VdW corrections, initial TS optimization,
                  C. Bannwarth, S. Ehlert          DFT functionals, gCP, sTDA/sTD-DF
   Ed Valeev, F. Pavosevic, A. Kumar             : LibInt (2-el integral package), F12 methods
   Garnet Chan, S. Sharma, J. Yang, R. Olivares  : DMRG
   Ulf Ekstrom                                   : XCFun DFT Library
   Mihaly Kallay                                 : mrcc  (arbitrary order and MRCC methods)
   Jiri Pittner, Ondrej Demel                    : Mk-CCSD
   Frank Weinhold                                : gennbo (NPA and NBO analysis)
   Christopher J. Cramer and Donald G. Truhlar   : smd solvation model
   Lars Goerigk                                  : TD-DFT with DH, B97 family of functionals
   V. Asgeirsson, H. Jonsson                     : NEB implementation
   FAccTs GmbH                                   : IRC, NEB, NEB-TS, DLPNO-Multilevel, CI-OPT
                                                   MM, QMMM, 2- and 3-layer-ONIOM, Crystal-QMMM,
                                                   LR-CPCM, SF, NACMEs, symmetry and pop. for TD-DFT,
                                                   nearIR, NL-DFT gradient (VV10), updates on ESD,
                                                   ML-optimized integration grids
   S Lehtola, MJT Oliveira, MAL Marques          : LibXC Library
   Liviu Ungur et al                             : ANISO software


 Your calculation uses the libint2 library for the computation of 2-el integrals
 For citations please refer to: http://libint.valeyev.net

 Your ORCA version has been built with support for libXC version: 5.1.0
 For citations please refer to: https://tddft.org/programs/libxc/

 This ORCA versions uses:
   CBLAS   interface :  Fast vector & matrix operations
   LAPACKE interface :  Fast linear algebra routines
   SCALAPACK package :  Parallel linear algebra routines
   Shared memory     :  Shared parallel matrices
   BLAS/LAPACK       :  OpenBLAS 0.3.15  USE64BITINT DYNAMIC_ARCH NO_AFFINITY SkylakeX SINGLE_THREADED
        Core in use  :  SkylakeX
   Copyright (c) 2011-2014, The OpenBLAS Project


================================================================================

----- Orbital basis set information -----
Your calculation utilizes the basis: cc-pVTZ 
       H, B-Ne : Obtained from the ccRepo (grant-hill.group.shef.ac.uk/ccrepo) Feb. 2017
                 T. H. Dunning, Jr., J. Chem. Phys. 90, 1007 (1989)
            He : Obtained from the ccRepo (grant-hill.group.shef.ac.uk/ccrepo) Feb. 2017
                 D. E. Woon, T. H. Dunning, Jr., J. Chem. Phys. 100, 2975 (1994)
  Li-Be, Na-Mg : Obtained from the ccRepo (grant-hill.group.shef.ac.uk/ccrepo) Feb. 2017
                 B. P. Prascher, D. E. Woon, K. A. Peterson, T. H. Dunning, Jr., A. K. Wilson, Theor. Chem. Acc. 128, 69 (2011)
         Al-Ar : Obtained from the ccRepo (grant-hill.group.shef.ac.uk/ccrepo) Feb. 2017
                 D. E. Woon, T. H. Dunning, Jr., J. Chem. Phys. 98, 1358 (1993)
            Ca : Obtained from the Peterson Research Group Website (tyr0.chem.wsu.edu/~kipeters) Feb. 2017
                 J. Koput, K. A. Peterson, J. Phys. Chem. 106, 9595 (2002)
         Sc-Zn : Obtained from the ccRepo (grant-hill.group.shef.ac.uk/ccrepo) Feb. 2017
                 N. B. Balabanov, K. A. Peterson, J. Chem. Phys. 123, 064107 (2005)
                 N. B. Balabanov, K. A. Peterson, J. Chem. Phys. 125, 074110 (2006)
         Ga-Kr : Obtained from the ccRepo (grant-hill.group.shef.ac.uk/ccrepo) Feb. 2017
                 A. K. Wilson, D. E. Woon, K. A. Peterson, T. H. Dunning, Jr., J. Chem. Phys. 110, 7667 (1999)
             Y : Obtained from the ccRepo (grant-hill.group.shef.ac.uk/ccrepo) Feb. 2017
                 K. A. Peterson, D. Figgen, M. Dolg, H. Stoll, J. Chem. Phys. 126, 124101 (2007)
        Ag, Au : Obtained from the Peterson Research Group Website (tyr0.chem.wsu.edu/~kipeters) Feb. 2017
                 K. A. Peterson, C. Puzzarini, Theor. Chem. Acc. 114, 283 (2005)

----- AuxC basis set information -----
Your calculation utilizes the auxiliary basis: cc-pVTZ/C 
  Obtained from the EMSL Basis Set Exchange (bse.pnl.gov) Feb. 2017
  H-He, B-F, Al-Ar, Ga-Kr : F. Weigend, A. Kohn, C. Hattig, J. Chem. Phys. 116, 3175 (2002)
             Li-Be, Na-Mg : C. Haettig, Phys. Chem. Chem. Phys. 7, 59 (2005)
                       Ne : C. Haettig, Phys. Chem. Chem. Phys. 7, 59 (2005)
                            F. Weigend, A. Kohn, C. Hattig, J. Chem. Phys. 116, 3175 (2002)
                    Sc-Zn : J. G. Hill, J. A. Platts, J. Chem. Phys. 128, 044104 (2008)

================================================================================
                                        WARNINGS
                       Please study these warnings very carefully!
================================================================================


WARNING: No MP2 level density has been requested!
         To caclulate MP2 level properties use
         %mp2 Density relaxed end
         or
         %mp2 Density unrelaxed end

WARNING: Post HF methods need fully converged wavefunctions
  ===> : Setting SCFConvForced true
         You can overwrite this default with %scf ConvForced false 


INFO   : the flag for use of the SHARK integral package has been found!

================================================================================
                                       INPUT FILE
================================================================================
NAME = qm_input.solv
|  1> ! RI-MP2 cc-pVTZ cc-pVTZ/c TightSCF KeepDens NoKeepInts
|  2> 
|  3> %pointcharges "srfp_output"
|  4> 
|  5> *xyz  0  1
|  6>     C    -7.8880613    3.2802334   13.5326726
|  7>     C    -6.4860037    3.7860806   13.0496780
|  8>     O    -6.6830757    5.2265080   12.8930853
|  9>     C    -5.6542926    5.9885105   12.7297755
| 10>     O    -4.5095199    5.5385192   12.6210632
| 11>     C    -6.0302449    7.3632226   12.3177521
| 12>     C    -7.3119371    7.8357823   12.0688308
| 13>     C    -8.5912625    7.0005341   12.0702472
| 14>     N    -7.4667606    9.1415804   11.6516877
| 15>     C    -6.4860107    9.8765283   11.1030486
| 16>     S    -6.7518420   11.4300942   10.5700075
| 17>     N    -5.2450446    9.3967619   11.1860433
| 18>     C    -4.8426322    8.2690501   12.0984892
| 19>     C    -4.1883862    8.8238177   13.3931951
| 20>     C    -2.8002554    9.0160374   13.3023008
| 21>     C    -2.0823940    9.5367320   14.4043897
| 22>     C    -2.8507482    9.8734887   15.5875309
| 23>     C    -4.2424278    9.7256868   15.6128994
| 24>     O    -4.9721962   10.0788349   16.7195484
| 25>     C    -4.8905404    9.2201338   14.5169450
| 26>     H    -8.2065727    3.8478127   14.4156192
| 27>     H    -7.9249825    2.1875137   13.6209341
| 28>     H    -8.6611344    3.5366186   12.7979549
| 29>     H    -5.6455741    3.6926576   13.7483482
| 30>     H    -6.2646878    3.3617228   12.0626981
| 31>     H    -9.4631253    7.6254956   11.8411694
| 32>     H    -8.8182069    6.6573010   13.0870456
| 33>     H    -8.5793239    6.1400257   11.3901206
| 34>     H    -8.3909584    9.5304621   11.5081749
| 35>     H    -4.4555603    9.8732721   10.7669740
| 36>     H    -4.1502863    7.6820485   11.4826355
| 37>     H    -2.2424499    8.6877322   12.4302545
| 38>     H    -1.0291148    9.7929674   14.3384939
| 39>     H    -2.4388477   10.3432799   16.4758046
| 40>     H    -5.9105037    9.9457313   16.4991138
| 41>     H    -5.9723601    9.1249848   14.5209898
| 42> *
| 43> 
| 44>                          ****END OF INPUT****
================================================================================

                       ****************************
                       * Single Point Calculation *
                       ****************************

---------------------------------
CARTESIAN COORDINATES (ANGSTROEM)
---------------------------------
  C     -7.888061    3.280233   13.532673
  C     -6.486004    3.786081   13.049678
  O     -6.683076    5.226508   12.893085
  C     -5.654293    5.988510   12.729776
  O     -4.509520    5.538519   12.621063
  C     -6.030245    7.363223   12.317752
  C     -7.311937    7.835782   12.068831
  C     -8.591262    7.000534   12.070247
  N     -7.466761    9.141580   11.651688
  C     -6.486011    9.876528   11.103049
  S     -6.751842   11.430094   10.570007
  N     -5.245045    9.396762   11.186043
  C     -4.842632    8.269050   12.098489
  C     -4.188386    8.823818   13.393195
  C     -2.800255    9.016037   13.302301
  C     -2.082394    9.536732   14.404390
  C     -2.850748    9.873489   15.587531
  C     -4.242428    9.725687   15.612899
  O     -4.972196   10.078835   16.719548
  C     -4.890540    9.220134   14.516945
  H     -8.206573    3.847813   14.415619
  H     -7.924982    2.187514   13.620934
  H     -8.661134    3.536619   12.797955
  H     -5.645574    3.692658   13.748348
  H     -6.264688    3.361723   12.062698
  H     -9.463125    7.625496   11.841169
  H     -8.818207    6.657301   13.087046
  H     -8.579324    6.140026   11.390121
  H     -8.390958    9.530462   11.508175
  H     -4.455560    9.873272   10.766974
  H     -4.150286    7.682048   11.482635
  H     -2.242450    8.687732   12.430255
  H     -1.029115    9.792967   14.338494
  H     -2.438848   10.343280   16.475805
  H     -5.910504    9.945731   16.499114
  H     -5.972360    9.124985   14.520990

----------------------------
CARTESIAN COORDINATES (A.U.)
----------------------------
  NO LB      ZA    FRAG     MASS         X           Y           Z
   0 C     6.0000    0    12.011  -14.906276    6.198743   25.573045
   1 C     6.0000    0    12.011  -12.256771    7.154655   24.660318
   2 O     8.0000    0    15.999  -12.629183    9.876669   24.364400
   3 C     6.0000    0    12.011  -10.685064   11.316645   24.055789
   4 O     8.0000    0    15.999   -8.521758   10.466284   23.850353
   5 C     6.0000    0    12.011  -11.395511   13.914474   23.277178
   6 C     6.0000    0    12.011  -13.817559   14.807483   22.806785
   7 C     6.0000    0    12.011  -16.235133   13.229092   22.809462
   8 N     7.0000    0    14.007  -14.110133   17.275083   22.018499
   9 C     6.0000    0    12.011  -12.256784   18.663934   20.981721
  10 S    16.0000    0    32.060  -12.759132   21.599748   19.974419
  11 N     7.0000    0    14.007   -9.911698   17.757307   21.138558
  12 C     6.0000    0    12.011   -9.151249   15.626240   22.862831
  13 C     6.0000    0    12.011   -7.914903   16.674599   25.309471
  14 C     6.0000    0    12.011   -5.291716   17.037841   25.137705
  15 C     6.0000    0    12.011   -3.935154   18.021812   27.220352
  16 C     6.0000    0    12.011   -5.387133   18.658190   29.456165
  17 C     6.0000    0    12.011   -8.017027   18.378885   29.504104
  18 O     8.0000    0    15.999   -9.396089   19.046238   31.595368
  19 C     6.0000    0    12.011   -9.241782   17.423528   27.433050
  20 H     1.0000    0     1.008  -15.508175    7.271312   27.241572
  21 H     1.0000    0     1.008  -14.976047    4.133802   25.739835
  22 H     1.0000    0     1.008  -16.367172    6.683241   24.184630
  23 H     1.0000    0     1.008  -10.668589    6.978112   25.980613
  24 H     1.0000    0     1.008  -11.838544    6.352735   22.795196
  25 H     1.0000    0     1.008  -17.882715   14.410098   22.376567
  26 H     1.0000    0     1.008  -16.663996   12.580476   24.730932
  27 H     1.0000    0     1.008  -16.212573   11.602967   21.524209
  28 H     1.0000    0     1.008  -15.856613   18.009963   21.747299
  29 H     1.0000    0     1.008   -8.419789   18.657780   20.346632
  30 H     1.0000    0     1.008   -7.842904   14.516968   21.699036
  31 H     1.0000    0     1.008   -4.237616   16.417435   23.489777
  32 H     1.0000    0     1.008   -1.944745   18.506026   27.095827
  33 H     1.0000    0     1.008   -4.608754   19.545966   31.134759
  34 H     1.0000    0     1.008  -11.169233   18.794708   31.178807
  35 H     1.0000    0     1.008  -11.286125   17.243722   27.440694

--------------------------------
INTERNAL COORDINATES (ANGSTROEM)
--------------------------------
 C      0   0   0     0.000000000000     0.00000000     0.00000000
 C      1   0   0     1.566821842806     0.00000000     0.00000000
 O      2   1   0     1.462255019327   103.32307556     0.00000000
 C      3   2   1     1.290624874868   119.19089635   167.86641559
 O      4   3   2     1.234834024844   122.34172328     4.39464026
 C      4   3   2     1.483555449557   112.34846732   168.50994567
 C      6   4   3     1.388527774011   126.80300981   357.68957194
 C      7   6   4     1.527846537083   125.92268288   355.16556166
 N      7   6   4     1.379524323814   118.68184485   182.02878506
 C      9   7   6     1.342767159307   124.03260451    19.97859036
 S     10   9   7     1.663840767619   121.68614416   177.76665377
 N     10   9   7     1.333064432106   117.22652192   347.71137099
 C     12  10   9     1.505399337040   123.79229296   345.95325189
 C     13  12  10     1.553083476836   110.50573432   261.08225120
 C     14  13  12     1.404320940793   114.28877952   271.45162846
 C     15  14  13     1.414583966961   120.10445441   179.01536224
 C     16  15  14     1.450378002725   116.88279234   358.85600866
 C     17  16  15     1.399736072084   121.12986046   358.06914015
 O     18  17  16     1.371840919120   121.08699258   181.79998878
 C     18  17  16     1.369945190497   119.65912560     1.81725504
 H      1   2   3     1.096900393003   109.93293766   306.27218511
 H      1   2   3     1.096900000073   112.11971993   175.45215631
 H      1   2   3     1.096898120801   110.40943887    58.44064431
 H      2   1   3     1.096900094746   117.50135791   114.78105258
 H      2   1   3     1.096899992259   109.45216652   244.93793015
 H      8   7   6     1.096903941537   110.72503656   180.09378270
 H      8   7   6     1.096900956272   110.19186836    68.04186806
 H      8   7   6     1.096899917343   114.78282261   304.06334024
 H      9   7   6     1.012900031535   120.57428025   183.18644070
 H     12  10   9     1.012900048797   122.04002811   177.62933656
 H     13  12  10     1.096899951433   103.25612170   139.78221241
 H     15  14  13     1.086000013592   121.21867576   353.32466310
 H     16  15  14     1.085999958482   122.12426560   186.33017026
 H     17  16  15     1.085999981404   124.52298453   184.40741831
 H     19  18  17     0.972999972131   107.15896609   176.57013283
 H     20  18  17     1.086003478777   120.04128933   181.46191774

---------------------------
INTERNAL COORDINATES (A.U.)
---------------------------
 C      0   0   0     0.000000000000     0.00000000     0.00000000
 C      1   0   0     2.960864183550     0.00000000     0.00000000
 O      2   1   0     2.763261524480   103.32307556     0.00000000
 C      3   2   1     2.438927555127   119.19089635   167.86641559
 O      4   3   2     2.333498127803   122.34172328     4.39464026
 C      4   3   2     2.803513504149   112.34846732   168.50994567
 C      6   4   3     2.623937222223   126.80300981   357.68957194
 C      7   6   4     2.887211529747   125.92268288   355.16556166
 N      7   6   4     2.606923167091   118.68184485   182.02878506
 C      9   7   6     2.537462192714   124.03260451    19.97859036
 S     10   9   7     3.144203381254   121.68614416   177.76665377
 N     10   9   7     2.519126695552   117.22652192   347.71137099
 C     12  10   9     2.844792469192   123.79229296   345.95325189
 C     13  12  10     2.934902434338   110.50573432   261.08225120
 C     14  13  12     2.653781982229   114.28877952   271.45162846
 C     15  14  13     2.673176290992   120.10445441   179.01536224
 C     16  15  14     2.740817215815   116.88279234   358.85600866
 C     17  16  15     2.645117836009   121.12986046   358.06914015
 O     18  17  16     2.592403636444   121.08699258   181.79998878
 C     18  17  16     2.588821228523   119.65912560     1.81725504
 H      1   2   3     2.072841338966   109.93293766   306.27218511
 H      1   2   3     2.072840596436   112.11971993   175.45215631
 H      1   2   3     2.072837045126   110.40943887    58.44064431
 H      2   1   3     2.072840775342   117.50135791   114.78105258
 H      2   1   3     2.072840581670   109.45216652   244.93793015
 H      8   7   6     2.072848044723   110.72503656   180.09378270
 H      8   7   6     2.072842403390   110.19186836    68.04186806
 H      8   7   6     2.072840440100   114.78282261   304.06334024
 H      9   7   6     1.914103660641   120.57428025   183.18644070
 H     12  10   9     1.914103693262   122.04002811   177.62933656
 H     13  12  10     2.072840504519   103.25612170   139.78221241
 H     15  14  13     2.052242607123   121.21867576   353.32466310
 H     16  15  14     2.052242502981   122.12426560   186.33017026
 H     17  16  15     2.052242546297   124.52298453   184.40741831
 H     19  18  17     1.838703475640   107.15896609   176.57013283
 H     20  18  17     2.052249155375   120.04128933   181.46191774

---------------------
BASIS SET INFORMATION
---------------------
There are 5 groups of distinct atoms

 Group   1 Type C   : 18s5p2d1f contracted to 4s3p2d1f pattern {8811/311/11/1}
 Group   2 Type O   : 18s5p2d1f contracted to 4s3p2d1f pattern {8811/311/11/1}
 Group   3 Type N   : 18s5p2d1f contracted to 4s3p2d1f pattern {8811/311/11/1}
 Group   4 Type S   : 41s16p2d1f contracted to 5s4p2d1f pattern {13131311/7711/11/1}
 Group   5 Type H   : 5s2p1d contracted to 3s2p1d pattern {311/11/1}

Atom   0C    basis set group =>   1
Atom   1C    basis set group =>   1
Atom   2O    basis set group =>   2
Atom   3C    basis set group =>   1
Atom   4O    basis set group =>   2
Atom   5C    basis set group =>   1
Atom   6C    basis set group =>   1
Atom   7C    basis set group =>   1
Atom   8N    basis set group =>   3
Atom   9C    basis set group =>   1
Atom  10S    basis set group =>   4
Atom  11N    basis set group =>   3
Atom  12C    basis set group =>   1
Atom  13C    basis set group =>   1
Atom  14C    basis set group =>   1
Atom  15C    basis set group =>   1
Atom  16C    basis set group =>   1
Atom  17C    basis set group =>   1
Atom  18O    basis set group =>   2
Atom  19C    basis set group =>   1
Atom  20H    basis set group =>   5
Atom  21H    basis set group =>   5
Atom  22H    basis set group =>   5
Atom  23H    basis set group =>   5
Atom  24H    basis set group =>   5
Atom  25H    basis set group =>   5
Atom  26H    basis set group =>   5
Atom  27H    basis set group =>   5
Atom  28H    basis set group =>   5
Atom  29H    basis set group =>   5
Atom  30H    basis set group =>   5
Atom  31H    basis set group =>   5
Atom  32H    basis set group =>   5
Atom  33H    basis set group =>   5
Atom  34H    basis set group =>   5
Atom  35H    basis set group =>   5
---------------------------------
AUXILIARY/C BASIS SET INFORMATION
---------------------------------
There are 5 groups of distinct atoms

 Group   1 Type C   : 8s6p5d3f1g contracted to 8s6p5d3f1g pattern {11111111/111111/11111/111/1}
 Group   2 Type O   : 8s6p5d3f1g contracted to 8s6p5d3f1g pattern {11111111/111111/11111/111/1}
 Group   3 Type N   : 8s6p5d3f1g contracted to 8s6p5d3f1g pattern {11111111/111111/11111/111/1}
 Group   4 Type S   : 10s8p7d5f2g contracted to 10s8p7d5f2g pattern {1111111111/11111111/1111111/11111/11}
 Group   5 Type H   : 4s3p2d1f contracted to 4s3p2d1f pattern {1111/111/11/1}

Atom   0C    basis set group =>   1
Atom   1C    basis set group =>   1
Atom   2O    basis set group =>   2
Atom   3C    basis set group =>   1
Atom   4O    basis set group =>   2
Atom   5C    basis set group =>   1
Atom   6C    basis set group =>   1
Atom   7C    basis set group =>   1
Atom   8N    basis set group =>   3
Atom   9C    basis set group =>   1
Atom  10S    basis set group =>   4
Atom  11N    basis set group =>   3
Atom  12C    basis set group =>   1
Atom  13C    basis set group =>   1
Atom  14C    basis set group =>   1
Atom  15C    basis set group =>   1
Atom  16C    basis set group =>   1
Atom  17C    basis set group =>   1
Atom  18O    basis set group =>   2
Atom  19C    basis set group =>   1
Atom  20H    basis set group =>   5
Atom  21H    basis set group =>   5
Atom  22H    basis set group =>   5
Atom  23H    basis set group =>   5
Atom  24H    basis set group =>   5
Atom  25H    basis set group =>   5
Atom  26H    basis set group =>   5
Atom  27H    basis set group =>   5
Atom  28H    basis set group =>   5
Atom  29H    basis set group =>   5
Atom  30H    basis set group =>   5
Atom  31H    basis set group =>   5
Atom  32H    basis set group =>   5
Atom  33H    basis set group =>   5
Atom  34H    basis set group =>   5
Atom  35H    basis set group =>   5
------------------------------------------------------------------------------
                           ORCA GTO INTEGRAL CALCULATION
------------------------------------------------------------------------------
------------------------------------------------------------------------------
                   ___                                                        
                  /   \      - P O W E R E D   B Y -                         
                 /     \                                                     
                 |  |  |   _    _      __       _____    __    __             
                 |  |  |  | |  | |    /  \     |  _  \  |  |  /  |          
                  \  \/   | |  | |   /    \    | | | |  |  | /  /          
                 / \  \   | |__| |  /  /\  \   | |_| |  |  |/  /          
                |  |  |   |  __  | /  /__\  \  |    /   |      \           
                |  |  |   | |  | | |   __   |  |    \   |  |\   \          
                \     /   | |  | | |  |  |  |  | |\  \  |  | \   \       
                 \___/    |_|  |_| |__|  |__|  |_| \__\ |__|  \__/        
                                                                              
                      - O R C A' S   B I G   F R I E N D -                    
                                      &                                       
                       - I N T E G R A L  F E E D E R -                       
                                                                              
 v1 FN, 2020, v2 2021                                                         
------------------------------------------------------------------------------


Reading SHARK input file qm_input.solv.SHARKINP.tmp ... ok
----------------------
SHARK INTEGRAL PACKAGE
----------------------

Number of atoms                             ...     36
Number of basis functions                   ...    828
Number of shells                            ...    298
Maximum angular momentum                    ...      3
Integral batch strategy                     ... SHARK/LIBINT Hybrid
RI-J (if used) integral strategy            ... SPLIT-RIJ (Revised 2003 algorithm where possible)
Printlevel                                  ...      1
Contraction scheme used                     ... SEGMENTED contraction
Coulomb Range Separation                    ... NOT USED
Exchange Range Separation                   ... NOT USED
Finite Nucleus Model                        ... NOT USED
Auxiliary Coulomb fitting basis             ... NOT available
Auxiliary J/K fitting basis                 ... NOT available
Auxiliary Correlation fitting basis         ... AVAILABLE
   # of basis functions in Aux-C            ...   2141
   # of shells in Aux-C                     ...    629
   Maximum angular momentum in Aux-C        ...      4
Auxiliary 'external' fitting basis          ... NOT available
Integral threshold                          ...     2.500000e-11
Primitive cut-off                           ...     2.500000e-12
Primitive pair pre-selection threshold      ...     2.500000e-12

Calculating pre-screening integrals         ... done (  0.5 sec) Dimension = 298
Organizing shell pair data                  ... done (  0.4 sec)
Shell pair information
Total number of shell pairs                 ...     44551
Shell pairs after pre-screening             ...     31956
Total number of primitive shell pairs       ...    234348
Primitive shell pairs kept                  ...     92658
          la=0 lb=0:   6396 shell pairs
          la=1 lb=0:   8907 shell pairs
          la=1 lb=1:   3162 shell pairs
          la=2 lb=0:   5081 shell pairs
          la=2 lb=1:   3489 shell pairs
          la=2 lb=2:    983 shell pairs
          la=3 lb=0:   1836 shell pairs
          la=3 lb=1:   1257 shell pairs
          la=3 lb=2:    705 shell pairs
          la=3 lb=3:    140 shell pairs

Reading point charge file                   ... ok (45209 point charges)
Calculating one electron integrals          ... done (221.4 sec)
Calculating RI/C V-Matrix + Cholesky decomp.... done (  0.4 sec)
Calculating Nuclear repulsion               ... (+Point charges) done (  0.0 sec) ENN=   1661.410920117793 Eh

SHARK setup successfully completed in 223.3 seconds

Maximum memory used throughout the entire GTOINT-calculation: 473.8 MB
ENUC WAS=  0.000000000
ENUC IS =  0.000000000
-------------------------------------------------------------------------------
                                 ORCA SCF
-------------------------------------------------------------------------------

------------
SCF SETTINGS
------------
Hamiltonian:
 Ab initio Hamiltonian  Method          .... Hartree-Fock(GTOs)


General Settings:
 Integral files         IntName         .... qm_input.solv
 Hartree-Fock type      HFTyp           .... RHF
 Total Charge           Charge          ....    0
 Multiplicity           Mult            ....    1
 Number of Electrons    NEL             ....  154
 Basis Dimension        Dim             ....  828
 Nuclear Repulsion      ENuc            ....   1661.4109201178 Eh

Convergence Acceleration:
 DIIS                   CNVDIIS         .... on
   Start iteration      DIISMaxIt       ....    12
   Startup error        DIISStart       ....  0.200000
   # of expansion vecs  DIISMaxEq       ....     5
   Bias factor          DIISBfac        ....   1.050
   Max. coefficient     DIISMaxC        ....  10.000
 Trust-Rad. Augm. Hess. CNVTRAH         .... auto
   Auto Start mean grad. ratio tolernc. ....  1.125000
   Auto Start start iteration           ....    20
   Auto Start num. interpolation iter.  ....    10
   Max. Number of Micro iterations      ....    16
   Max. Number of Macro iterations      .... Maxiter - #DIIS iter
   Number of Davidson start vectors     ....     2
   Converg. threshold I  (grad. norm)   ....   1.000e-05
   Converg. threshold II (energy diff.) ....   1.000e-08
   Grad. Scal. Fac. for Micro threshold ....   0.100
   Minimum threshold for Micro iter.    ....   0.010
   NR start threshold (gradient norm)   ....   0.001
   Initial trust radius                 ....   0.400
   Minimum AH scaling param. (alpha)    ....   1.000
   Maximum AH scaling param. (alpha)    .... 1000.000
   Orbital update algorithm             .... Taylor
   White noise on init. David. guess    .... on
   Maximum white noise                  ....   0.010
   Quad. conv. algorithm                .... NR
 SOSCF                  CNVSOSCF        .... on
   Start iteration      SOSCFMaxIt      ....   150
   Startup grad/error   SOSCFStart      ....  0.003300
 Level Shifting         CNVShift        .... on
   Level shift para.    LevelShift      ....    0.2500
   Turn off err/grad.   ShiftErr        ....    0.0010
 Zerner damping         CNVZerner       .... off
 Static damping         CNVDamp         .... on
   Fraction old density DampFac         ....    0.7000
   Max. Damping (<1)    DampMax         ....    0.9800
   Min. Damping (>=0)   DampMin         ....    0.0000
   Turn off err/grad.   DampErr         ....    0.1000
 Fernandez-Rico         CNVRico         .... off

SCF Procedure:
 Maximum # iterations   MaxIter         ....   125
 SCF integral mode      SCFMode         .... Direct
   Integral package                     .... SHARK and LIBINT hybrid scheme
 Reset frequency        DirectResetFreq ....    20
 Integral Threshold     Thresh          ....  2.500e-11 Eh
 Primitive CutOff       TCut            ....  2.500e-12 Eh

Convergence Tolerance:
 Convergence Check Mode ConvCheckMode   .... Total+1el-Energy
 Convergence forced     ConvForced      .... 1
 Energy Change          TolE            ....  1.000e-08 Eh
 1-El. energy change                    ....  1.000e-05 Eh
 Orbital Gradient       TolG            ....  1.000e-05
 Orbital Rotation angle TolX            ....  1.000e-05
 DIIS Error             TolErr          ....  5.000e-07


Diagonalization of the overlap matrix:
Smallest eigenvalue                        ... 4.053e-05
Time for diagonalization                   ...    0.126 sec
Threshold for overlap eigenvalues          ... 1.000e-08
Number of eigenvalues below threshold      ... 0
Time for construction of square roots      ...    0.101 sec
Total time needed                          ...    0.230 sec

Time for model grid setup =    1.463 sec

------------------------------
INITIAL GUESS: MODEL POTENTIAL
------------------------------
Loading Hartree-Fock densities                     ... done
Calculating cut-offs                               ... done
Initializing the effective Hamiltonian             ... done
Setting up the integral package (SHARK)            ... done
Starting the Coulomb interaction                   ... done (   4.0 sec)
Reading the grid                                   ... done
Mapping shells                                     ... done
Starting the XC term evaluation                    ... done (   1.4 sec)
Transforming the Hamiltonian                       ... done (   0.0 sec)
Diagonalizing the Hamiltonian                      ... done (   0.1 sec)
Back transforming the eigenvectors                 ... done (   0.0 sec)
Now organizing SCF variables                       ... done
                      ------------------
                      INITIAL GUESS DONE (   7.0 sec)
                      ------------------
--------------
SCF ITERATIONS
--------------
ITER       Energy         Delta-E        Max-DP      RMS-DP      [F,P]     Damp
               ***  Starting incremental Fock matrix formation  ***
  0  -1270.0837971751   0.000000000000 0.07378398  0.00050906  0.3943875 0.7000
  1  -1270.3765019510  -0.292704775942 0.06849345  0.00042011  0.2285680 0.7000
                               ***Turning on DIIS***
  2  -1270.5577225105  -0.181220559455 0.03960434  0.00027340  0.1203581 0.7000
  3  -1272.5469290561  -1.989206545605 0.06467510  0.00055122  0.0848381 0.0000
  4  -1270.9118205306   1.635108525485 0.02122096  0.00011744  0.0092983 0.0000
  5  -1270.9506814450  -0.038860914439 0.00592978  0.00005780  0.0048740 0.0000
  6  -1270.9311570854   0.019524359621 0.00329336  0.00002828  0.0038944 0.0000
                      *** Initiating the SOSCF procedure ***
                           *** Shutting down DIIS ***
                      *** Re-Reading the Fockian *** 
                      *** Removing any level shift *** 
ITER      Energy       Delta-E        Grad      Rot      Max-DP    RMS-DP
  7  -1270.94921146  -0.0180543712  0.001314  0.001314  0.001896  0.000015
               *** Restarting incremental Fock matrix formation ***
  8  -1270.95000395  -0.0007924904  0.000582  0.001198  0.000803  0.000008
  9  -1270.95001651  -0.0000125636  0.000242  0.001196  0.000782  0.000009
 10  -1270.95002096  -0.0000044508  0.000063  0.000128  0.000162  0.000002
 11  -1270.95002140  -0.0000004389  0.000030  0.000073  0.000069  0.000001
 12  -1270.95002147  -0.0000000700  0.000013  0.000054  0.000024  0.000000
 13  -1270.95002148  -0.0000000131  0.000007  0.000040  0.000015  0.000000
                  ***Gradient check signals convergence***
              ***Rediagonalizing the Fockian in SOSCF/NRSCF***

               *****************************************************
               *                     SUCCESS                       *
               *           SCF CONVERGED AFTER  14 CYCLES          *
               *****************************************************


----------------
TOTAL SCF ENERGY
----------------

Total Energy       :        -1270.95002149 Eh          -34584.30832 eV

Components:
Nuclear Repulsion  :         1661.41092012 Eh           45209.28953 eV
Electronic Energy  :        -2932.36094160 Eh          -79793.59785 eV
One Electron Energy:        -5063.93074917 Eh         -137796.56113 eV
Two Electron Energy:         2131.56980757 Eh           58002.96328 eV

Virial components:
Potential Energy   :        -2540.06692163 Eh          -69118.73487 eV
Kinetic Energy     :         1269.11690014 Eh           34534.42655 eV
Virial Ratio       :            2.00144441


---------------
SCF CONVERGENCE
---------------

  Last Energy change         ...   -2.9945e-09  Tolerance :   1.0000e-08
  Last MAX-Density change    ...    4.3957e-06  Tolerance :   1.0000e-07
  Last RMS-Density change    ...    3.8075e-08  Tolerance :   5.0000e-09
  Last Orbital Gradient      ...    1.9136e-06  Tolerance :   1.0000e-05
  Last Orbital Rotation      ...    6.3172e-06  Tolerance :   1.0000e-05

             **** THE GBW FILE WAS UPDATED (qm_input.solv.gbw) ****
             **** DENSITY qm_input.solv.scfp WAS UPDATED ****
             **** ENERGY FILE WAS UPDATED (qm_input.solv.en.tmp) ****
             **** THE GBW FILE WAS UPDATED (qm_input.solv.gbw) ****
             **** DENSITY qm_input.solv.scfp WAS UPDATED ****
----------------
ORBITAL ENERGIES
----------------

  NO   OCC          E(Eh)            E(eV) 
   0   2.0000     -91.791667     -2497.7782 
   1   2.0000     -20.474667      -557.1440 
   2   2.0000     -20.456748      -556.6564 
   3   2.0000     -20.421666      -555.7018 
   4   2.0000     -15.500317      -421.7851 
   5   2.0000     -15.483135      -421.3175 
   6   2.0000     -11.268659      -306.6358 
   7   2.0000     -11.268164      -306.6223 
   8   2.0000     -11.206454      -304.9431 
   9   2.0000     -11.174795      -304.0816 
  10   2.0000     -11.172599      -304.0219 
  11   2.0000     -11.163806      -303.7826 
  12   2.0000     -11.125833      -302.7493 
  13   2.0000     -11.125648      -302.7443 
  14   2.0000     -11.122454      -302.6574 
  15   2.0000     -11.111369      -302.3557 
  16   2.0000     -11.105899      -302.2069 
  17   2.0000     -11.105706      -302.2016 
  18   2.0000     -11.103185      -302.1330 
  19   2.0000     -11.088444      -301.7319 
  20   2.0000      -8.798514      -239.4197 
  21   2.0000      -6.480568      -176.3452 
  22   2.0000      -6.478497      -176.2889 
  23   2.0000      -6.478154      -176.2795 
  24   2.0000      -1.350434       -36.7472 
  25   2.0000      -1.271301       -34.5939 
  26   2.0000      -1.232554       -33.5395 
  27   2.0000      -1.228589       -33.4316 
  28   2.0000      -1.113106       -30.2892 
  29   2.0000      -1.027367       -27.9561 
  30   2.0000      -0.989846       -26.9351 
  31   2.0000      -0.909578       -24.7509 
  32   2.0000      -0.900633       -24.5075 
  33   2.0000      -0.884798       -24.0766 
  34   2.0000      -0.864178       -23.5155 
  35   2.0000      -0.859760       -23.3953 
  36   2.0000      -0.790023       -21.4976 
  37   2.0000      -0.757279       -20.6066 
  38   2.0000      -0.729914       -19.8620 
  39   2.0000      -0.711908       -19.3720 
  40   2.0000      -0.693108       -18.8604 
  41   2.0000      -0.678612       -18.4660 
  42   2.0000      -0.637745       -17.3539 
  43   2.0000      -0.614687       -16.7265 
  44   2.0000      -0.599464       -16.3122 
  45   2.0000      -0.564070       -15.3491 
  46   2.0000      -0.561279       -15.2732 
  47   2.0000      -0.559113       -15.2142 
  48   2.0000      -0.543526       -14.7901 
  49   2.0000      -0.531740       -14.4694 
  50   2.0000      -0.526622       -14.3301 
  51   2.0000      -0.507732       -13.8161 
  52   2.0000      -0.492797       -13.4097 
  53   2.0000      -0.475021       -12.9260 
  54   2.0000      -0.464075       -12.6281 
  55   2.0000      -0.462898       -12.5961 
  56   2.0000      -0.458021       -12.4634 
  57   2.0000      -0.445852       -12.1322 
  58   2.0000      -0.437188       -11.8965 
  59   2.0000      -0.431876       -11.7520 
  60   2.0000      -0.422564       -11.4986 
  61   2.0000      -0.416993       -11.3470 
  62   2.0000      -0.398962       -10.8563 
  63   2.0000      -0.391839       -10.6625 
  64   2.0000      -0.387230       -10.5371 
  65   2.0000      -0.375525       -10.2185 
  66   2.0000      -0.367944       -10.0123 
  67   2.0000      -0.364555        -9.9200 
  68   2.0000      -0.354963        -9.6590 
  69   2.0000      -0.344232        -9.3670 
  70   2.0000      -0.332869        -9.0578 
  71   2.0000      -0.329242        -8.9591 
  72   2.0000      -0.244821        -6.6619 
  73   2.0000      -0.235356        -6.4044 
  74   2.0000      -0.217722        -5.9245 
  75   2.0000      -0.204294        -5.5591 
  76   2.0000      -0.192790        -5.2461 
  77   0.0000       0.196707         5.3527 
  78   0.0000       0.239282         6.5112 
  79   0.0000       0.266624         7.2552 
  80   0.0000       0.277539         7.5522 
  81   0.0000       0.281377         7.6567 
  82   0.0000       0.299199         8.1416 
  83   0.0000       0.307791         8.3754 
  84   0.0000       0.309492         8.4217 
  85   0.0000       0.319157         8.6847 
  86   0.0000       0.327239         8.9046 
  87   0.0000       0.330669         8.9979 
  88   0.0000       0.341019         9.2796 
  89   0.0000       0.348971         9.4960 
  90   0.0000       0.351660         9.5692 
  91   0.0000       0.357122         9.7178 
  92   0.0000       0.362975         9.8771 
  93   0.0000       0.374197        10.1824 
  94   0.0000       0.382272        10.4021 
  95   0.0000       0.389910        10.6100 
  96   0.0000       0.395708        10.7678 
  97   0.0000       0.401270        10.9191 
  98   0.0000       0.406347        11.0573 
  99   0.0000       0.423996        11.5375 
 100   0.0000       0.426978        11.6187 
 101   0.0000       0.446134        12.1399 
 102   0.0000       0.458961        12.4890 
 103   0.0000       0.463918        12.6238 
 104   0.0000       0.465140        12.6571 
 105   0.0000       0.472875        12.8676 
 106   0.0000       0.479505        13.0480 
 107   0.0000       0.485190        13.2027 
 108   0.0000       0.493862        13.4387 
 109   0.0000       0.501156        13.6372 
 110   0.0000       0.515926        14.0391 
 111   0.0000       0.520905        14.1745 
 112   0.0000       0.525258        14.2930 
 113   0.0000       0.526446        14.3253 
 114   0.0000       0.533051        14.5051 
 115   0.0000       0.540268        14.7014 
 116   0.0000       0.543910        14.8006 
 117   0.0000       0.549956        14.9651 
 118   0.0000       0.556758        15.1502 
 119   0.0000       0.558182        15.1889 
 120   0.0000       0.572028        15.5657 
 121   0.0000       0.573518        15.6062 
 122   0.0000       0.581718        15.8294 
 123   0.0000       0.582379        15.8473 
 124   0.0000       0.594337        16.1727 
 125   0.0000       0.600574        16.3425 
 126   0.0000       0.603213        16.4143 
 127   0.0000       0.609861        16.5952 
 128   0.0000       0.620150        16.8751 
 129   0.0000       0.623234        16.9591 
 130   0.0000       0.624191        16.9851 
 131   0.0000       0.636498        17.3200 
 132   0.0000       0.640912        17.4401 
 133   0.0000       0.651419        17.7260 
 134   0.0000       0.654194        17.8015 
 135   0.0000       0.661853        18.0099 
 136   0.0000       0.668439        18.1891 
 137   0.0000       0.668969        18.2036 
 138   0.0000       0.673567        18.3287 
 139   0.0000       0.679313        18.4850 
 140   0.0000       0.693767        18.8784 
 141   0.0000       0.696464        18.9517 
 142   0.0000       0.698953        19.0195 
 143   0.0000       0.707017        19.2389 
 144   0.0000       0.710007        19.3203 
 145   0.0000       0.714487        19.4422 
 146   0.0000       0.724444        19.7131 
 147   0.0000       0.725907        19.7529 
 148   0.0000       0.729519        19.8512 
 149   0.0000       0.731381        19.9019 
 150   0.0000       0.736096        20.0302 
 151   0.0000       0.740780        20.1576 
 152   0.0000       0.747283        20.3346 
 153   0.0000       0.749646        20.3989 
 154   0.0000       0.752003        20.4630 
 155   0.0000       0.759675        20.6718 
 156   0.0000       0.766287        20.8517 
 157   0.0000       0.772723        21.0269 
 158   0.0000       0.779406        21.2087 
 159   0.0000       0.781873        21.2759 
 160   0.0000       0.785572        21.3765 
 161   0.0000       0.791150        21.5283 
 162   0.0000       0.794821        21.6282 
 163   0.0000       0.796742        21.6805 
 164   0.0000       0.799650        21.7596 
 165   0.0000       0.810698        22.0602 
 166   0.0000       0.814832        22.1727 
 167   0.0000       0.820829        22.3359 
 168   0.0000       0.822239        22.3743 
 169   0.0000       0.825357        22.4591 
 170   0.0000       0.829865        22.5818 
 171   0.0000       0.837558        22.7911 
 172   0.0000       0.847550        23.0630 
 173   0.0000       0.850284        23.1374 
 174   0.0000       0.856378        23.3032 
 175   0.0000       0.867969        23.6186 
 176   0.0000       0.871813        23.7233 
 177   0.0000       0.876060        23.8388 
 178   0.0000       0.882350        24.0100 
 179   0.0000       0.888541        24.1784 
 180   0.0000       0.899871        24.4867 
 181   0.0000       0.914802        24.8930 
 182   0.0000       0.918651        24.9978 
 183   0.0000       0.921117        25.0649 
 184   0.0000       0.930967        25.3329 
 185   0.0000       0.939403        25.5625 
 186   0.0000       0.943834        25.6830 
 187   0.0000       0.955335        25.9960 
 188   0.0000       0.963622        26.2215 
 189   0.0000       0.967577        26.3291 
 190   0.0000       0.983381        26.7591 
 191   0.0000       0.986241        26.8370 
 192   0.0000       0.993385        27.0314 
 193   0.0000       1.002807        27.2878 
 194   0.0000       1.007453        27.4142 
 195   0.0000       1.015978        27.6462 
 196   0.0000       1.019066        27.7302 
 197   0.0000       1.020994        27.7827 
 198   0.0000       1.027151        27.9502 
 199   0.0000       1.029200        28.0060 
 200   0.0000       1.043859        28.4049 
 201   0.0000       1.048092        28.5200 
 202   0.0000       1.056020        28.7358 
 203   0.0000       1.062268        28.9058 
 204   0.0000       1.063666        28.9438 
 205   0.0000       1.072788        29.1920 
 206   0.0000       1.079884        29.3851 
 207   0.0000       1.086239        29.5581 
 208   0.0000       1.098871        29.9018 
 209   0.0000       1.107946        30.1488 
 210   0.0000       1.109171        30.1821 
 211   0.0000       1.117367        30.4051 
 212   0.0000       1.120793        30.4983 
 213   0.0000       1.131641        30.7935 
 214   0.0000       1.135202        30.8904 
 215   0.0000       1.141110        31.0512 
 216   0.0000       1.150320        31.3018 
 217   0.0000       1.158103        31.5136 
 218   0.0000       1.164548        31.6890 
 219   0.0000       1.170309        31.8457 
 220   0.0000       1.179797        32.1039 
 221   0.0000       1.194892        32.5147 
 222   0.0000       1.200846        32.6767 
 223   0.0000       1.208185        32.8764 
 224   0.0000       1.214218        33.0406 
 225   0.0000       1.227501        33.4020 
 226   0.0000       1.232283        33.5321 
 227   0.0000       1.242043        33.7977 
 228   0.0000       1.245441        33.8902 
 229   0.0000       1.248917        33.9848 
 230   0.0000       1.258408        34.2430 
 231   0.0000       1.258754        34.2524 
 232   0.0000       1.268293        34.5120 
 233   0.0000       1.272470        34.6257 
 234   0.0000       1.285726        34.9864 
 235   0.0000       1.291540        35.1446 
 236   0.0000       1.297555        35.3083 
 237   0.0000       1.311164        35.6786 
 238   0.0000       1.314004        35.7559 
 239   0.0000       1.318798        35.8863 
 240   0.0000       1.323769        36.0216 
 241   0.0000       1.330849        36.2142 
 242   0.0000       1.335365        36.3371 
 243   0.0000       1.338628        36.4259 
 244   0.0000       1.342847        36.5407 
 245   0.0000       1.362788        37.0833 
 246   0.0000       1.365168        37.1481 
 247   0.0000       1.375282        37.4233 
 248   0.0000       1.380159        37.5560 
 249   0.0000       1.390054        37.8253 
 250   0.0000       1.400464        38.1086 
 251   0.0000       1.406616        38.2760 
 252   0.0000       1.411526        38.4096 
 253   0.0000       1.420537        38.6548 
 254   0.0000       1.430727        38.9321 
 255   0.0000       1.439092        39.1597 
 256   0.0000       1.442752        39.2593 
 257   0.0000       1.447874        39.3987 
 258   0.0000       1.458744        39.6944 
 259   0.0000       1.459466        39.7141 
 260   0.0000       1.468344        39.9557 
 261   0.0000       1.478747        40.2387 
 262   0.0000       1.483809        40.3765 
 263   0.0000       1.493069        40.6285 
 264   0.0000       1.497304        40.7437 
 265   0.0000       1.514442        41.2101 
 266   0.0000       1.522759        41.4364 
 267   0.0000       1.527444        41.5639 
 268   0.0000       1.540801        41.9273 
 269   0.0000       1.543856        42.0104 
 270   0.0000       1.554252        42.2934 
 271   0.0000       1.557059        42.3697 
 272   0.0000       1.564136        42.5623 
 273   0.0000       1.575304        42.8662 
 274   0.0000       1.596499        43.4429 
 275   0.0000       1.604494        43.6605 
 276   0.0000       1.616024        43.9743 
 277   0.0000       1.620426        44.0940 
 278   0.0000       1.630766        44.3754 
 279   0.0000       1.633002        44.4362 
 280   0.0000       1.636064        44.5196 
 281   0.0000       1.644917        44.7605 
 282   0.0000       1.647825        44.8396 
 283   0.0000       1.649967        44.8979 
 284   0.0000       1.658371        45.1266 
 285   0.0000       1.670280        45.4506 
 286   0.0000       1.673113        45.5277 
 287   0.0000       1.674461        45.5644 
 288   0.0000       1.685516        45.8652 
 289   0.0000       1.694446        46.1082 
 290   0.0000       1.697678        46.1962 
 291   0.0000       1.706691        46.4414 
 292   0.0000       1.713834        46.6358 
 293   0.0000       1.724326        46.9213 
 294   0.0000       1.726325        46.9757 
 295   0.0000       1.729656        47.0663 
 296   0.0000       1.745741        47.5040 
 297   0.0000       1.752300        47.6825 
 298   0.0000       1.754535        47.7433 
 299   0.0000       1.759014        47.8652 
 300   0.0000       1.761649        47.9369 
 301   0.0000       1.773882        48.2698 
 302   0.0000       1.785308        48.5807 
 303   0.0000       1.787006        48.6269 
 304   0.0000       1.792445        48.7749 
 305   0.0000       1.803980        49.0888 
 306   0.0000       1.810599        49.2689 
 307   0.0000       1.829488        49.7829 
 308   0.0000       1.832723        49.8709 
 309   0.0000       1.841955        50.1221 
 310   0.0000       1.849539        50.3285 
 311   0.0000       1.855054        50.4786 
 312   0.0000       1.861662        50.6584 
 313   0.0000       1.878196        51.1083 
 314   0.0000       1.883128        51.2425 
 315   0.0000       1.895891        51.5898 
 316   0.0000       1.904002        51.8105 
 317   0.0000       1.915827        52.1323 
 318   0.0000       1.918076        52.1935 
 319   0.0000       1.930464        52.5306 
 320   0.0000       1.948114        53.0109 
 321   0.0000       1.954207        53.1767 
 322   0.0000       1.956967        53.2518 
 323   0.0000       1.971400        53.6445 
 324   0.0000       1.988900        54.1207 
 325   0.0000       1.998507        54.3821 
 326   0.0000       2.005363        54.5687 
 327   0.0000       2.015037        54.8319 
 328   0.0000       2.031222        55.2724 
 329   0.0000       2.036214        55.4082 
 330   0.0000       2.040400        55.5221 
 331   0.0000       2.055663        55.9374 
 332   0.0000       2.062251        56.1167 
 333   0.0000       2.075964        56.4898 
 334   0.0000       2.088183        56.8224 
 335   0.0000       2.090547        56.8867 
 336   0.0000       2.104254        57.2597 
 337   0.0000       2.107866        57.3579 
 338   0.0000       2.114812        57.5470 
 339   0.0000       2.128917        57.9308 
 340   0.0000       2.152355        58.5685 
 341   0.0000       2.164258        58.8925 
 342   0.0000       2.175088        59.1872 
 343   0.0000       2.187618        59.5281 
 344   0.0000       2.212799        60.2133 
 345   0.0000       2.227699        60.6188 
 346   0.0000       2.247985        61.1708 
 347   0.0000       2.252490        61.2934 
 348   0.0000       2.270014        61.7702 
 349   0.0000       2.280197        62.0473 
 350   0.0000       2.295107        62.4530 
 351   0.0000       2.316027        63.0223 
 352   0.0000       2.325616        63.2832 
 353   0.0000       2.332382        63.4673 
 354   0.0000       2.345212        63.8165 
 355   0.0000       2.365307        64.3633 
 356   0.0000       2.377049        64.6828 
 357   0.0000       2.381917        64.8152 
 358   0.0000       2.394096        65.1467 
 359   0.0000       2.412408        65.6450 
 360   0.0000       2.430732        66.1436 
 361   0.0000       2.433871        66.2290 
 362   0.0000       2.451218        66.7010 
 363   0.0000       2.464493        67.0623 
 364   0.0000       2.469810        67.2069 
 365   0.0000       2.480443        67.4963 
 366   0.0000       2.491025        67.7842 
 367   0.0000       2.508003        68.2462 
 368   0.0000       2.525091        68.7112 
 369   0.0000       2.532350        68.9087 
 370   0.0000       2.555753        69.5456 
 371   0.0000       2.580675        70.2237 
 372   0.0000       2.605663        70.9037 
 373   0.0000       2.612747        71.0964 
 374   0.0000       2.619313        71.2751 
 375   0.0000       2.634648        71.6924 
 376   0.0000       2.643039        71.9208 
 377   0.0000       2.647556        72.0437 
 378   0.0000       2.659686        72.3737 
 379   0.0000       2.671621        72.6985 
 380   0.0000       2.689979        73.1981 
 381   0.0000       2.699359        73.4533 
 382   0.0000       2.712717        73.8168 
 383   0.0000       2.719160        73.9921 
 384   0.0000       2.734746        74.4162 
 385   0.0000       2.748202        74.7824 
 386   0.0000       2.751029        74.8593 
 387   0.0000       2.775798        75.5333 
 388   0.0000       2.781230        75.6811 
 389   0.0000       2.800926        76.2171 
 390   0.0000       2.822483        76.8037 
 391   0.0000       2.825826        76.8946 
 392   0.0000       2.837670        77.2169 
 393   0.0000       2.841685        77.3262 
 394   0.0000       2.846838        77.4664 
 395   0.0000       2.858820        77.7925 
 396   0.0000       2.871107        78.1268 
 397   0.0000       2.877192        78.2924 
 398   0.0000       2.881057        78.3975 
 399   0.0000       2.896456        78.8166 
 400   0.0000       2.906704        79.0954 
 401   0.0000       2.918434        79.4146 
 402   0.0000       2.929034        79.7031 
 403   0.0000       2.931328        79.7655 
 404   0.0000       2.945068        80.1394 
 405   0.0000       2.952681        80.3465 
 406   0.0000       2.961315        80.5815 
 407   0.0000       2.970243        80.8244 
 408   0.0000       2.986431        81.2649 
 409   0.0000       2.991863        81.4127 
 410   0.0000       3.002235        81.6950 
 411   0.0000       3.005660        81.7882 
 412   0.0000       3.015032        82.0432 
 413   0.0000       3.020714        82.1978 
 414   0.0000       3.029654        82.4411 
 415   0.0000       3.038738        82.6883 
 416   0.0000       3.045260        82.8658 
 417   0.0000       3.050006        82.9949 
 418   0.0000       3.071185        83.5712 
 419   0.0000       3.085154        83.9513 
 420   0.0000       3.099561        84.3433 
 421   0.0000       3.103437        84.4488 
 422   0.0000       3.110603        84.6438 
 423   0.0000       3.113919        84.7341 
 424   0.0000       3.124188        85.0135 
 425   0.0000       3.132575        85.2417 
 426   0.0000       3.140610        85.4603 
 427   0.0000       3.141861        85.4944 
 428   0.0000       3.151458        85.7555 
 429   0.0000       3.158850        85.9567 
 430   0.0000       3.178436        86.4896 
 431   0.0000       3.191062        86.8332 
 432   0.0000       3.196889        86.9918 
 433   0.0000       3.203631        87.1752 
 434   0.0000       3.216734        87.5318 
 435   0.0000       3.220778        87.6418 
 436   0.0000       3.223866        87.7258 
 437   0.0000       3.233739        87.9945 
 438   0.0000       3.236151        88.0601 
 439   0.0000       3.246440        88.3401 
 440   0.0000       3.254206        88.5514 
 441   0.0000       3.258352        88.6643 
 442   0.0000       3.268835        88.9495 
 443   0.0000       3.273213        89.0686 
 444   0.0000       3.279461        89.2387 
 445   0.0000       3.285890        89.4136 
 446   0.0000       3.294789        89.6558 
 447   0.0000       3.305580        89.9494 
 448   0.0000       3.311764        90.1177 
 449   0.0000       3.312734        90.1441 
 450   0.0000       3.326640        90.5225 
 451   0.0000       3.338967        90.8579 
 452   0.0000       3.342588        90.9565 
 453   0.0000       3.351764        91.2061 
 454   0.0000       3.354059        91.2686 
 455   0.0000       3.361376        91.4677 
 456   0.0000       3.367031        91.6216 
 457   0.0000       3.370915        91.7273 
 458   0.0000       3.384586        92.0993 
 459   0.0000       3.396272        92.4173 
 460   0.0000       3.402233        92.5795 
 461   0.0000       3.413975        92.8990 
 462   0.0000       3.414268        92.9070 
 463   0.0000       3.420296        93.0710 
 464   0.0000       3.428875        93.3044 
 465   0.0000       3.434116        93.4470 
 466   0.0000       3.436101        93.5011 
 467   0.0000       3.445536        93.7578 
 468   0.0000       3.452181        93.9386 
 469   0.0000       3.459479        94.1372 
 470   0.0000       3.460316        94.1600 
 471   0.0000       3.470634        94.4407 
 472   0.0000       3.474904        94.5569 
 473   0.0000       3.492459        95.0346 
 474   0.0000       3.494343        95.0859 
 475   0.0000       3.498180        95.1903 
 476   0.0000       3.506040        95.4042 
 477   0.0000       3.507469        95.4431 
 478   0.0000       3.515851        95.6712 
 479   0.0000       3.521940        95.8368 
 480   0.0000       3.525726        95.9399 
 481   0.0000       3.527708        95.9938 
 482   0.0000       3.534102        96.1678 
 483   0.0000       3.538371        96.2840 
 484   0.0000       3.546121        96.4949 
 485   0.0000       3.555613        96.7531 
 486   0.0000       3.562172        96.9316 
 487   0.0000       3.569322        97.1262 
 488   0.0000       3.572008        97.1993 
 489   0.0000       3.578484        97.3755 
 490   0.0000       3.582927        97.4964 
 491   0.0000       3.583749        97.5188 
 492   0.0000       3.591178        97.7209 
 493   0.0000       3.597109        97.8823 
 494   0.0000       3.606897        98.1487 
 495   0.0000       3.613776        98.3358 
 496   0.0000       3.617636        98.4409 
 497   0.0000       3.619064        98.4797 
 498   0.0000       3.627916        98.7206 
 499   0.0000       3.631316        98.8131 
 500   0.0000       3.647899        99.2644 
 501   0.0000       3.655954        99.4836 
 502   0.0000       3.660400        99.6045 
 503   0.0000       3.664290        99.7104 
 504   0.0000       3.678287       100.0913 
 505   0.0000       3.681498       100.1787 
 506   0.0000       3.690064       100.4117 
 507   0.0000       3.697453       100.6128 
 508   0.0000       3.705480       100.8312 
 509   0.0000       3.713022       101.0365 
 510   0.0000       3.720323       101.2351 
 511   0.0000       3.724355       101.3449 
 512   0.0000       3.733011       101.5804 
 513   0.0000       3.742936       101.8505 
 514   0.0000       3.747732       101.9810 
 515   0.0000       3.761505       102.3557 
 516   0.0000       3.768298       102.5406 
 517   0.0000       3.773745       102.6888 
 518   0.0000       3.774971       102.7222 
 519   0.0000       3.786632       103.0395 
 520   0.0000       3.788307       103.0851 
 521   0.0000       3.793595       103.2290 
 522   0.0000       3.798500       103.3624 
 523   0.0000       3.807230       103.6000 
 524   0.0000       3.812093       103.7323 
 525   0.0000       3.817668       103.8840 
 526   0.0000       3.820647       103.9651 
 527   0.0000       3.829954       104.2184 
 528   0.0000       3.834925       104.3536 
 529   0.0000       3.842797       104.5678 
 530   0.0000       3.850306       104.7721 
 531   0.0000       3.857894       104.9786 
 532   0.0000       3.864979       105.1714 
 533   0.0000       3.876487       105.4846 
 534   0.0000       3.880637       105.5975 
 535   0.0000       3.889142       105.8289 
 536   0.0000       3.891930       105.9048 
 537   0.0000       3.894320       105.9698 
 538   0.0000       3.902228       106.1850 
 539   0.0000       3.906666       106.3058 
 540   0.0000       3.924867       106.8011 
 541   0.0000       3.935975       107.1033 
 542   0.0000       3.939427       107.1972 
 543   0.0000       3.943625       107.3115 
 544   0.0000       3.948875       107.4544 
 545   0.0000       3.951899       107.5366 
 546   0.0000       3.957900       107.6999 
 547   0.0000       3.965416       107.9045 
 548   0.0000       3.973062       108.1125 
 549   0.0000       3.976764       108.2132 
 550   0.0000       3.987793       108.5134 
 551   0.0000       3.991151       108.6047 
 552   0.0000       3.995118       108.7127 
 553   0.0000       4.010008       109.1179 
 554   0.0000       4.021076       109.4190 
 555   0.0000       4.026424       109.5646 
 556   0.0000       4.037145       109.8563 
 557   0.0000       4.045641       110.0875 
 558   0.0000       4.055466       110.3548 
 559   0.0000       4.079592       111.0113 
 560   0.0000       4.082932       111.1022 
 561   0.0000       4.092310       111.3574 
 562   0.0000       4.100648       111.5843 
 563   0.0000       4.105326       111.7116 
 564   0.0000       4.106906       111.7546 
 565   0.0000       4.122824       112.1877 
 566   0.0000       4.126984       112.3010 
 567   0.0000       4.141479       112.6954 
 568   0.0000       4.149441       112.9120 
 569   0.0000       4.152202       112.9872 
 570   0.0000       4.156239       113.0970 
 571   0.0000       4.168822       113.4394 
 572   0.0000       4.179346       113.7258 
 573   0.0000       4.184347       113.8619 
 574   0.0000       4.187337       113.9432 
 575   0.0000       4.202226       114.3484 
 576   0.0000       4.214394       114.6795 
 577   0.0000       4.215287       114.7038 
 578   0.0000       4.231772       115.1524 
 579   0.0000       4.243411       115.4691 
 580   0.0000       4.244852       115.5083 
 581   0.0000       4.252163       115.7072 
 582   0.0000       4.257251       115.8457 
 583   0.0000       4.267991       116.1379 
 584   0.0000       4.274519       116.3156 
 585   0.0000       4.278229       116.4165 
 586   0.0000       4.289047       116.7109 
 587   0.0000       4.299959       117.0078 
 588   0.0000       4.303513       117.1046 
 589   0.0000       4.305432       117.1568 
 590   0.0000       4.310278       117.2886 
 591   0.0000       4.323676       117.6532 
 592   0.0000       4.332042       117.8809 
 593   0.0000       4.334027       117.9349 
 594   0.0000       4.336450       118.0008 
 595   0.0000       4.349227       118.3485 
 596   0.0000       4.351404       118.4077 
 597   0.0000       4.361109       118.6718 
 598   0.0000       4.368980       118.8860 
 599   0.0000       4.371618       118.9578 
 600   0.0000       4.389097       119.4334 
 601   0.0000       4.391480       119.4982 
 602   0.0000       4.401384       119.7677 
 603   0.0000       4.412727       120.0764 
 604   0.0000       4.420056       120.2758 
 605   0.0000       4.427693       120.4836 
 606   0.0000       4.434227       120.6614 
 607   0.0000       4.448353       121.0459 
 608   0.0000       4.457550       121.2961 
 609   0.0000       4.462916       121.4421 
 610   0.0000       4.477439       121.8373 
 611   0.0000       4.477956       121.8514 
 612   0.0000       4.480494       121.9204 
 613   0.0000       4.486500       122.0839 
 614   0.0000       4.494924       122.3131 
 615   0.0000       4.499925       122.4492 
 616   0.0000       4.513210       122.8107 
 617   0.0000       4.518004       122.9411 
 618   0.0000       4.526654       123.1765 
 619   0.0000       4.537496       123.4716 
 620   0.0000       4.542529       123.6085 
 621   0.0000       4.549652       123.8023 
 622   0.0000       4.556770       123.9960 
 623   0.0000       4.562595       124.1545 
 624   0.0000       4.575152       124.4962 
 625   0.0000       4.589729       124.8929 
 626   0.0000       4.598220       125.1239 
 627   0.0000       4.607987       125.3897 
 628   0.0000       4.610668       125.4626 
 629   0.0000       4.614029       125.5541 
 630   0.0000       4.627782       125.9283 
 631   0.0000       4.630264       125.9959 
 632   0.0000       4.637512       126.1931 
 633   0.0000       4.646125       126.4275 
 634   0.0000       4.648984       126.5053 
 635   0.0000       4.669264       127.0571 
 636   0.0000       4.674101       127.1887 
 637   0.0000       4.683860       127.4543 
 638   0.0000       4.690386       127.6319 
 639   0.0000       4.705293       128.0375 
 640   0.0000       4.705797       128.0512 
 641   0.0000       4.720540       128.4524 
 642   0.0000       4.723705       128.5386 
 643   0.0000       4.734318       128.8273 
 644   0.0000       4.739945       128.9805 
 645   0.0000       4.745582       129.1338 
 646   0.0000       4.758041       129.4729 
 647   0.0000       4.771300       129.8337 
 648   0.0000       4.777576       130.0045 
 649   0.0000       4.784515       130.1933 
 650   0.0000       4.787990       130.2878 
 651   0.0000       4.793019       130.4247 
 652   0.0000       4.802761       130.6898 
 653   0.0000       4.807596       130.8213 
 654   0.0000       4.823075       131.2425 
 655   0.0000       4.831142       131.4621 
 656   0.0000       4.837870       131.6451 
 657   0.0000       4.855907       132.1359 
 658   0.0000       4.875019       132.6560 
 659   0.0000       4.881466       132.8315 
 660   0.0000       4.888583       133.0251 
 661   0.0000       4.904495       133.4581 
 662   0.0000       4.920091       133.8825 
 663   0.0000       4.934037       134.2620 
 664   0.0000       4.947081       134.6169 
 665   0.0000       4.963352       135.0597 
 666   0.0000       4.972307       135.3033 
 667   0.0000       4.986130       135.6795 
 668   0.0000       5.021725       136.6481 
 669   0.0000       5.026147       136.7684 
 670   0.0000       5.042610       137.2164 
 671   0.0000       5.073644       138.0609 
 672   0.0000       5.097010       138.6967 
 673   0.0000       5.117150       139.2447 
 674   0.0000       5.128000       139.5400 
 675   0.0000       5.134245       139.7099 
 676   0.0000       5.137619       139.8017 
 677   0.0000       5.152692       140.2119 
 678   0.0000       5.178821       140.9229 
 679   0.0000       5.185307       141.0994 
 680   0.0000       5.188752       141.1931 
 681   0.0000       5.200604       141.5156 
 682   0.0000       5.209430       141.7558 
 683   0.0000       5.210760       141.7920 
 684   0.0000       5.219330       142.0252 
 685   0.0000       5.244060       142.6981 
 686   0.0000       5.251452       142.8993 
 687   0.0000       5.262427       143.1979 
 688   0.0000       5.276892       143.5915 
 689   0.0000       5.291006       143.9756 
 690   0.0000       5.298261       144.1730 
 691   0.0000       5.308848       144.4611 
 692   0.0000       5.325426       144.9122 
 693   0.0000       5.327796       144.9767 
 694   0.0000       5.337941       145.2528 
 695   0.0000       5.344347       145.4271 
 696   0.0000       5.353848       145.6856 
 697   0.0000       5.360825       145.8755 
 698   0.0000       5.407830       147.1545 
 699   0.0000       5.409060       147.1880 
 700   0.0000       5.414795       147.3441 
 701   0.0000       5.431333       147.7941 
 702   0.0000       5.437723       147.9680 
 703   0.0000       5.450611       148.3187 
 704   0.0000       5.463411       148.6670 
 705   0.0000       5.466123       148.7408 
 706   0.0000       5.481476       149.1585 
 707   0.0000       5.494985       149.5262 
 708   0.0000       5.513116       150.0195 
 709   0.0000       5.519301       150.1878 
 710   0.0000       5.531134       150.5098 
 711   0.0000       5.563656       151.3948 
 712   0.0000       5.572764       151.6426 
 713   0.0000       5.578232       151.7914 
 714   0.0000       5.591523       152.1531 
 715   0.0000       5.604458       152.5051 
 716   0.0000       5.619903       152.9253 
 717   0.0000       5.653908       153.8507 
 718   0.0000       5.660577       154.0321 
 719   0.0000       5.676521       154.4660 
 720   0.0000       5.686996       154.7510 
 721   0.0000       5.696003       154.9961 
 722   0.0000       5.701094       155.1346 
 723   0.0000       5.704619       155.2306 
 724   0.0000       5.711111       155.4072 
 725   0.0000       5.717996       155.5946 
 726   0.0000       5.733414       156.0141 
 727   0.0000       5.738240       156.1454 
 728   0.0000       5.760173       156.7423 
 729   0.0000       5.780785       157.3032 
 730   0.0000       5.783829       157.3860 
 731   0.0000       5.802386       157.8909 
 732   0.0000       5.816467       158.2741 
 733   0.0000       5.830588       158.6584 
 734   0.0000       5.855253       159.3295 
 735   0.0000       5.863097       159.5430 
 736   0.0000       5.875108       159.8698 
 737   0.0000       5.893581       160.3725 
 738   0.0000       5.900138       160.5509 
 739   0.0000       5.912452       160.8860 
 740   0.0000       5.924308       161.2086 
 741   0.0000       5.935431       161.5113 
 742   0.0000       5.937259       161.5610 
 743   0.0000       5.954766       162.0374 
 744   0.0000       5.959552       162.1676 
 745   0.0000       5.978641       162.6871 
 746   0.0000       5.997245       163.1933 
 747   0.0000       6.026325       163.9846 
 748   0.0000       6.045619       164.5097 
 749   0.0000       6.069910       165.1706 
 750   0.0000       6.084697       165.5730 
 751   0.0000       6.099493       165.9757 
 752   0.0000       6.123177       166.6201 
 753   0.0000       6.132803       166.8821 
 754   0.0000       6.135783       166.9632 
 755   0.0000       6.141014       167.1055 
 756   0.0000       6.181540       168.2082 
 757   0.0000       6.194696       168.5662 
 758   0.0000       6.205752       168.8671 
 759   0.0000       6.252620       170.1424 
 760   0.0000       6.259826       170.3385 
 761   0.0000       6.292668       171.2322 
 762   0.0000       6.324236       172.0912 
 763   0.0000       6.337141       172.4424 
 764   0.0000       6.359834       173.0599 
 765   0.0000       6.387927       173.8243 
 766   0.0000       6.434924       175.1032 
 767   0.0000       6.451846       175.5637 
 768   0.0000       6.461932       175.8381 
 769   0.0000       6.483393       176.4221 
 770   0.0000       6.495154       176.7421 
 771   0.0000       6.515232       177.2885 
 772   0.0000       6.538780       177.9292 
 773   0.0000       6.559157       178.4837 
 774   0.0000       6.564591       178.6316 
 775   0.0000       6.618814       180.1071 
 776   0.0000       6.641556       180.7259 
 777   0.0000       6.684735       181.9009 
 778   0.0000       6.724026       182.9700 
 779   0.0000       6.741952       183.4578 
 780   0.0000       6.774217       184.3358 
 781   0.0000       6.855940       186.5596 
 782   0.0000       6.867174       186.8653 
 783   0.0000       6.898215       187.7100 
 784   0.0000       6.931111       188.6051 
 785   0.0000       6.979216       189.9141 
 786   0.0000       7.031825       191.3457 
 787   0.0000       7.049246       191.8197 
 788   0.0000       7.057567       192.0462 
 789   0.0000       7.143707       194.3902 
 790   0.0000       7.161679       194.8792 
 791   0.0000       7.220539       196.4808 
 792   0.0000       7.237243       196.9354 
 793   0.0000       7.283608       198.1970 
 794   0.0000       7.351247       200.0376 
 795   0.0000       7.379185       200.7978 
 796   0.0000       7.409962       201.6353 
 797   0.0000       7.443600       202.5506 
 798   0.0000       7.465543       203.1478 
 799   0.0000       7.475390       203.4157 
 800   0.0000       7.599314       206.7879 
 801   0.0000       7.635222       207.7650 
 802   0.0000       7.664122       208.5514 
 803   0.0000       7.735968       210.5064 
 804   0.0000       7.812920       212.6004 
 805   0.0000       7.937228       215.9829 
 806   0.0000       8.032200       218.5673 
 807   0.0000       8.045977       218.9422 
 808   0.0000       8.143051       221.5837 
 809   0.0000       9.568825       260.3810 
 810   0.0000       9.866206       268.4731 
 811   0.0000      11.137147       303.0572 
 812   0.0000      11.515818       313.3613 
 813   0.0000      12.579562       342.3073 
 814   0.0000      12.833057       349.2052 
 815   0.0000      12.865894       350.0988 
 816   0.0000      13.024128       354.4045 
 817   0.0000      13.206141       359.3574 
 818   0.0000      13.368954       363.7877 
 819   0.0000      13.488133       367.0308 
 820   0.0000      13.844089       376.7168 
 821   0.0000      13.909625       378.5001 
 822   0.0000      13.964949       380.0056 
 823   0.0000      14.091612       383.4522 
 824   0.0000      14.229678       387.2092 
 825   0.0000      14.653332       398.7374 
 826   0.0000      14.975910       407.5152 
 827   0.0000      16.097214       438.0275 

                    ********************************
                    * MULLIKEN POPULATION ANALYSIS *
                    ********************************

-----------------------
MULLIKEN ATOMIC CHARGES
-----------------------
   0 C :   -0.282110
   1 C :    0.022446
   2 O :   -0.272437
   3 C :    0.491515
   4 O :   -0.621703
   5 C :   -0.215220
   6 C :    0.162655
   7 C :   -0.292833
   8 N :   -0.119098
   9 C :    0.381172
  10 S :   -0.792640
  11 N :   -0.213548
  12 C :    0.062320
  13 C :    0.008547
  14 C :   -0.190519
  15 C :   -0.178013
  16 C :   -0.284381
  17 C :    0.304450
  18 O :   -0.454103
  19 C :   -0.261867
  20 H :    0.110383
  21 H :    0.119264
  22 H :    0.102247
  23 H :    0.122108
  24 H :    0.115172
  25 H :    0.125651
  26 H :    0.135925
  27 H :    0.141406
  28 H :    0.261880
  29 H :    0.261183
  30 H :    0.170969
  31 H :    0.183917
  32 H :    0.210287
  33 H :    0.174782
  34 H :    0.326855
  35 H :    0.183338
Sum of atomic charges:    0.0000000

--------------------------------
MULLIKEN REDUCED ORBITAL CHARGES
--------------------------------
  0 C s       :     3.262538  s :     3.262538
      pz      :     1.013919  p :     2.944585
      px      :     0.907016
      py      :     1.023650
      dz2     :     0.011720  d :     0.070699
      dxz     :     0.023731
      dyz     :     0.008473
      dx2y2   :     0.019830
      dxy     :     0.006945
      f0      :     0.000307  f :     0.004288
      f+1     :     0.000719
      f-1     :     0.000811
      f+2     :     0.000765
      f-2     :     0.000307
      f+3     :     0.000363
      f-3     :     0.001017
  1 C s       :     3.196423  s :     3.196423
      pz      :     1.023726  p :     2.624123
      px      :     0.996570
      py      :     0.603827
      dz2     :     0.023689  d :     0.146061
      dxz     :     0.027406
      dyz     :     0.027620
      dx2y2   :     0.042203
      dxy     :     0.025143
      f0      :     0.001401  f :     0.010947
      f+1     :     0.000859
      f-1     :     0.001522
      f+2     :     0.002161
      f-2     :     0.000403
      f+3     :     0.002318
      f-3     :     0.002283
  2 O s       :     3.689252  s :     3.689252
      pz      :     1.733581  p :     4.542074
      px      :     1.530576
      py      :     1.277918
      dz2     :     0.003926  d :     0.038552
      dxz     :     0.005228
      dyz     :     0.004721
      dx2y2   :     0.010941
      dxy     :     0.013736
      f0      :     0.000299  f :     0.002559
      f+1     :     0.000266
      f-1     :     0.000424
      f+2     :     0.000132
      f-2     :     0.000267
[...]
 15 C s       :     2.719656  s :     2.719656
      pz      :     0.970760  p :     2.804049
      px      :     0.978843
      py      :     0.854447
      dz2     :     0.122019  d :     0.390875
      dxz     :     0.099190
      dyz     :     0.073673
      dx2y2   :     0.058733
      dxy     :     0.037261
      f0      :     0.007157  f :     0.037345
      f+1     :     0.007940
      f-1     :     0.004304
      f+2     :     0.006637
      f-2     :     0.006684
      f+3     :     0.002435
      f-3     :     0.002188
 16 C s       :     2.711923  s :     2.711923
      pz      :     0.968326  p :     2.861038
      px      :     0.984656
      py      :     0.908056
      dz2     :     0.083767  d :     0.373629
      dxz     :     0.112893
      dyz     :     0.045228
      dx2y2   :     0.064785
      dxy     :     0.066956
      f0      :     0.007112  f :     0.037453
      f+1     :     0.006459
      f-1     :     0.004196
      f+2     :     0.006427
      f-2     :     0.003281
      f+3     :     0.005147
      f-3     :     0.004831
 17 C s       :     2.696595  s :     2.696595
      pz      :     0.880055  p :     2.694974
      px      :     0.982896
      py      :     0.832023
      dz2     :     0.181345  d :     0.709256
      dxz     :     0.195723
      dyz     :     0.117948
      dx2y2   :     0.097592
      dxy     :     0.116648
      f0      :     0.021590  f :     0.098525
      f+1     :     0.018073
      f-1     :     0.011473
      f+2     :     0.017784
      f-2     :     0.014992
      f+3     :     0.007113
      f-3     :     0.007501
 18 O s       :     3.182161  s :     3.182161
      pz      :     1.491238  p :     4.398835
      px      :     1.269199
      py      :     1.638398
      dz2     :     0.018376  d :     0.070062
      dxz     :     0.021533
      dyz     :     0.009827
      dx2y2   :     0.014184
      dxy     :     0.006143
      f0      :     0.000884  f :     0.004682
      f+1     :     0.001233
      f-1     :     0.000464
      f+2     :     0.000646
      f-2     :     0.000688
      f+3     :     0.000389
      f-3     :     0.000377
 19 C s       :     2.687566  s :     2.687566
      pz      :     0.983205  p :     2.842193
      px      :     0.967773
      py      :     0.891215
      dz2     :     0.125559  d :     0.412572
      dxz     :     0.105351
      dyz     :     0.076369
      dx2y2   :     0.070885
      dxy     :     0.034409
      f0      :     0.009223  f :     0.044826
      f+1     :     0.009313
      f-1     :     0.006228
      f+2     :     0.007354
      f-2     :     0.007607
      f+3     :     0.003463
      f-3     :     0.001638
 20 H s       :     0.844921  s :     0.844921
      pz      :     0.064501  p :     0.152637
      px      :     0.042291
      py      :     0.045845
      dz2     :     0.008628  d :     0.027767
      dxz     :     0.006750
      dyz     :     0.006303
      dx2y2   :     0.003406
      dxy     :     0.002679
 21 H s       :     0.844539  s :     0.844539
      pz      :     0.040022  p :     0.151063
      px      :     0.037790
      py      :     0.073250
      dz2     :     0.002320  d :     0.027124
      dxz     :     0.000182
      dyz     :     0.009119
      dx2y2   :     0.006988
      dxy     :     0.008516
 22 H s       :     0.841053  s :     0.841053
      pz      :     0.057075  p :     0.154395
      px      :     0.055211
      py      :     0.042109
      dz2     :     0.007393  d :     0.028143
      dxz     :     0.006572
      dyz     :     0.004337
      dx2y2   :     0.005237
      dxy     :     0.004603
 23 H s       :     0.853719  s :     0.853719
      pz      :     0.055445  p :     0.148310
      px      :     0.067254
      py      :     0.025610
      dz2     :     0.006897  d :     0.027044
      dxz     :     0.008063
      dyz     :     0.002669
      dx2y2   :     0.005374
      dxy     :     0.004042
 24 H s       :     0.852066  s :     0.852066
      pz      :     0.073301  p :     0.145956
      px      :     0.041490
      py      :     0.031165
      dz2     :     0.008346  d :     0.026809
      dxz     :     0.008444
      dyz     :     0.006607
      dx2y2   :     0.001990
      dxy     :     0.001421
 25 H s       :     0.831182  s :     0.831182
      pz      :     0.044766  p :     0.152042
      px      :     0.059453
      py      :     0.047823
      dz2     :     0.003293  d :     0.028058
      dxz     :     0.005776
      dyz     :     0.003884
      dx2y2   :     0.008230
      dxy     :     0.006876
 26 H s       :     0.824455  s :     0.824455
      pz      :     0.070429  p :     0.153513
      px      :     0.039392
      py      :     0.043692
      dz2     :     0.008938  d :     0.028184
      dxz     :     0.007804
      dyz     :     0.008557
      dx2y2   :     0.001104
      dxy     :     0.001781
 27 H s       :     0.828531  s :     0.828531
      pz      :     0.053241  p :     0.149872
      px      :     0.034126
      py      :     0.062504
      dz2     :     0.007300  d :     0.027447
      dxz     :     0.002622
      dyz     :     0.007155
      dx2y2   :     0.004691
      dxy     :     0.005679
 28 H s       :     0.706165  s :     0.706165
      pz      :     0.078005  p :     0.246656
      px      :     0.110659
      py      :     0.057993
      dz2     :     0.005538  d :     0.060260
      dxz     :     0.018917
      dyz     :     0.003255
      dx2y2   :     0.015770
      dxy     :     0.016780
 29 H s       :     0.719327  s :     0.719327
      pz      :     0.081699  p :     0.250033
      px      :     0.090149
      py      :     0.078185
      dz2     :     0.010009  d :     0.060140
      dxz     :     0.015326
      dyz     :     0.006277
      dx2y2   :     0.012973
      dxy     :     0.015556
 30 H s       :     0.819311  s :     0.819311
      pz      :     0.046190  p :     0.152615
      px      :     0.055886
      py      :     0.050539
      dz2     :     0.004832  d :     0.029095
      dxz     :     0.006200
      dyz     :     0.005537
      dx2y2   :     0.006678
      dxy     :     0.005847
 31 H s       :     0.833145  s :     0.833145
      pz      :     0.066094  p :     0.156222
      px      :     0.043721
      py      :     0.046408
      dz2     :     0.008002  d :     0.027511
      dxz     :     0.007640
      dyz     :     0.005977
      dx2y2   :     0.002923
      dxy     :     0.002970
 32 H s       :     0.834999  s :     0.834999
      pz      :     0.033163  p :     0.154300
      px      :     0.079911
      py      :     0.041225
      dz2     :     0.002893  d :     0.026650
      dxz     :     0.007927
      dyz     :     0.000486
      dx2y2   :     0.007647
      dxy     :     0.007697
 33 H s       :     0.839260  s :     0.839260
      pz      :     0.066744  p :     0.159228
      px      :     0.040221
      py      :     0.052263
      dz2     :     0.008330  d :     0.027806
      dxz     :     0.006873
      dyz     :     0.006854
      dx2y2   :     0.002951
      dxy     :     0.002798
 34 H s       :     0.670398  s :     0.670398
      pz      :     0.084385  p :     0.341783
      px      :     0.158563
      py      :     0.098835
      dz2     :     0.009506  d :     0.098932
      dxz     :     0.030642
      dyz     :     0.002229
      dx2y2   :     0.023030
      dxy     :     0.033525
 35 H s       :     0.826746  s :     0.826746
      pz      :     0.033995  p :     0.157763
      px      :     0.080695
      py      :     0.043073
      dz2     :     0.002681  d :     0.027917
      dxz     :     0.009012
      dyz     :     0.000157
      dx2y2   :     0.007570
      dxy     :     0.008497


                      *****************************
                      * MAYER POPULATION ANALYSIS *
                      *****************************

  NA   - Mulliken gross atomic population
  ZA   - Total nuclear charge
  QA   - Mulliken gross atomic charge
  VA   - Mayer's total valence
  BVA  - Mayer's bonded valence
  FA   - Mayer's free valence

  ATOM       NA         ZA         QA         VA         BVA        FA
  0 C      6.2821     6.0000    -0.2821     3.8883     3.8883     0.0000
  1 C      5.9776     6.0000     0.0224     3.8008     3.8008     0.0000
  2 O      8.2724     8.0000    -0.2724     2.1475     2.1475    -0.0000
  3 C      5.5085     6.0000     0.4915     4.2895     4.2895    -0.0000
  4 O      8.6217     8.0000    -0.6217     1.9213     1.9213    -0.0000
  5 C      6.2152     6.0000    -0.2152     3.6263     3.6263     0.0000
  6 C      5.8373     6.0000     0.1627     3.8420     3.8420     0.0000
  7 C      6.2928     6.0000    -0.2928     3.8821     3.8821     0.0000
  8 N      7.1191     7.0000    -0.1191     3.4399     3.4399    -0.0000
  9 C      5.6188     6.0000     0.3812     3.9703     3.9703    -0.0000
 10 S     16.7926    16.0000    -0.7926     1.2941     1.2941    -0.0000
 11 N      7.2135     7.0000    -0.2135     3.3593     3.3593     0.0000
 12 C      5.9377     6.0000     0.0623     3.8762     3.8762    -0.0000
 13 C      5.9915     6.0000     0.0085     3.6860     3.6860    -0.0000
 14 C      6.1905     6.0000    -0.1905     3.8237     3.8237     0.0000
 15 C      6.1780     6.0000    -0.1780     3.7817     3.7817     0.0000
 16 C      6.2844     6.0000    -0.2844     3.7791     3.7791     0.0000
 17 C      5.6956     6.0000     0.3044     3.8896     3.8896    -0.0000
 18 O      8.4541     8.0000    -0.4541     2.0444     2.0444    -0.0000
 19 C      6.2619     6.0000    -0.2619     3.7908     3.7908    -0.0000
 20 H      0.8896     1.0000     0.1104     0.9841     0.9841     0.0000
 21 H      0.8807     1.0000     0.1193     0.9840     0.9840     0.0000
 22 H      0.8978     1.0000     0.1022     0.9755     0.9755    -0.0000
 23 H      0.8779     1.0000     0.1221     0.9849     0.9849     0.0000
 24 H      0.8848     1.0000     0.1152     0.9795     0.9795     0.0000
 25 H      0.8743     1.0000     0.1257     0.9862     0.9862     0.0000
 26 H      0.8641     1.0000     0.1359     0.9709     0.9709     0.0000
 27 H      0.8586     1.0000     0.1414     0.9775     0.9775     0.0000
 28 H      0.7381     1.0000     0.2619     0.9594     0.9594    -0.0000
 29 H      0.7388     1.0000     0.2612     0.9647     0.9647     0.0000
 30 H      0.8290     1.0000     0.1710     1.0012     1.0012     0.0000
 31 H      0.8161     1.0000     0.1839     0.9718     0.9718     0.0000
 32 H      0.7897     1.0000     0.2103     0.9584     0.9584     0.0000
 33 H      0.8252     1.0000     0.1748     0.9830     0.9830    -0.0000
 34 H      0.6731     1.0000     0.3269     0.9356     0.9356     0.0000
 35 H      0.8167     1.0000     0.1833     0.9759     0.9759    -0.0000

  Mayer bond orders larger than 0.100000
B(  0-C ,  1-C ) :   0.9745 B(  0-C , 20-H ) :   0.9755 B(  0-C , 21-H ) :   0.9774 
B(  0-C , 22-H ) :   0.9741 B(  1-C ,  2-O ) :   0.8470 B(  1-C , 23-H ) :   0.9737 
B(  1-C , 24-H ) :   0.9743 B(  2-O ,  3-C ) :   1.3216 B(  3-C ,  4-O ) :   1.8484 
B(  3-C ,  5-C ) :   1.0919 B(  5-C ,  6-C ) :   1.6153 B(  5-C , 12-C ) :   0.9746 
B(  6-C ,  7-C ) :   0.9584 B(  6-C ,  8-N ) :   1.1502 B(  7-C , 25-H ) :   0.9898 
B(  7-C , 26-H ) :   0.9603 B(  7-C , 27-H ) :   0.9592 B(  8-N ,  9-C ) :   1.2947 
B(  8-N , 28-H ) :   0.9190 B(  9-C , 10-S ) :   1.1401 B(  9-C , 11-N ) :   1.4606 
B( 11-N , 12-C ) :   0.9127 B( 11-N , 29-H ) :   0.9213 B( 12-C , 13-C ) :   0.9739 
B( 12-C , 30-H ) :   0.9899 B( 13-C , 14-C ) :   1.3410 B( 13-C , 19-C ) :   1.3116 
B( 14-C , 15-C ) :   1.3967 B( 14-C , 31-H ) :   0.9621 B( 15-C , 16-C ) :   1.3678 
B( 15-C , 32-H ) :   0.9535 B( 16-C , 17-C ) :   1.3412 B( 16-C , 33-H ) :   0.9649 
B( 17-C , 18-O ) :   1.1044 B( 17-C , 19-C ) :   1.3770 B( 18-O , 34-H ) :   0.9126 
B( 19-C , 35-H ) :   0.9599 

-------
TIMINGS
-------

Total SCF time: 0 days 1 hours 37 min 37 sec 

Total time                  ....    5857.247 sec
Sum of individual times     ....    5849.247 sec  ( 99.9%)

Fock matrix formation       ....    5834.649 sec  ( 99.6%)
Diagonalization             ....       1.440 sec  (  0.0%)
Density matrix formation    ....       0.178 sec  (  0.0%)
Population analysis         ....       0.279 sec  (  0.0%)
Initial guess               ....       5.549 sec  (  0.1%)
Orbital Transformation      ....       0.000 sec  (  0.0%)
Orbital Orthonormalization  ....       0.000 sec  (  0.0%)
DIIS solution               ....       3.217 sec  (  0.1%)
SOSCF solution              ....       2.473 sec  (  0.0%)

Maximum memory used throughout the entire SCF-calculation: 716.1 MB

------------------------------------------------------------------------------
                                ORCA  MP2 
------------------------------------------------------------------------------

Freezing NCore=48 chemical core electrons

-------------
RI-MP2 ENERGY
-------------
Dimension of the basis                    ...  828
Memory devoted to MP2                     ...  256 MB   
Data format for buffers                   ... DOUBLE
Compression type for matrix containers    ... UNCOMPRESSED
Overall scaling of the MP2 energy         ...   1.000e+00
Calculating two index integrals           ... done (    0.044 sec)
Cholesky decomposition of V**-1           ... done (    0.524 sec)

-----------------
RI-TRANSFORMATION (AUX index driven)
-----------------

Dimension of the orbital-basis         ... 828
Dimension of the aux-basis             ... 2141
Transformation of internal/external MOs...   24-  76 to   77- 827
Number Format for Storage              ... Double (8 Byte)
Integral mode                          ... Direct

First Phase: integral generation and transformation of MO indices
  Aux angular momentum 0               ... done (    4.816 sec)
  Aux angular momentum 1               ... done (    6.462 sec)
  Aux angular momentum 2               ... done (    9.436 sec)
  Aux angular momentum 3               ... done (    7.298 sec)
  Aux angular momentum 4               ... done (    2.531 sec)
Closing buffer VIA ( 0.63 GB; CompressionRatio= 1.00)
  Phase 1 completed in    30.945 sec
Second Phase: sorting and transformation of aux index

IA-Transformation
Memory available                       ... 158 MB 
Max. # MO pairs treated in a batch     ... 11    
# of internal orbitals                 ... 53
# batches for internal orbitals        ... 5
Closing buffer IAV ( 0.63 GB; CompressionRatio= 1.00)
(ia|v) transformation done in    36.380 sec

  Phase 2 completed in    36.388 sec
RI-Integral transformation completed in    67.425 sec
Opening buffers                              ... done

Starting loop over batches of integrals:

Operator 0  - window                       ... ( 24- 76)x( 77-827)
Operator 0  - Memory available             ...   256 MB
Operator 0  - Memory needed per MO         ...  12.3 MB
Operator 0  - Number of orbitals per batch ... 13
Operator 0  - Number of batches            ... 5

OPERATOR  0   PASS   0:  MOs    24 ...   36
  Reading integrals       ... ok
  Internal MO  26
  Internal MO  29
  Internal MO  32
  Internal MO  35
OPERATOR  0   PASS   1:  MOs    37 ...   49
  Reading integrals       ... ok
  Internal MO  38
  Internal MO  41
  Internal MO  44
  Internal MO  47
OPERATOR  0   PASS   2:  MOs    50 ...   62
  Reading integrals       ... ok
  Internal MO  50
  Internal MO  53
  Internal MO  56
  Internal MO  59
  Internal MO  62
OPERATOR  0   PASS   3:  MOs    63 ...   75
  Reading integrals       ... ok
  Internal MO  65
  Internal MO  68
  Internal MO  71
  Internal MO  74
OPERATOR  0   PASS   4:  MOs    76 ...   76
  Reading integrals       ... ok
Time spent in pair loops =    86.683 sec
Deleting buffer (Ka|jb)[aa] ...done

-----------------------------------------------
 RI-MP2 CORRELATION ENERGY:     -3.518207281 Eh
-----------------------------------------------


-------
TIMINGS
-------

Total time                :  154.814 sec
Integral trafo            :   67.432 sec ( 43.6%)
I/O of integrals          :    4.435 sec (  2.9%)
K(i,j) Operators          :   55.978 sec ( 36.2%)
T(i,j) pair energies      :    7.751 sec (  5.0%)
V-calculation             :    0.044 sec (  0.0%)
V**(-1/2)                 :    0.524 sec (  0.3%)
Gamma(ia|P)               :    0.000 sec (  0.0%)
Gamma-Trafo               :    0.000 sec (  0.0%)
D(virtual)                :    0.000 sec (  0.0%)
D(internal)               :    0.000 sec (  0.0%)
W(virtual)                :    0.000 sec (  0.0%)
W(internal)               :    0.000 sec (  0.0%)
L(virtual)                :    0.000 sec (  0.0%)
L(internal)               :    0.000 sec (  0.0%)
G(D)                      :    0.000 sec (  0.0%)
G(Z)                      :    0.000 sec (  0.0%)
Z-Vector Solution         :    0.000 sec (  0.0%)
3-Index Derivative        :    0.000 sec (  0.0%)
2-Index Derivative        :    0.000 sec (  0.0%)
Separable Gradient        :    0.000 sec (  0.0%)


---------------------------------------
MP2 TOTAL ENERGY:    -1274.468228767 Eh
---------------------------------------

Maximum memory used throughout the entire MP2-calculation: 302.7 MB

-------------------------   --------------------
FINAL SINGLE POINT ENERGY     -1274.468228767192
-------------------------   --------------------


                            ***************************************
                            *     ORCA property calculations      *
                            ***************************************


  WARNING: The energy has been calculated at the MP2 level but the densities
           used in the property calculations are still SCF densities
           MP2 response densities have not been calculated 
           use %mp2 Density relaxed end
           or  %mp2 Density unrelaxed end

                                    ---------------------
                                    Active property flags
                                    ---------------------
   (+) Dipole Moment


------------------------------------------------------------------------------
                       ORCA ELECTRIC PROPERTIES CALCULATION
------------------------------------------------------------------------------

Dipole Moment Calculation                       ... on
Quadrupole Moment Calculation                   ... off
Polarizability Calculation                      ... off
GBWName                                         ... qm_input.solv.gbw
Electron density file                           ... qm_input.solv.scfp
The origin for moment calculation is the CENTER OF MASS  = (-10.633279, 15.441349 24.424503)

-------------
DIPOLE MOMENT
-------------
                                X             Y             Z
Electronic contribution:      5.34112      14.41727      -3.37188
Nuclear contribution   :     -7.58612     -17.68956       4.03191
                        -----------------------------------------
Total Dipole Moment    :     -2.24500      -3.27229       0.66003
                        -----------------------------------------
Magnitude (a.u.)       :      4.02287
Magnitude (Debye)      :     10.22533



--------------------
Rotational spectrum 
--------------------
 
Rotational constants in cm-1:     0.011038     0.008079     0.005752 
Rotational constants in MHz :   330.902661   242.207484   172.437565 

 Dipole components along the rotational axes: 
x,y,z [a.u.] :    -3.776690    -0.574846     1.260827 
x,y,z [Debye]:    -9.599583    -1.461142     3.204768 

 

Timings for individual modules:

Sum of individual times         ...     6237.486 sec (= 103.958 min)
GTO integral calculation        ...      223.399 sec (=   3.723 min)   3.6 %
SCF iterations                  ...     5857.880 sec (=  97.631 min)  93.9 %
MP2 module                      ...      156.207 sec (=   2.603 min)   2.5 %
                             ****ORCA TERMINATED NORMALLY****
TOTAL RUN TIME: 0 days 1 hours 43 minutes 59 seconds 787 msec
