
                                        *****************
                                        * O   R   C   A *
                                        *****************

                                            #,                                       
                                            ###                                      
                                            ####                                     
                                            #####                                    
                                            ######                                   
                                           ########,                                 
                                     ,,################,,,,,                         
                               ,,#################################,,                 
                          ,,##########################################,,             
                       ,#########################################, ''#####,          
                    ,#############################################,,   '####,        
                  ,##################################################,,,,####,       
                ,###########''''           ''''###############################       
              ,#####''   ,,,,##########,,,,          '''####'''          '####       
            ,##' ,,,,###########################,,,                        '##       
           ' ,,###''''                  '''############,,,                           
         ,,##''                                '''############,,,,        ,,,,,,###''
      ,#''                                            '''#######################'''  
     '                                                          ''''####''''         
             ,#######,   #######,   ,#######,      ##                                
            ,#'     '#,  ##    ##  ,#'     '#,    #''#        ######   ,####,        
            ##       ##  ##   ,#'  ##            #'  '#       #        #'  '#        
            ##       ##  #######   ##           ,######,      #####,   #    #        
            '#,     ,#'  ##    ##  '#,     ,#' ,#      #,         ##   #,  ,#        
             '#######'   ##     ##  '#######'  #'      '#     #####' # '####'        



                  #######################################################
                  #                        -***-                        #
                  #          Department of theory and spectroscopy      #
                  #    Directorship and core code : Frank Neese         #
                  #        Max Planck Institute fuer Kohlenforschung    #
                  #                Kaiser Wilhelm Platz 1               #
                  #                 D-45470 Muelheim/Ruhr               #
                  #                      Germany                        #
                  #                                                     #
                  #                  All rights reserved                #
                  #                        -***-                        #
                  #######################################################


                         Program Version 5.0.0 -  RELEASE  -
                                (SVN: $Rev: 19529$)
                ($Date: 2021-06-28 11:36:33 +0200 (Mo, 28 Jun 2021) $)


 With contributions from (in alphabetic order):
   Daniel Aravena         : Magnetic Suceptibility
   Michael Atanasov       : Ab Initio Ligand Field Theory (pilot matlab implementation)
   Alexander A. Auer      : GIAO ZORA, VPT2 properties, NMR spectrum
   Ute Becker             : Parallelization
   Giovanni Bistoni       : ED, misc. LED, open-shell LED, HFLD
   Martin Brehm           : Molecular dynamics
   Dmytro Bykov           : SCF Hessian
   Vijay G. Chilkuri      : MRCI spin determinant printing, contributions to CSF-ICE
   Dipayan Datta          : RHF DLPNO-CCSD density
   Achintya Kumar Dutta   : EOM-CC, STEOM-CC
   Dmitry Ganyushin       : Spin-Orbit,Spin-Spin,Magnetic field MRCI
   Miquel Garcia          : C-PCM Hessian, Gaussian charge scheme
   Yang Guo               : DLPNO-NEVPT2, F12-NEVPT2, CIM, IAO-localization
   Andreas Hansen         : Spin unrestricted coupled pair/coupled cluster methods
   Benjamin Helmich-Paris : MC-RPA, TRAH-SCF, COSX integrals
   Lee Huntington         : MR-EOM, pCC
   Robert Izsak           : Overlap fitted RIJCOSX, COSX-SCS-MP3, EOM
   Marcus Kettner         : VPT2
   Christian Kollmar      : KDIIS, OOCD, Brueckner-CCSD(T), CCSD density, CASPT2, CASPT2-K
   Simone Kossmann        : Meta GGA functionals, TD-DFT gradient, OOMP2, MP2 Hessian
   Martin Krupicka        : Initial AUTO-CI
   Lucas Lang             : DCDCAS
   Marvin Lechner         : AUTO-CI (C++ implementation), FIC-MRCC
   Dagmar Lenk            : GEPOL surface, SMD
   Dimitrios Liakos       : Extrapolation schemes; Compound Job, initial MDCI parallelization
   Dimitrios Manganas     : Further ROCIS development; embedding schemes
   Dimitrios Pantazis     : SARC Basis sets
   Anastasios Papadopoulos: AUTO-CI, single reference methods and gradients
   Taras Petrenko         : DFT Hessian,TD-DFT gradient, ASA, ECA, R-Raman, ABS, FL, XAS/XES, NRVS
   Peter Pinski           : DLPNO-MP2, DLPNO-MP2 Gradient
   Christoph Reimann      : Effective Core Potentials
   Marius Retegan         : Local ZFS, SOC
   Christoph Riplinger    : Optimizer, TS searches, QM/MM, DLPNO-CCSD(T), (RO)-DLPNO pert. Triples
   Tobias Risthaus        : Range-separated hybrids, TD-DFT gradient, RPA, STAB
   Michael Roemelt        : Original ROCIS implementation
   Masaaki Saitow         : Open-shell DLPNO-CCSD energy and density
   Barbara Sandhoefer     : DKH picture change effects
   Avijit Sen             : IP-ROCIS
   Kantharuban Sivalingam : CASSCF convergence, NEVPT2, FIC-MRCI
   Bernardo de Souza      : ESD, SOC TD-DFT
   Georgi Stoychev        : AutoAux, RI-MP2 NMR
   Willem Van den Heuvel  : Paramagnetic NMR
   Boris Wezisla          : Elementary symmetry handling
   Frank Wennmohs         : Technical directorship


 We gratefully acknowledge several colleagues who have allowed us to
 interface, adapt or use parts of their codes:
   Stefan Grimme, W. Hujo, H. Kruse, P. Pracht,  : VdW corrections, initial TS optimization,
                  C. Bannwarth, S. Ehlert          DFT functionals, gCP, sTDA/sTD-DF
   Ed Valeev, F. Pavosevic, A. Kumar             : LibInt (2-el integral package), F12 methods
   Garnet Chan, S. Sharma, J. Yang, R. Olivares  : DMRG
   Ulf Ekstrom                                   : XCFun DFT Library
   Mihaly Kallay                                 : mrcc  (arbitrary order and MRCC methods)
   Jiri Pittner, Ondrej Demel                    : Mk-CCSD
   Frank Weinhold                                : gennbo (NPA and NBO analysis)
   Christopher J. Cramer and Donald G. Truhlar   : smd solvation model
   Lars Goerigk                                  : TD-DFT with DH, B97 family of functionals
   V. Asgeirsson, H. Jonsson                     : NEB implementation
   FAccTs GmbH                                   : IRC, NEB, NEB-TS, DLPNO-Multilevel, CI-OPT
                                                   MM, QMMM, 2- and 3-layer-ONIOM, Crystal-QMMM,
                                                   LR-CPCM, SF, NACMEs, symmetry and pop. for TD-DFT,
                                                   nearIR, NL-DFT gradient (VV10), updates on ESD,
                                                   ML-optimized integration grids
   S Lehtola, MJT Oliveira, MAL Marques          : LibXC Library
   Liviu Ungur et al                             : ANISO software


 Your calculation uses the libint2 library for the computation of 2-el integrals
 For citations please refer to: http://libint.valeyev.net

 Your ORCA version has been built with support for libXC version: 5.1.0
 For citations please refer to: https://tddft.org/programs/libxc/

 This ORCA versions uses:
   CBLAS   interface :  Fast vector & matrix operations
   LAPACKE interface :  Fast linear algebra routines
   SCALAPACK package :  Parallel linear algebra routines
   Shared memory     :  Shared parallel matrices
   BLAS/LAPACK       :  OpenBLAS 0.3.15  USE64BITINT DYNAMIC_ARCH NO_AFFINITY SkylakeX SINGLE_THREADED
        Core in use  :  SkylakeX
   Copyright (c) 2011-2014, The OpenBLAS Project


================================================================================

----- Orbital basis set information -----
Your calculation utilizes the basis: cc-pVTZ 
       H, B-Ne : Obtained from the ccRepo (grant-hill.group.shef.ac.uk/ccrepo) Feb. 2017
                 T. H. Dunning, Jr., J. Chem. Phys. 90, 1007 (1989)
            He : Obtained from the ccRepo (grant-hill.group.shef.ac.uk/ccrepo) Feb. 2017
                 D. E. Woon, T. H. Dunning, Jr., J. Chem. Phys. 100, 2975 (1994)
  Li-Be, Na-Mg : Obtained from the ccRepo (grant-hill.group.shef.ac.uk/ccrepo) Feb. 2017
                 B. P. Prascher, D. E. Woon, K. A. Peterson, T. H. Dunning, Jr., A. K. Wilson, Theor. Chem. Acc. 128, 69 (2011)
         Al-Ar : Obtained from the ccRepo (grant-hill.group.shef.ac.uk/ccrepo) Feb. 2017
                 D. E. Woon, T. H. Dunning, Jr., J. Chem. Phys. 98, 1358 (1993)
            Ca : Obtained from the Peterson Research Group Website (tyr0.chem.wsu.edu/~kipeters) Feb. 2017
                 J. Koput, K. A. Peterson, J. Phys. Chem. 106, 9595 (2002)
         Sc-Zn : Obtained from the ccRepo (grant-hill.group.shef.ac.uk/ccrepo) Feb. 2017
                 N. B. Balabanov, K. A. Peterson, J. Chem. Phys. 123, 064107 (2005)
                 N. B. Balabanov, K. A. Peterson, J. Chem. Phys. 125, 074110 (2006)
         Ga-Kr : Obtained from the ccRepo (grant-hill.group.shef.ac.uk/ccrepo) Feb. 2017
                 A. K. Wilson, D. E. Woon, K. A. Peterson, T. H. Dunning, Jr., J. Chem. Phys. 110, 7667 (1999)
             Y : Obtained from the ccRepo (grant-hill.group.shef.ac.uk/ccrepo) Feb. 2017
                 K. A. Peterson, D. Figgen, M. Dolg, H. Stoll, J. Chem. Phys. 126, 124101 (2007)
        Ag, Au : Obtained from the Peterson Research Group Website (tyr0.chem.wsu.edu/~kipeters) Feb. 2017
                 K. A. Peterson, C. Puzzarini, Theor. Chem. Acc. 114, 283 (2005)

----- AuxC basis set information -----
Your calculation utilizes the auxiliary basis: cc-pVTZ/C 
  Obtained from the EMSL Basis Set Exchange (bse.pnl.gov) Feb. 2017
  H-He, B-F, Al-Ar, Ga-Kr : F. Weigend, A. Kohn, C. Hattig, J. Chem. Phys. 116, 3175 (2002)
             Li-Be, Na-Mg : C. Haettig, Phys. Chem. Chem. Phys. 7, 59 (2005)
                       Ne : C. Haettig, Phys. Chem. Chem. Phys. 7, 59 (2005)
                            F. Weigend, A. Kohn, C. Hattig, J. Chem. Phys. 116, 3175 (2002)
                    Sc-Zn : J. G. Hill, J. A. Platts, J. Chem. Phys. 128, 044104 (2008)

================================================================================
                                        WARNINGS
                       Please study these warnings very carefully!
================================================================================


WARNING: No MP2 level density has been requested!
         To caclulate MP2 level properties use
         %mp2 Density relaxed end
         or
         %mp2 Density unrelaxed end

WARNING: Post HF methods need fully converged wavefunctions
  ===> : Setting SCFConvForced true
         You can overwrite this default with %scf ConvForced false 


INFO   : the flag for use of the SHARK integral package has been found!

================================================================================
                                       INPUT FILE
================================================================================
NAME = qm_input.solv
|  1> ! RI-MP2 cc-pVTZ cc-pVTZ/c TightSCF KeepDens NoKeepInts
|  2> 
|  3> %pointcharges "srfp_output"
|  4> 
|  5> *xyz  0  1
|  6>     C     8.3410829    1.0177748   -2.1151158
|  7>     C     7.2503124   -0.0501990   -2.2870626
|  8>     O     6.6603325   -0.3753954   -1.0298035
|  9>     C     5.6123925   -1.3025024   -0.9198336
| 10>     O     5.2244526   -1.8839948   -1.9163807
| 11>     C     5.0951331   -1.5611942    0.4308204
| 12>     C     5.5435764   -0.9017543    1.5374015
| 13>     C     6.5676245    0.2258941    1.7215111
| 14>     N     4.8968368   -1.1306343    2.7140816
| 15>     C     4.2610080   -2.3033070    2.9812829
| 16>     S     3.5124294   -2.7580409    4.4320174
| 17>     N     3.9675896   -3.0722783    1.8618720
| 18>     C     4.1002672   -2.7027628    0.4871291
| 19>     C     2.8045235   -2.4680536   -0.2890556
| 20>     C     2.0379628   -1.2551174   -0.1564276
| 21>     C     0.7915237   -1.0809734   -0.8225179
| 22>     C     0.2641944   -2.1790176   -1.5293290
| 23>     C     1.0025115   -3.3800774   -1.6095425
| 24>     O     0.4016355   -4.4313958   -2.2888894
| 25>     C     2.1739888   -3.5727062   -0.9524298
| 26>     H     9.0432711    0.6488819   -1.3574619
| 27>     H     7.8544848    1.9719506   -1.8785453
| 28>     H     8.8518392    1.1210822   -3.0803338
| 29>     H     6.6001582    0.4674732   -3.0029577
| 30>     H     7.6185582   -0.9867242   -2.7235316
| 31>     H     6.5823564    0.6884199    2.7160155
| 32>     H     6.3076339    1.0206948    1.0116615
| 33>     H     7.5663669   -0.1367665    1.4491512
| 34>     H     5.0362997   -0.3812512    3.3811210
| 35>     H     3.3835973   -3.8905618    1.9856925
| 36>     H     4.5837724   -3.4753880   -0.1231681
| 37>     H     2.5393966   -0.5295413    0.4772123
| 38>     H     0.2756540   -0.1273967   -0.7595418
| 39>     H    -0.6422600   -2.0250541   -2.1072837
| 40>     H    -0.4854714   -4.0829919   -2.4848108
| 41>     H     2.6410552   -4.5426470   -1.0954674
| 42> *
| 43> 
| 44>                          ****END OF INPUT****
================================================================================

                       ****************************
                       * Single Point Calculation *
                       ****************************

---------------------------------
CARTESIAN COORDINATES (ANGSTROEM)
---------------------------------
  C      8.341083    1.017775   -2.115116
  C      7.250312   -0.050199   -2.287063
  O      6.660332   -0.375395   -1.029804
  C      5.612392   -1.302502   -0.919834
  O      5.224453   -1.883995   -1.916381
  C      5.095133   -1.561194    0.430820
  C      5.543576   -0.901754    1.537401
  C      6.567624    0.225894    1.721511
  N      4.896837   -1.130634    2.714082
  C      4.261008   -2.303307    2.981283
  S      3.512429   -2.758041    4.432017
  N      3.967590   -3.072278    1.861872
  C      4.100267   -2.702763    0.487129
  C      2.804524   -2.468054   -0.289056
  C      2.037963   -1.255117   -0.156428
  C      0.791524   -1.080973   -0.822518
  C      0.264194   -2.179018   -1.529329
  C      1.002511   -3.380077   -1.609543
  O      0.401635   -4.431396   -2.288889
  C      2.173989   -3.572706   -0.952430
  H      9.043271    0.648882   -1.357462
  H      7.854485    1.971951   -1.878545
  H      8.851839    1.121082   -3.080334
  H      6.600158    0.467473   -3.002958
  H      7.618558   -0.986724   -2.723532
  H      6.582356    0.688420    2.716016
  H      6.307634    1.020695    1.011661
  H      7.566367   -0.136767    1.449151
  H      5.036300   -0.381251    3.381121
  H      3.383597   -3.890562    1.985693
  H      4.583772   -3.475388   -0.123168
  H      2.539397   -0.529541    0.477212
  H      0.275654   -0.127397   -0.759542
  H     -0.642260   -2.025054   -2.107284
  H     -0.485471   -4.082992   -2.484811
  H      2.641055   -4.542647   -1.095467

----------------------------
CARTESIAN COORDINATES (A.U.)
----------------------------
  NO LB      ZA    FRAG     MASS         X           Y           Z
   0 C     6.0000    0    12.011   15.762362    1.923316   -3.996990
   1 C     6.0000    0    12.011   13.701105   -0.094862   -4.321922
   2 O     8.0000    0    15.999   12.586204   -0.709394   -1.946047
   3 C     6.0000    0    12.011   10.605885   -2.461373   -1.738234
   4 O     8.0000    0    15.999    9.872785   -3.560234   -3.621435
   5 C     6.0000    0    12.011    9.628406   -2.950229    0.814133
   6 C     6.0000    0    12.011   10.475841   -1.704069    2.905268
   7 C     6.0000    0    12.011   12.411012    0.426878    3.253185
   8 N     7.0000    0    14.007    9.253680   -2.136589    5.128871
   9 C     6.0000    0    12.011    8.052138   -4.352619    5.633808
  10 S    16.0000    0    32.060    6.637530   -5.211942    8.375299
  11 N     7.0000    0    14.007    7.497658   -5.805765    3.518428
  12 C     6.0000    0    12.011    7.748382   -5.107481    0.920541
  13 C     6.0000    0    12.011    5.299781   -4.663945   -0.546236
  14 C     6.0000    0    12.011    3.851192   -2.371828   -0.295605
  15 C     6.0000    0    12.011    1.495763   -2.042744   -1.554334
  16 C     6.0000    0    12.011    0.499255   -4.117747   -2.890013
  17 C     6.0000    0    12.011    1.894472   -6.387421   -3.041595
  18 O     8.0000    0    15.999    0.758981   -8.374124   -4.325374
  19 C     6.0000    0    12.011    4.108243   -6.751436   -1.799831
  20 H     1.0000    0     1.008   17.089306    1.226209   -2.565231
  21 H     1.0000    0     1.008   14.842825    3.726447   -3.549936
  22 H     1.0000    0     1.008   16.727552    2.118538   -5.820987
  23 H     1.0000    0     1.008   12.472491    0.883396   -5.674768
  24 H     1.0000    0     1.008   14.396989   -1.864639   -5.146729
  25 H     1.0000    0     1.008   12.438851    1.300925    5.132525
  26 H     1.0000    0     1.008   11.919701    1.928834    1.911763
  27 H     1.0000    0     1.008   14.298361   -0.258451    2.738499
  28 H     1.0000    0     1.008    9.517227   -0.720460    6.389393
  29 H     1.0000    0     1.008    6.394072   -7.352096    3.752415
  30 H     1.0000    0     1.008    8.662074   -6.567532   -0.232754
  31 H     1.0000    0     1.008    4.798764   -1.000688    0.901801
  32 H     1.0000    0     1.008    0.520911   -0.240745   -1.435326
  33 H     1.0000    0     1.008   -1.213696   -3.826798   -3.982189
  34 H     1.0000    0     1.008   -0.917408   -7.715736   -4.695612
  35 H     1.0000    0     1.008    4.990871   -8.584359   -2.070133

--------------------------------
INTERNAL COORDINATES (ANGSTROEM)
--------------------------------
 C      0   0   0     0.000000000000     0.00000000     0.00000000
 C      1   0   0     1.536201166250     0.00000000     0.00000000
 O      2   1   0     1.426369315959   110.70339939     0.00000000
 C      3   2   1     1.403495283909   121.90451660   178.35896260
 O      4   3   2     1.217266158154   119.29918786     2.68833717
 C      4   3   2     1.469266811029   116.82068464   179.53426786
 C      6   4   3     1.363995639987   123.01903449     3.17033501
 C      7   6   4     1.534327790907   132.22913504     2.45504074
 N      7   6   4     1.362069830201   117.61376033   173.58291551
 C      9   7   6     1.360454357543   122.44110754    28.09622866
 S     10   9   7     1.694633715491   127.29284051   175.54914272
 N     10   9   7     1.389421455398   114.67786658   341.37508137
 C     12  10   9     1.429707344663   127.73819929   351.42138042
 C     13  12  10     1.528562341931   116.69784666   251.15959227
 C     14  13  12     1.440978736290   122.23943668    77.77649360
 C     15  14  13     1.423942713208   121.70506867   183.85433698
 C     16  15  14     1.408317857188   117.85140378     5.44244936
 C     17  16  15     1.412122866082   119.72815668   357.05333804
 O     18  17  16     1.388464819898   116.45754586   178.15120201
 C     18  17  16     1.356931103449   122.99854398     4.85299369
 H      1   2   3     1.096900028296   107.34060895    53.90057223
 H      1   2   3     1.096902351944   108.29457348   288.80151464
 H      1   2   3     1.096900270949   107.31378308   172.06220577
 H      2   1   3     1.096900535434    99.54445663   122.55036488
 H      2   1   3     1.096899998821   113.56105989   239.41694806
 H      8   7   6     1.096898421078   115.31907167   168.71549943
 H      8   7   6     1.096900049881   107.25862705    50.26401079
 H      8   7   6     1.096899725352   109.56734554   294.29228953
 H      9   7   6     1.012900040574   112.28491378   201.76766431
 H     12  10   9     1.012899999532   118.05885796   188.31762059
 H     13  12  10     1.096900018429   113.19432536   133.89075032
 H     15  14  13     1.086000025574   111.74408882     4.95236111
 H     16  15  14     1.086000027317   119.73984151   184.49582640
 H     17  16  15     1.085999987967   117.97542188   185.09769129
 H     19  18  17     0.973000063998   102.82390525   354.34839904
 H     20  18  17     1.085999968935   115.74111103   179.81906724

---------------------------
INTERNAL COORDINATES (A.U.)
---------------------------
 C      0   0   0     0.000000000000     0.00000000     0.00000000
 C      1   0   0     2.902999490822     0.00000000     0.00000000
 O      2   1   0     2.695447372991   110.70339939     0.00000000
 C      3   2   1     2.652221716838   121.90451660   178.35896260
 O      4   3   2     2.300299671002   119.29918786     2.68833717
 C      4   3   2     2.776511890505   116.82068464   179.53426786
 C      6   4   3     2.577578207438   123.01903449     3.17033501
 C      7   6   4     2.899459324478   132.22913504     2.45504074
 N      7   6   4     2.573938954357   117.61376033   173.58291551
 C      9   7   6     2.570886153455   122.44110754    28.09622866
 S     10   9   7     3.202393619587   127.29284051   175.54914272
 N     10   9   7     2.625626035297   114.67786658   341.37508137
 C     12  10   9     2.701755333068   127.73819929   351.42138042
 C     13  12  10     2.888564204874   116.69784666   251.15959227
 C     14  13  12     2.723055176391   122.23943668    77.77649360
 C     15  14  13     2.690861758356   121.70506867   183.85433698
 C     16  15  14     2.661335059597   117.85140378     5.44244936
 C     17  16  15     2.668525484342   119.72815668   357.05333804
 O     18  17  16     2.623818256191   116.45754586   178.15120201
 C     18  17  16     2.564228168117   122.99854398     4.85299369
 H      1   2   3     2.072840649769   107.34060895    53.90057223
 H      1   2   3     2.072845040828   108.29457348   288.80151464
 H      1   2   3     2.072841108318   107.31378308   172.06220577
 H      2   1   3     2.072841608121    99.54445663   122.55036488
 H      2   1   3     2.072840594070   113.56105989   239.41694806
 H      8   7   6     2.072837612567   115.31907167   168.71549943
 H      8   7   6     2.072840690560   107.25862705    50.26401079
 H      8   7   6     2.072840077289   109.56734554   294.29228953
 H      9   7   6     1.914103677722   112.28491378   201.76766431
 H     12  10   9     1.914103600164   118.05885796   188.31762059
 H     13  12  10     2.072840631124   113.19432536   133.89075032
 H     15  14  13     2.052242629765   111.74408882     4.95236111
 H     16  15  14     2.052242633060   119.73984151   184.49582640
 H     17  16  15     2.052242558699   117.97542188   185.09769129
 H     19  18  17     1.838703649245   102.82390525   354.34839904
 H     20  18  17     2.052242522735   115.74111103   179.81906724

---------------------
BASIS SET INFORMATION
---------------------
There are 5 groups of distinct atoms

 Group   1 Type C   : 18s5p2d1f contracted to 4s3p2d1f pattern {8811/311/11/1}
 Group   2 Type O   : 18s5p2d1f contracted to 4s3p2d1f pattern {8811/311/11/1}
 Group   3 Type N   : 18s5p2d1f contracted to 4s3p2d1f pattern {8811/311/11/1}
 Group   4 Type S   : 41s16p2d1f contracted to 5s4p2d1f pattern {13131311/7711/11/1}
 Group   5 Type H   : 5s2p1d contracted to 3s2p1d pattern {311/11/1}

Atom   0C    basis set group =>   1
Atom   1C    basis set group =>   1
Atom   2O    basis set group =>   2
Atom   3C    basis set group =>   1
Atom   4O    basis set group =>   2
Atom   5C    basis set group =>   1
Atom   6C    basis set group =>   1
Atom   7C    basis set group =>   1
Atom   8N    basis set group =>   3
Atom   9C    basis set group =>   1
Atom  10S    basis set group =>   4
Atom  11N    basis set group =>   3
Atom  12C    basis set group =>   1
Atom  13C    basis set group =>   1
Atom  14C    basis set group =>   1
Atom  15C    basis set group =>   1
Atom  16C    basis set group =>   1
Atom  17C    basis set group =>   1
Atom  18O    basis set group =>   2
Atom  19C    basis set group =>   1
Atom  20H    basis set group =>   5
Atom  21H    basis set group =>   5
Atom  22H    basis set group =>   5
Atom  23H    basis set group =>   5
Atom  24H    basis set group =>   5
Atom  25H    basis set group =>   5
Atom  26H    basis set group =>   5
Atom  27H    basis set group =>   5
Atom  28H    basis set group =>   5
Atom  29H    basis set group =>   5
Atom  30H    basis set group =>   5
Atom  31H    basis set group =>   5
Atom  32H    basis set group =>   5
Atom  33H    basis set group =>   5
Atom  34H    basis set group =>   5
Atom  35H    basis set group =>   5
---------------------------------
AUXILIARY/C BASIS SET INFORMATION
---------------------------------
There are 5 groups of distinct atoms

 Group   1 Type C   : 8s6p5d3f1g contracted to 8s6p5d3f1g pattern {11111111/111111/11111/111/1}
 Group   2 Type O   : 8s6p5d3f1g contracted to 8s6p5d3f1g pattern {11111111/111111/11111/111/1}
 Group   3 Type N   : 8s6p5d3f1g contracted to 8s6p5d3f1g pattern {11111111/111111/11111/111/1}
 Group   4 Type S   : 10s8p7d5f2g contracted to 10s8p7d5f2g pattern {1111111111/11111111/1111111/11111/11}
 Group   5 Type H   : 4s3p2d1f contracted to 4s3p2d1f pattern {1111/111/11/1}

Atom   0C    basis set group =>   1
Atom   1C    basis set group =>   1
Atom   2O    basis set group =>   2
Atom   3C    basis set group =>   1
Atom   4O    basis set group =>   2
Atom   5C    basis set group =>   1
Atom   6C    basis set group =>   1
Atom   7C    basis set group =>   1
Atom   8N    basis set group =>   3
Atom   9C    basis set group =>   1
Atom  10S    basis set group =>   4
Atom  11N    basis set group =>   3
Atom  12C    basis set group =>   1
Atom  13C    basis set group =>   1
Atom  14C    basis set group =>   1
Atom  15C    basis set group =>   1
Atom  16C    basis set group =>   1
Atom  17C    basis set group =>   1
Atom  18O    basis set group =>   2
Atom  19C    basis set group =>   1
Atom  20H    basis set group =>   5
Atom  21H    basis set group =>   5
Atom  22H    basis set group =>   5
Atom  23H    basis set group =>   5
Atom  24H    basis set group =>   5
Atom  25H    basis set group =>   5
Atom  26H    basis set group =>   5
Atom  27H    basis set group =>   5
Atom  28H    basis set group =>   5
Atom  29H    basis set group =>   5
Atom  30H    basis set group =>   5
Atom  31H    basis set group =>   5
Atom  32H    basis set group =>   5
Atom  33H    basis set group =>   5
Atom  34H    basis set group =>   5
Atom  35H    basis set group =>   5
------------------------------------------------------------------------------
                           ORCA GTO INTEGRAL CALCULATION
------------------------------------------------------------------------------
------------------------------------------------------------------------------
                   ___                                                        
                  /   \      - P O W E R E D   B Y -                         
                 /     \                                                     
                 |  |  |   _    _      __       _____    __    __             
                 |  |  |  | |  | |    /  \     |  _  \  |  |  /  |          
                  \  \/   | |  | |   /    \    | | | |  |  | /  /          
                 / \  \   | |__| |  /  /\  \   | |_| |  |  |/  /          
                |  |  |   |  __  | /  /__\  \  |    /   |      \           
                |  |  |   | |  | | |   __   |  |    \   |  |\   \          
                \     /   | |  | | |  |  |  |  | |\  \  |  | \   \       
                 \___/    |_|  |_| |__|  |__|  |_| \__\ |__|  \__/        
                                                                              
                      - O R C A' S   B I G   F R I E N D -                    
                                      &                                       
                       - I N T E G R A L  F E E D E R -                       
                                                                              
 v1 FN, 2020, v2 2021                                                         
------------------------------------------------------------------------------


Reading SHARK input file qm_input.solv.SHARKINP.tmp ... ok
----------------------
SHARK INTEGRAL PACKAGE
----------------------

Number of atoms                             ...     36
Number of basis functions                   ...    828
Number of shells                            ...    298
Maximum angular momentum                    ...      3
Integral batch strategy                     ... SHARK/LIBINT Hybrid
RI-J (if used) integral strategy            ... SPLIT-RIJ (Revised 2003 algorithm where possible)
Printlevel                                  ...      1
Contraction scheme used                     ... SEGMENTED contraction
Coulomb Range Separation                    ... NOT USED
Exchange Range Separation                   ... NOT USED
Finite Nucleus Model                        ... NOT USED
Auxiliary Coulomb fitting basis             ... NOT available
Auxiliary J/K fitting basis                 ... NOT available
Auxiliary Correlation fitting basis         ... AVAILABLE
   # of basis functions in Aux-C            ...   2141
   # of shells in Aux-C                     ...    629
   Maximum angular momentum in Aux-C        ...      4
Auxiliary 'external' fitting basis          ... NOT available
Integral threshold                          ...     2.500000e-11
Primitive cut-off                           ...     2.500000e-12
Primitive pair pre-selection threshold      ...     2.500000e-12

Calculating pre-screening integrals         ... done (  0.5 sec) Dimension = 298
Organizing shell pair data                  ... done (  0.4 sec)
Shell pair information
Total number of shell pairs                 ...     44551
Shell pairs after pre-screening             ...     31344
Total number of primitive shell pairs       ...    234348
Primitive shell pairs kept                  ...     91128
          la=0 lb=0:   6274 shell pairs
          la=1 lb=0:   8730 shell pairs
          la=1 lb=1:   3087 shell pairs
          la=2 lb=0:   4977 shell pairs
          la=2 lb=1:   3427 shell pairs
          la=2 lb=2:    962 shell pairs
          la=3 lb=0:   1816 shell pairs
          la=3 lb=1:   1240 shell pairs
          la=3 lb=2:    693 shell pairs
          la=3 lb=3:    138 shell pairs

Reading point charge file                   ... ok (42915 point charges)
Calculating one electron integrals          ... done (214.3 sec)
Calculating RI/C V-Matrix + Cholesky decomp.... done (  0.3 sec)
Calculating Nuclear repulsion               ... (+Point charges) done (  0.0 sec) ENN=   1570.807009610797 Eh

SHARK setup successfully completed in 215.8 seconds

Maximum memory used throughout the entire GTOINT-calculation: 466.1 MB
ENUC WAS=  0.000000000
ENUC IS =  0.000000000
-------------------------------------------------------------------------------
                                 ORCA SCF
-------------------------------------------------------------------------------

------------
SCF SETTINGS
------------
Hamiltonian:
 Ab initio Hamiltonian  Method          .... Hartree-Fock(GTOs)


General Settings:
 Integral files         IntName         .... qm_input.solv
 Hartree-Fock type      HFTyp           .... RHF
 Total Charge           Charge          ....    0
 Multiplicity           Mult            ....    1
 Number of Electrons    NEL             ....  154
 Basis Dimension        Dim             ....  828
 Nuclear Repulsion      ENuc            ....   1570.8070096108 Eh

Convergence Acceleration:
 DIIS                   CNVDIIS         .... on
   Start iteration      DIISMaxIt       ....    12
   Startup error        DIISStart       ....  0.200000
   # of expansion vecs  DIISMaxEq       ....     5
   Bias factor          DIISBfac        ....   1.050
   Max. coefficient     DIISMaxC        ....  10.000
 Trust-Rad. Augm. Hess. CNVTRAH         .... auto
   Auto Start mean grad. ratio tolernc. ....  1.125000
   Auto Start start iteration           ....    20
   Auto Start num. interpolation iter.  ....    10
   Max. Number of Micro iterations      ....    16
   Max. Number of Macro iterations      .... Maxiter - #DIIS iter
   Number of Davidson start vectors     ....     2
   Converg. threshold I  (grad. norm)   ....   1.000e-05
   Converg. threshold II (energy diff.) ....   1.000e-08
   Grad. Scal. Fac. for Micro threshold ....   0.100
   Minimum threshold for Micro iter.    ....   0.010
   NR start threshold (gradient norm)   ....   0.001
   Initial trust radius                 ....   0.400
   Minimum AH scaling param. (alpha)    ....   1.000
   Maximum AH scaling param. (alpha)    .... 1000.000
   Orbital update algorithm             .... Taylor
   White noise on init. David. guess    .... on
   Maximum white noise                  ....   0.010
   Quad. conv. algorithm                .... NR
 SOSCF                  CNVSOSCF        .... on
   Start iteration      SOSCFMaxIt      ....   150
   Startup grad/error   SOSCFStart      ....  0.003300
 Level Shifting         CNVShift        .... on
   Level shift para.    LevelShift      ....    0.2500
   Turn off err/grad.   ShiftErr        ....    0.0010
 Zerner damping         CNVZerner       .... off
 Static damping         CNVDamp         .... on
   Fraction old density DampFac         ....    0.7000
   Max. Damping (<1)    DampMax         ....    0.9800
   Min. Damping (>=0)   DampMin         ....    0.0000
   Turn off err/grad.   DampErr         ....    0.1000
 Fernandez-Rico         CNVRico         .... off

SCF Procedure:
 Maximum # iterations   MaxIter         ....   125
 SCF integral mode      SCFMode         .... Direct
   Integral package                     .... SHARK and LIBINT hybrid scheme
 Reset frequency        DirectResetFreq ....    20
 Integral Threshold     Thresh          ....  2.500e-11 Eh
 Primitive CutOff       TCut            ....  2.500e-12 Eh

Convergence Tolerance:
 Convergence Check Mode ConvCheckMode   .... Total+1el-Energy
 Convergence forced     ConvForced      .... 1
 Energy Change          TolE            ....  1.000e-08 Eh
 1-El. energy change                    ....  1.000e-05 Eh
 Orbital Gradient       TolG            ....  1.000e-05
 Orbital Rotation angle TolX            ....  1.000e-05
 DIIS Error             TolErr          ....  5.000e-07


Diagonalization of the overlap matrix:
Smallest eigenvalue                        ... 4.430e-05
Time for diagonalization                   ...    0.133 sec
Threshold for overlap eigenvalues          ... 1.000e-08
Number of eigenvalues below threshold      ... 0
Time for construction of square roots      ...    0.058 sec
Total time needed                          ...    0.194 sec

Time for model grid setup =    1.385 sec

------------------------------
INITIAL GUESS: MODEL POTENTIAL
------------------------------
Loading Hartree-Fock densities                     ... done
Calculating cut-offs                               ... done
Initializing the effective Hamiltonian             ... done
Setting up the integral package (SHARK)            ... done
Starting the Coulomb interaction                   ... done (   4.2 sec)
Reading the grid                                   ... done
Mapping shells                                     ... done
Starting the XC term evaluation                    ... done (   1.3 sec)
Transforming the Hamiltonian                       ... done (   0.1 sec)
Diagonalizing the Hamiltonian                      ... done (   0.1 sec)
Back transforming the eigenvectors                 ... done (   0.0 sec)
Now organizing SCF variables                       ... done
                      ------------------
                      INITIAL GUESS DONE (   7.2 sec)
                      ------------------
--------------
SCF ITERATIONS
--------------
ITER       Energy         Delta-E        Max-DP      RMS-DP      [F,P]     Damp
               ***  Starting incremental Fock matrix formation  ***
  0  -1270.0447017639   0.000000000000 0.04745765  0.00049970  0.3664703 0.7000
  1  -1270.3380372410  -0.293335477095 0.03540065  0.00040895  0.2082429 0.7000
                               ***Turning on DIIS***
  2  -1270.5188946464  -0.180857405397 0.02577290  0.00026963  0.1106887 0.7000
  3  -1272.5724838122  -2.053589165742 0.06452514  0.00057111  0.0846352 0.0000
  4  -1270.8734091129   1.699074699260 0.00801280  0.00011598  0.0073171 0.0000
  5  -1270.9158734019  -0.042464288963 0.00433437  0.00006004  0.0043312 0.0000
                      *** Initiating the SOSCF procedure ***
                           *** Shutting down DIIS ***
                      *** Re-Reading the Fockian *** 
                      *** Removing any level shift *** 
ITER      Energy       Delta-E        Grad      Rot      Max-DP    RMS-DP
  6  -1270.89319549   0.0226779137  0.001594  0.001594  0.003210  0.000029
               *** Restarting incremental Fock matrix formation ***
  7  -1270.91046871  -0.0172732227  0.000700  0.001350  0.001977  0.000017
  8  -1270.91052643  -0.0000577235  0.000359  0.001729  0.001943  0.000018
  9  -1270.91054721  -0.0000207723  0.000163  0.000321  0.000630  0.000005
 10  -1270.91054975  -0.0000025440  0.000039  0.000102  0.000167  0.000001
 11  -1270.91054993  -0.0000001797  0.000026  0.000134  0.000075  0.000001
 12  -1270.91054999  -0.0000000599  0.000012  0.000046  0.000029  0.000000
 13  -1270.91054999  -0.0000000043  0.000003  0.000011  0.000014  0.000000
                  ***Gradient check signals convergence***
              ***Rediagonalizing the Fockian in SOSCF/NRSCF***

               *****************************************************
               *                     SUCCESS                       *
               *           SCF CONVERGED AFTER  14 CYCLES          *
               *****************************************************


----------------
TOTAL SCF ENERGY
----------------

Total Energy       :        -1270.91054999 Eh          -34583.23424 eV

Components:
Nuclear Repulsion  :         1570.80700961 Eh           42743.83179 eV
Electronic Energy  :        -2841.71755960 Eh          -77327.06603 eV
One Electron Energy:        -4954.71745075 Eh         -134824.71619 eV
Two Electron Energy:         2112.99989115 Eh           57497.65016 eV

Virial components:
Potential Energy   :        -2539.77119390 Eh          -69110.68771 eV
Kinetic Energy     :         1268.86064391 Eh           34527.45346 eV
Virial Ratio       :            2.00161555


---------------
SCF CONVERGENCE
---------------

  Last Energy change         ...    6.6993e-09  Tolerance :   1.0000e-08
  Last MAX-Density change    ...    2.5821e-06  Tolerance :   1.0000e-07
  Last RMS-Density change    ...    4.0212e-08  Tolerance :   5.0000e-09
  Last Orbital Gradient      ...    1.0095e-06  Tolerance :   1.0000e-05
  Last Orbital Rotation      ...    4.5650e-06  Tolerance :   1.0000e-05

             **** THE GBW FILE WAS UPDATED (qm_input.solv.gbw) ****
             **** DENSITY qm_input.solv.scfp WAS UPDATED ****
             **** ENERGY FILE WAS UPDATED (qm_input.solv.en.tmp) ****
             **** THE GBW FILE WAS UPDATED (qm_input.solv.gbw) ****
             **** DENSITY qm_input.solv.scfp WAS UPDATED ****
----------------
ORBITAL ENERGIES
----------------

  NO   OCC          E(Eh)            E(eV) 
   0   2.0000     -91.332433     -2485.2819 
   1   2.0000     -19.993127      -544.0406 
   2   2.0000     -19.985659      -543.8374 
   3   2.0000     -19.962614      -543.2103 
   4   2.0000     -15.039658      -409.2499 
   5   2.0000     -15.020382      -408.7254 
   6   2.0000     -10.823425      -294.5204 
   7   2.0000     -10.807383      -294.0838 
   8   2.0000     -10.738349      -292.2053 
   9   2.0000     -10.706173      -291.3298 
  10   2.0000     -10.705154      -291.3021 
  11   2.0000     -10.675701      -290.5006 
  12   2.0000     -10.667327      -290.2727 
  13   2.0000     -10.658300      -290.0271 
  14   2.0000     -10.656481      -289.9776 
  15   2.0000     -10.644071      -289.6399 
  16   2.0000     -10.643312      -289.6193 
  17   2.0000     -10.642777      -289.6047 
  18   2.0000     -10.638035      -289.4756 
  19   2.0000     -10.610217      -288.7187 
  20   2.0000      -8.337595      -226.8775 
  21   2.0000      -6.019446      -163.7975 
  22   2.0000      -6.017536      -163.7455 
  23   2.0000      -6.017138      -163.7346 
  24   2.0000      -0.851852       -23.1801 
  25   2.0000      -0.797331       -21.6965 
  26   2.0000      -0.762904       -20.7597 
  27   2.0000      -0.761184       -20.7129 
  28   2.0000      -0.655905       -17.8481 
  29   2.0000      -0.554574       -15.0907 
  30   2.0000      -0.525316       -14.2946 
  31   2.0000      -0.440661       -11.9910 
  32   2.0000      -0.428418       -11.6579 
  33   2.0000      -0.416398       -11.3308 
  34   2.0000      -0.401177       -10.9166 
  35   2.0000      -0.392493       -10.6803 
  36   2.0000      -0.328509        -8.9392 
  37   2.0000      -0.282327        -7.6825 
  38   2.0000      -0.267392        -7.2761 
  39   2.0000      -0.240024        -6.5314 
  40   2.0000      -0.222042        -6.0421 
  41   2.0000      -0.209136        -5.6909 
  42   2.0000      -0.155836        -4.2405 
  43   2.0000      -0.151020        -4.1095 
  44   2.0000      -0.122364        -3.3297 
  45   2.0000      -0.102654        -2.7933 
  46   2.0000      -0.091908        -2.5010 
  47   2.0000      -0.082691        -2.2501 
  48   2.0000      -0.071842        -1.9549 
  49   2.0000      -0.064504        -1.7553 
  50   2.0000      -0.050922        -1.3857 
  51   2.0000      -0.043483        -1.1832 
  52   2.0000      -0.027820        -0.7570 
  53   2.0000      -0.017586        -0.4785 
  54   2.0000       0.005480         0.1491 
  55   2.0000       0.006116         0.1664 
  56   2.0000       0.013796         0.3754 
  57   2.0000       0.020469         0.5570 
  58   2.0000       0.029788         0.8106 
  59   2.0000       0.036392         0.9903 
  60   2.0000       0.040475         1.1014 
  61   2.0000       0.056834         1.5465 
  62   2.0000       0.060390         1.6433 
  63   2.0000       0.071047         1.9333 
  64   2.0000       0.080826         2.1994 
  65   2.0000       0.085760         2.3337 
  66   2.0000       0.099330         2.7029 
  67   2.0000       0.113185         3.0799 
  68   2.0000       0.120433         3.2772 
  69   2.0000       0.136659         3.7187 
  70   2.0000       0.138830         3.7778 
  71   2.0000       0.151488         4.1222 
  72   2.0000       0.221843         6.0367 
  73   2.0000       0.230509         6.2725 
  74   2.0000       0.250214         6.8087 
  75   2.0000       0.255131         6.9425 
  76   2.0000       0.278797         7.5864 
  77   0.0000       0.656844        17.8736 
  78   0.0000       0.705590        19.2001 
  79   0.0000       0.725613        19.7449 
  80   0.0000       0.735841        20.0232 
  81   0.0000       0.751541        20.4505 
  82   0.0000       0.765590        20.8328 
  83   0.0000       0.772367        21.0172 
  84   0.0000       0.775881        21.1128 
  85   0.0000       0.781579        21.2679 
  86   0.0000       0.797314        21.6960 
  87   0.0000       0.804287        21.8858 
  88   0.0000       0.809652        22.0318 
  89   0.0000       0.814793        22.1716 
  90   0.0000       0.820709        22.3326 
  91   0.0000       0.823775        22.4161 
  92   0.0000       0.827443        22.5159 
  93   0.0000       0.843223        22.9453 
  94   0.0000       0.848862        23.0987 
  95   0.0000       0.853245        23.2180 
  96   0.0000       0.860202        23.4073 
  97   0.0000       0.862981        23.4829 
  98   0.0000       0.883153        24.0318 
  99   0.0000       0.892781        24.2938 
 100   0.0000       0.898297        24.4439 
 101   0.0000       0.914225        24.8773 
 102   0.0000       0.916656        24.9435 
 103   0.0000       0.923284        25.1238 
 104   0.0000       0.925585        25.1864 
 105   0.0000       0.936591        25.4859 
 106   0.0000       0.942648        25.6507 
 107   0.0000       0.951105        25.8809 
 108   0.0000       0.958706        26.0877 
 109   0.0000       0.971188        26.4274 
 110   0.0000       0.977911        26.6103 
 111   0.0000       0.982350        26.7311 
 112   0.0000       0.990495        26.9527 
 113   0.0000       0.994966        27.0744 
 114   0.0000       1.002297        27.2739 
 115   0.0000       1.010046        27.4848 
 116   0.0000       1.011025        27.5114 
 117   0.0000       1.015884        27.6436 
 118   0.0000       1.017342        27.6833 
 119   0.0000       1.029285        28.0083 
 120   0.0000       1.032678        28.1006 
 121   0.0000       1.042806        28.3762 
 122   0.0000       1.049819        28.5670 
 123   0.0000       1.052623        28.6433 
 124   0.0000       1.065683        28.9987 
 125   0.0000       1.067872        29.0583 
 126   0.0000       1.070019        29.1167 
 127   0.0000       1.075456        29.2647 
 128   0.0000       1.081592        29.4316 
 129   0.0000       1.089307        29.6416 
 130   0.0000       1.091996        29.7147 
 131   0.0000       1.099554        29.9204 
 132   0.0000       1.108285        30.1580 
 133   0.0000       1.109886        30.2015 
 134   0.0000       1.114987        30.3403 
 135   0.0000       1.116349        30.3774 
 136   0.0000       1.126788        30.6615 
 137   0.0000       1.132123        30.8066 
 138   0.0000       1.141326        31.0570 
 139   0.0000       1.143593        31.1187 
 140   0.0000       1.157165        31.4881 
 141   0.0000       1.159623        31.5549 
 142   0.0000       1.162988        31.6465 
 143   0.0000       1.166183        31.7334 
 144   0.0000       1.176113        32.0037 
 145   0.0000       1.179758        32.1029 
 146   0.0000       1.184446        32.2304 
 147   0.0000       1.187079        32.3021 
 148   0.0000       1.193048        32.4645 
 149   0.0000       1.198093        32.6018 
 150   0.0000       1.205756        32.8103 
 151   0.0000       1.213859        33.0308 
 152   0.0000       1.215531        33.0763 
 153   0.0000       1.215974        33.0883 
 154   0.0000       1.222343        33.2616 
 155   0.0000       1.228147        33.4196 
 156   0.0000       1.234345        33.5882 
 157   0.0000       1.242033        33.7974 
 158   0.0000       1.245921        33.9032 
 159   0.0000       1.248840        33.9827 
 160   0.0000       1.256712        34.1969 
 161   0.0000       1.261259        34.3206 
 162   0.0000       1.267927        34.5020 
 163   0.0000       1.270722        34.5781 
 164   0.0000       1.277465        34.7616 
 165   0.0000       1.279737        34.8234 
 166   0.0000       1.285634        34.9839 
 167   0.0000       1.291653        35.1477 
 168   0.0000       1.291962        35.1561 
 169   0.0000       1.294594        35.2277 
 170   0.0000       1.304535        35.4982 
 171   0.0000       1.305057        35.5124 
 172   0.0000       1.311257        35.6811 
 173   0.0000       1.314868        35.7794 
 174   0.0000       1.320347        35.9285 
 175   0.0000       1.326634        36.0995 
 176   0.0000       1.331464        36.2310 
 177   0.0000       1.334359        36.3098 
 178   0.0000       1.338019        36.4094 
 179   0.0000       1.361689        37.0534 
 180   0.0000       1.362771        37.0829 
 181   0.0000       1.366923        37.1959 
 182   0.0000       1.374163        37.3929 
 183   0.0000       1.380712        37.5711 
 184   0.0000       1.397697        38.0333 
 185   0.0000       1.408947        38.3394 
 186   0.0000       1.413855        38.4730 
 187   0.0000       1.420542        38.6549 
 188   0.0000       1.424282        38.7567 
 189   0.0000       1.428061        38.8595 
 190   0.0000       1.439508        39.1710 
 191   0.0000       1.447942        39.4005 
 192   0.0000       1.449827        39.4518 
 193   0.0000       1.452325        39.5198 
 194   0.0000       1.463344        39.8196 
 195   0.0000       1.476347        40.1735 
 196   0.0000       1.480907        40.2975 
 197   0.0000       1.488544        40.5053 
 198   0.0000       1.493322        40.6354 
 199   0.0000       1.495505        40.6948 
 200   0.0000       1.505101        40.9559 
 201   0.0000       1.510872        41.1129 
 202   0.0000       1.517272        41.2871 
 203   0.0000       1.526332        41.5336 
 204   0.0000       1.536079        41.7988 
 205   0.0000       1.541441        41.9448 
 206   0.0000       1.548455        42.1356 
 207   0.0000       1.552558        42.2472 
 208   0.0000       1.561736        42.4970 
 209   0.0000       1.568997        42.6946 
 210   0.0000       1.574848        42.8538 
 211   0.0000       1.578666        42.9577 
 212   0.0000       1.580945        43.0197 
 213   0.0000       1.590722        43.2858 
 214   0.0000       1.609220        43.7891 
 215   0.0000       1.616172        43.9783 
 216   0.0000       1.617591        44.0169 
 217   0.0000       1.632032        44.4098 
 218   0.0000       1.637137        44.5488 
 219   0.0000       1.638471        44.5851 
 220   0.0000       1.647930        44.8425 
 221   0.0000       1.656009        45.0623 
 222   0.0000       1.664194        45.2850 
 223   0.0000       1.666830        45.3567 
 224   0.0000       1.675729        45.5989 
 225   0.0000       1.677509        45.6473 
 226   0.0000       1.690082        45.9895 
 227   0.0000       1.697838        46.2005 
 228   0.0000       1.705820        46.4177 
 229   0.0000       1.708939        46.5026 
 230   0.0000       1.712382        46.5963 
 231   0.0000       1.723493        46.8986 
 232   0.0000       1.726714        46.9863 
 233   0.0000       1.738018        47.2939 
 234   0.0000       1.750172        47.6246 
 235   0.0000       1.755769        47.7769 
 236   0.0000       1.762687        47.9652 
 237   0.0000       1.767647        48.1001 
 238   0.0000       1.775025        48.3009 
 239   0.0000       1.777692        48.3735 
 240   0.0000       1.787931        48.6521 
 241   0.0000       1.799282        48.9610 
 242   0.0000       1.808785        49.2195 
 243   0.0000       1.815142        49.3925 
 244   0.0000       1.819359        49.5073 
 245   0.0000       1.832865        49.8748 
 246   0.0000       1.838376        50.0248 
 247   0.0000       1.841491        50.1095 
 248   0.0000       1.849857        50.3372 
 249   0.0000       1.861700        50.6594 
 250   0.0000       1.866203        50.7820 
 251   0.0000       1.870651        50.9030 
 252   0.0000       1.876323        51.0574 
 253   0.0000       1.886143        51.3246 
 254   0.0000       1.893188        51.5163 
 255   0.0000       1.903874        51.8070 
 256   0.0000       1.910614        51.9905 
 257   0.0000       1.912388        52.0387 
 258   0.0000       1.922547        52.3152 
 259   0.0000       1.931537        52.5598 
 260   0.0000       1.937814        52.7306 
 261   0.0000       1.946791        52.9749 
 262   0.0000       1.957149        53.2567 
 263   0.0000       1.966532        53.5120 
 264   0.0000       1.970846        53.6294 
 265   0.0000       1.978573        53.8397 
 266   0.0000       1.997575        54.3568 
 267   0.0000       2.005885        54.5829 
 268   0.0000       2.006485        54.5992 
 269   0.0000       2.008580        54.6562 
 270   0.0000       2.020832        54.9896 
 271   0.0000       2.023594        55.0648 
 272   0.0000       2.031821        55.2887 
 273   0.0000       2.036432        55.4141 
 274   0.0000       2.056606        55.9631 
 275   0.0000       2.060698        56.0744 
 276   0.0000       2.075794        56.4852 
 277   0.0000       2.086151        56.7671 
 278   0.0000       2.090561        56.8871 
 279   0.0000       2.099488        57.1300 
 280   0.0000       2.105721        57.2996 
 281   0.0000       2.113245        57.5043 
 282   0.0000       2.115096        57.5547 
 283   0.0000       2.119328        57.6699 
 284   0.0000       2.124955        57.8230 
 285   0.0000       2.133031        58.0427 
 286   0.0000       2.135326        58.1052 
 287   0.0000       2.136988        58.1504 
 288   0.0000       2.147112        58.4259 
 289   0.0000       2.150287        58.5123 
 290   0.0000       2.166299        58.9480 
 291   0.0000       2.169023        59.0221 
 292   0.0000       2.175288        59.1926 
 293   0.0000       2.190297        59.6010 
 294   0.0000       2.194156        59.7060 
 295   0.0000       2.197262        59.7905 
 296   0.0000       2.202116        59.9226 
 297   0.0000       2.222126        60.4671 
 298   0.0000       2.224437        60.5300 
 299   0.0000       2.226099        60.5752 
 300   0.0000       2.231916        60.7335 
 301   0.0000       2.242345        61.0173 
 302   0.0000       2.249359        61.2082 
 303   0.0000       2.258019        61.4438 
 304   0.0000       2.261186        61.5300 
 305   0.0000       2.267881        61.7122 
 306   0.0000       2.269479        61.7557 
 307   0.0000       2.272327        61.8332 
 308   0.0000       2.287722        62.2521 
 309   0.0000       2.294957        62.4489 
 310   0.0000       2.302951        62.6665 
 311   0.0000       2.313553        62.9550 
 312   0.0000       2.321044        63.1588 
 313   0.0000       2.329970        63.4017 
 314   0.0000       2.354651        64.0733 
 315   0.0000       2.357240        64.1438 
 316   0.0000       2.362371        64.2834 
 317   0.0000       2.367394        64.4201 
 318   0.0000       2.376233        64.6606 
 319   0.0000       2.395877        65.1951 
 320   0.0000       2.409828        65.5748 
 321   0.0000       2.419843        65.8473 
 322   0.0000       2.427926        66.0672 
 323   0.0000       2.433620        66.2222 
 324   0.0000       2.454359        66.7865 
 325   0.0000       2.458735        66.9056 
 326   0.0000       2.464240        67.0554 
 327   0.0000       2.480358        67.4940 
 328   0.0000       2.487015        67.6751 
 329   0.0000       2.503420        68.1215 
 330   0.0000       2.508374        68.2563 
 331   0.0000       2.522734        68.6471 
 332   0.0000       2.528763        68.8111 
 333   0.0000       2.536255        69.0150 
 334   0.0000       2.550886        69.4131 
 335   0.0000       2.558553        69.6218 
 336   0.0000       2.569555        69.9211 
 337   0.0000       2.573647        70.0325 
 338   0.0000       2.587454        70.4082 
 339   0.0000       2.590510        70.4914 
 340   0.0000       2.597961        70.6941 
 341   0.0000       2.614815        71.1527 
 342   0.0000       2.626889        71.4813 
 343   0.0000       2.645020        71.9746 
 344   0.0000       2.672957        72.7348 
 345   0.0000       2.692078        73.2552 
 346   0.0000       2.706009        73.6342 
 347   0.0000       2.713216        73.8304 
 348   0.0000       2.733400        74.3796 
 349   0.0000       2.760765        75.1242 
 350   0.0000       2.764841        75.2351 
 351   0.0000       2.770271        75.3829 
 352   0.0000       2.781236        75.6813 
 353   0.0000       2.794013        76.0289 
 354   0.0000       2.795588        76.0718 
 355   0.0000       2.826299        76.9075 
 356   0.0000       2.844941        77.4148 
 357   0.0000       2.850032        77.5533 
 358   0.0000       2.865391        77.9713 
 359   0.0000       2.877564        78.3025 
 360   0.0000       2.885799        78.5266 
 361   0.0000       2.894196        78.7551 
 362   0.0000       2.902590        78.9835 
 363   0.0000       2.927211        79.6534 
 364   0.0000       2.945751        80.1580 
 365   0.0000       2.948775        80.2402 
 366   0.0000       2.957634        80.4813 
 367   0.0000       2.975194        80.9591 
 368   0.0000       2.982181        81.1493 
 369   0.0000       3.004214        81.7488 
 370   0.0000       3.016653        82.0873 
 371   0.0000       3.034865        82.5829 
 372   0.0000       3.040949        82.7484 
 373   0.0000       3.065986        83.4297 
 374   0.0000       3.074359        83.6576 
 375   0.0000       3.084525        83.9342 
 376   0.0000       3.103628        84.4540 
 377   0.0000       3.117308        84.8263 
 378   0.0000       3.125938        85.0611 
 379   0.0000       3.141203        85.4765 
 380   0.0000       3.157706        85.9255 
 381   0.0000       3.165757        86.1446 
 382   0.0000       3.172576        86.3302 
 383   0.0000       3.187345        86.7321 
 384   0.0000       3.198014        87.0224 
 385   0.0000       3.209839        87.3442 
 386   0.0000       3.221403        87.6588 
 387   0.0000       3.239228        88.1439 
 388   0.0000       3.257839        88.6503 
 389   0.0000       3.267579        88.9153 
 390   0.0000       3.282078        89.3099 
 391   0.0000       3.287642        89.4613 
 392   0.0000       3.292554        89.5949 
 393   0.0000       3.300814        89.8197 
 394   0.0000       3.304715        89.9259 
 395   0.0000       3.312303        90.1324 
 396   0.0000       3.328251        90.5663 
 397   0.0000       3.341396        90.9240 
 398   0.0000       3.349035        91.1319 
 399   0.0000       3.351769        91.2063 
 400   0.0000       3.360850        91.4534 
 401   0.0000       3.365488        91.5796 
 402   0.0000       3.392548        92.3159 
 403   0.0000       3.407932        92.7345 
 404   0.0000       3.415118        92.9301 
 405   0.0000       3.420402        93.0739 
 406   0.0000       3.428718        93.3002 
 407   0.0000       3.440802        93.6290 
 408   0.0000       3.444033        93.7169 
 409   0.0000       3.447974        93.8241 
 410   0.0000       3.459400        94.1351 
 411   0.0000       3.483234        94.7836 
 412   0.0000       3.497778        95.1794 
 413   0.0000       3.508414        95.4688 
 414   0.0000       3.520041        95.7852 
 415   0.0000       3.524360        95.9027 
 416   0.0000       3.531801        96.1052 
 417   0.0000       3.538581        96.2897 
 418   0.0000       3.546323        96.5004 
 419   0.0000       3.552135        96.6585 
 420   0.0000       3.557385        96.8014 
 421   0.0000       3.565813        97.0307 
 422   0.0000       3.578091        97.3648 
 423   0.0000       3.584953        97.5515 
 424   0.0000       3.605035        98.0980 
 425   0.0000       3.607701        98.1705 
 426   0.0000       3.620776        98.5263 
 427   0.0000       3.626460        98.6810 
 428   0.0000       3.634910        98.9109 
 429   0.0000       3.643857        99.1544 
 430   0.0000       3.647410        99.2511 
 431   0.0000       3.650654        99.3393 
 432   0.0000       3.660633        99.6109 
 433   0.0000       3.668503        99.8250 
 434   0.0000       3.672437        99.9321 
 435   0.0000       3.682721       100.2119 
 436   0.0000       3.687443       100.3404 
 437   0.0000       3.702855       100.7598 
 438   0.0000       3.704514       100.8050 
 439   0.0000       3.710518       100.9683 
 440   0.0000       3.718985       101.1987 
 441   0.0000       3.727679       101.4353 
 442   0.0000       3.729936       101.4967 
 443   0.0000       3.743542       101.8670 
 444   0.0000       3.749939       102.0410 
 445   0.0000       3.752644       102.1146 
 446   0.0000       3.768863       102.5560 
 447   0.0000       3.777016       102.7778 
 448   0.0000       3.780964       102.8853 
 449   0.0000       3.787660       103.0675 
 450   0.0000       3.789738       103.1240 
 451   0.0000       3.800308       103.4116 
 452   0.0000       3.808065       103.6227 
 453   0.0000       3.816285       103.8464 
 454   0.0000       3.830019       104.2201 
 455   0.0000       3.834742       104.3486 
 456   0.0000       3.836157       104.3871 
 457   0.0000       3.846724       104.6747 
 458   0.0000       3.848713       104.7288 
 459   0.0000       3.851549       104.8060 
 460   0.0000       3.855196       104.9052 
 461   0.0000       3.865549       105.1869 
 462   0.0000       3.873792       105.4112 
 463   0.0000       3.876638       105.4887 
 464   0.0000       3.888458       105.8103 
 465   0.0000       3.895139       105.9921 
 466   0.0000       3.901173       106.1563 
 467   0.0000       3.908736       106.3621 
 468   0.0000       3.920339       106.6779 
 469   0.0000       3.935050       107.0782 
 470   0.0000       3.939958       107.2117 
 471   0.0000       3.944572       107.3373 
 472   0.0000       3.949553       107.4728 
 473   0.0000       3.954609       107.6104 
 474   0.0000       3.962641       107.8289 
 475   0.0000       3.966163       107.9248 
 476   0.0000       3.972989       108.1105 
 477   0.0000       3.989295       108.5542 
 478   0.0000       3.990795       108.5951 
 479   0.0000       3.994399       108.6931 
 480   0.0000       3.996588       108.7527 
 481   0.0000       4.000692       108.8644 
 482   0.0000       4.013344       109.2086 
 483   0.0000       4.014009       109.2267 
 484   0.0000       4.022301       109.4524 
 485   0.0000       4.028390       109.6181 
 486   0.0000       4.029723       109.6543 
 487   0.0000       4.035128       109.8014 
 488   0.0000       4.039262       109.9139 
 489   0.0000       4.048843       110.1746 
 490   0.0000       4.052279       110.2681 
 491   0.0000       4.054631       110.3321 
 492   0.0000       4.065124       110.6176 
 493   0.0000       4.068141       110.6998 
 494   0.0000       4.073559       110.8472 
 495   0.0000       4.080989       111.0494 
 496   0.0000       4.083652       111.1218 
 497   0.0000       4.089409       111.2785 
 498   0.0000       4.097112       111.4881 
 499   0.0000       4.105685       111.7214 
 500   0.0000       4.110725       111.8585 
 501   0.0000       4.123775       112.2136 
 502   0.0000       4.125437       112.2588 
 503   0.0000       4.135670       112.5373 
 504   0.0000       4.137288       112.5813 
 505   0.0000       4.144025       112.7646 
 506   0.0000       4.154858       113.0594 
 507   0.0000       4.159858       113.1955 
 508   0.0000       4.162598       113.2700 
 509   0.0000       4.174142       113.5842 
 510   0.0000       4.179615       113.7331 
 511   0.0000       4.185944       113.9053 
 512   0.0000       4.188499       113.9748 
 513   0.0000       4.194662       114.1425 
 514   0.0000       4.205759       114.4445 
 515   0.0000       4.213946       114.6673 
 516   0.0000       4.218641       114.7951 
 517   0.0000       4.227661       115.0405 
 518   0.0000       4.231149       115.1354 
 519   0.0000       4.235976       115.2668 
 520   0.0000       4.243880       115.4819 
 521   0.0000       4.249051       115.6226 
 522   0.0000       4.262321       115.9837 
 523   0.0000       4.263065       116.0039 
 524   0.0000       4.268736       116.1582 
 525   0.0000       4.273687       116.2929 
 526   0.0000       4.284770       116.5945 
 527   0.0000       4.286813       116.6501 
 528   0.0000       4.293740       116.8386 
 529   0.0000       4.303281       117.0982 
 530   0.0000       4.306791       117.1937 
 531   0.0000       4.315034       117.4181 
 532   0.0000       4.320371       117.5633 
 533   0.0000       4.330807       117.8473 
 534   0.0000       4.335512       117.9753 
 535   0.0000       4.337816       118.0380 
 536   0.0000       4.343763       118.1998 
 537   0.0000       4.356352       118.5424 
 538   0.0000       4.366928       118.8302 
 539   0.0000       4.377381       119.1146 
 540   0.0000       4.388682       119.4221 
 541   0.0000       4.392205       119.5180 
 542   0.0000       4.399002       119.7029 
 543   0.0000       4.401385       119.7678 
 544   0.0000       4.408899       119.9722 
 545   0.0000       4.415754       120.1588 
 546   0.0000       4.421891       120.3258 
 547   0.0000       4.427511       120.4787 
 548   0.0000       4.438621       120.7810 
 549   0.0000       4.442416       120.8843 
 550   0.0000       4.452696       121.1640 
 551   0.0000       4.456793       121.2755 
 552   0.0000       4.460643       121.3803 
 553   0.0000       4.468937       121.6060 
 554   0.0000       4.471649       121.6798 
 555   0.0000       4.481413       121.9454 
 556   0.0000       4.498296       122.4048 
 557   0.0000       4.507225       122.6478 
 558   0.0000       4.512041       122.7789 
 559   0.0000       4.525878       123.1554 
 560   0.0000       4.531371       123.3049 
 561   0.0000       4.545592       123.6919 
 562   0.0000       4.554881       123.9446 
 563   0.0000       4.560765       124.1047 
 564   0.0000       4.578290       124.5816 
 565   0.0000       4.588064       124.8476 
 566   0.0000       4.593938       125.0074 
 567   0.0000       4.598533       125.1324 
 568   0.0000       4.621163       125.7482 
 569   0.0000       4.623136       125.8019 
 570   0.0000       4.634580       126.1133 
 571   0.0000       4.642561       126.3305 
 572   0.0000       4.645667       126.4150 
 573   0.0000       4.659336       126.7870 
 574   0.0000       4.663650       126.9044 
 575   0.0000       4.664669       126.9321 
 576   0.0000       4.680586       127.3652 
 577   0.0000       4.686294       127.5205 
 578   0.0000       4.703277       127.9827 
 579   0.0000       4.707882       128.1080 
 580   0.0000       4.717247       128.3628 
 581   0.0000       4.728912       128.6803 
 582   0.0000       4.729937       128.7081 
 583   0.0000       4.732949       128.7901 
 584   0.0000       4.745185       129.1230 
 585   0.0000       4.753378       129.3460 
 586   0.0000       4.760103       129.5290 
 587   0.0000       4.771422       129.8370 
 588   0.0000       4.780194       130.0757 
 589   0.0000       4.781243       130.1042 
 590   0.0000       4.783635       130.1693 
 591   0.0000       4.793190       130.4293 
 592   0.0000       4.798930       130.5855 
 593   0.0000       4.810244       130.8934 
 594   0.0000       4.812012       130.9415 
 595   0.0000       4.821835       131.2088 
 596   0.0000       4.822976       131.2398 
 597   0.0000       4.830304       131.4393 
 598   0.0000       4.839380       131.6862 
 599   0.0000       4.842953       131.7835 
 600   0.0000       4.848186       131.9259 
 601   0.0000       4.875537       132.6701 
 602   0.0000       4.880322       132.8003 
 603   0.0000       4.882918       132.8709 
 604   0.0000       4.888544       133.0240 
 605   0.0000       4.903441       133.4294 
 606   0.0000       4.909870       133.6044 
 607   0.0000       4.924011       133.9892 
 608   0.0000       4.926712       134.0627 
 609   0.0000       4.934542       134.2757 
 610   0.0000       4.938092       134.3723 
 611   0.0000       4.945862       134.5837 
 612   0.0000       4.950733       134.7163 
 613   0.0000       4.954550       134.8201 
 614   0.0000       4.961423       135.0072 
 615   0.0000       4.969851       135.2365 
 616   0.0000       4.975795       135.3983 
 617   0.0000       4.985588       135.6647 
 618   0.0000       4.992689       135.8580 
 619   0.0000       5.005672       136.2113 
 620   0.0000       5.012492       136.3968 
 621   0.0000       5.012734       136.4034 
 622   0.0000       5.018258       136.5537 
 623   0.0000       5.033967       136.9812 
 624   0.0000       5.039741       137.1383 
 625   0.0000       5.043780       137.2482 
 626   0.0000       5.056625       137.5978 
 627   0.0000       5.062439       137.7560 
 628   0.0000       5.077842       138.1751 
 629   0.0000       5.080199       138.2392 
 630   0.0000       5.090205       138.5115 
 631   0.0000       5.101851       138.8284 
 632   0.0000       5.110912       139.0750 
 633   0.0000       5.116175       139.2182 
 634   0.0000       5.122489       139.3900 
 635   0.0000       5.136478       139.7707 
 636   0.0000       5.141671       139.9120 
 637   0.0000       5.151037       140.1668 
 638   0.0000       5.157427       140.3407 
 639   0.0000       5.164487       140.5328 
 640   0.0000       5.168954       140.6544 
 641   0.0000       5.191566       141.2697 
 642   0.0000       5.196776       141.4115 
 643   0.0000       5.200292       141.5071 
 644   0.0000       5.206305       141.6708 
 645   0.0000       5.220003       142.0435 
 646   0.0000       5.226174       142.2114 
 647   0.0000       5.236290       142.4867 
 648   0.0000       5.240289       142.5955 
 649   0.0000       5.244871       142.7202 
 650   0.0000       5.259197       143.1100 
 651   0.0000       5.273976       143.5122 
 652   0.0000       5.285556       143.8273 
 653   0.0000       5.292278       144.0102 
 654   0.0000       5.299183       144.1981 
 655   0.0000       5.307334       144.4199 
 656   0.0000       5.321105       144.7946 
 657   0.0000       5.325063       144.9023 
 658   0.0000       5.334049       145.1468 
 659   0.0000       5.340108       145.3117 
 660   0.0000       5.357540       145.7861 
 661   0.0000       5.372710       146.1989 
 662   0.0000       5.385337       146.5425 
 663   0.0000       5.399968       146.9406 
 664   0.0000       5.403258       147.0301 
 665   0.0000       5.430084       147.7601 
 666   0.0000       5.445878       148.1899 
 667   0.0000       5.459283       148.5547 
 668   0.0000       5.477596       149.0530 
 669   0.0000       5.499604       149.6518 
 670   0.0000       5.512516       150.0032 
 671   0.0000       5.543047       150.8340 
 672   0.0000       5.558760       151.2616 
 673   0.0000       5.569434       151.5520 
 674   0.0000       5.594580       152.2363 
 675   0.0000       5.601343       152.4203 
 676   0.0000       5.617207       152.8520 
 677   0.0000       5.629286       153.1807 
 678   0.0000       5.635448       153.3483 
 679   0.0000       5.648620       153.7068 
 680   0.0000       5.653385       153.8364 
 681   0.0000       5.659722       154.0089 
 682   0.0000       5.676930       154.4771 
 683   0.0000       5.705921       155.2660 
 684   0.0000       5.708827       155.3451 
 685   0.0000       5.719388       155.6325 
 686   0.0000       5.724761       155.7787 
 687   0.0000       5.730627       155.9383 
 688   0.0000       5.740809       156.2153 
 689   0.0000       5.751729       156.5125 
 690   0.0000       5.766269       156.9082 
 691   0.0000       5.780513       157.2958 
 692   0.0000       5.789070       157.5286 
 693   0.0000       5.791699       157.6002 
 694   0.0000       5.800385       157.8365 
 695   0.0000       5.814212       158.2128 
 696   0.0000       5.819151       158.3471 
 697   0.0000       5.826876       158.5574 
 698   0.0000       5.836933       158.8310 
 699   0.0000       5.846166       159.0823 
 700   0.0000       5.867620       159.6661 
 701   0.0000       5.872747       159.8056 
 702   0.0000       5.881729       160.0500 
 703   0.0000       5.903493       160.6422 
 704   0.0000       5.924384       161.2107 
 705   0.0000       5.941299       161.6710 
 706   0.0000       5.952864       161.9857 
 707   0.0000       5.977548       162.6574 
 708   0.0000       5.978953       162.6956 
 709   0.0000       5.987567       162.9300 
 710   0.0000       6.001691       163.3143 
 711   0.0000       6.026983       164.0025 
 712   0.0000       6.036479       164.2610 
 713   0.0000       6.062673       164.9737 
 714   0.0000       6.073192       165.2600 
 715   0.0000       6.082220       165.5056 
 716   0.0000       6.089205       165.6957 
 717   0.0000       6.103754       166.0916 
 718   0.0000       6.120071       166.5356 
 719   0.0000       6.138702       167.0426 
 720   0.0000       6.143021       167.1601 
 721   0.0000       6.152657       167.4223 
 722   0.0000       6.181673       168.2119 
 723   0.0000       6.194054       168.5488 
 724   0.0000       6.199722       168.7030 
 725   0.0000       6.212481       169.0502 
 726   0.0000       6.219145       169.2315 
 727   0.0000       6.231480       169.5672 
 728   0.0000       6.235623       169.6799 
 729   0.0000       6.252038       170.1266 
 730   0.0000       6.260232       170.3496 
 731   0.0000       6.279445       170.8724 
 732   0.0000       6.284033       170.9972 
 733   0.0000       6.287330       171.0870 
 734   0.0000       6.300304       171.4400 
 735   0.0000       6.321561       172.0184 
 736   0.0000       6.327310       172.1749 
 737   0.0000       6.341689       172.5661 
 738   0.0000       6.354220       172.9071 
 739   0.0000       6.366899       173.2521 
 740   0.0000       6.375935       173.4980 
 741   0.0000       6.388457       173.8387 
 742   0.0000       6.403560       174.2497 
 743   0.0000       6.424571       174.8215 
 744   0.0000       6.435033       175.1061 
 745   0.0000       6.465642       175.9391 
 746   0.0000       6.473975       176.1658 
 747   0.0000       6.479615       176.3193 
 748   0.0000       6.522390       177.4832 
 749   0.0000       6.532757       177.7654 
 750   0.0000       6.557534       178.4396 
 751   0.0000       6.563629       178.6054 
 752   0.0000       6.579694       179.0426 
 753   0.0000       6.591279       179.3578 
 754   0.0000       6.594284       179.4396 
 755   0.0000       6.612600       179.9380 
 756   0.0000       6.667871       181.4420 
 757   0.0000       6.679446       181.7570 
 758   0.0000       6.693165       182.1303 
 759   0.0000       6.722657       182.9328 
 760   0.0000       6.746509       183.5818 
 761   0.0000       6.759078       183.9239 
 762   0.0000       6.778719       184.4583 
 763   0.0000       6.811952       185.3626 
 764   0.0000       6.833308       185.9438 
 765   0.0000       6.855405       186.5450 
 766   0.0000       6.859184       186.6479 
 767   0.0000       6.884835       187.3459 
 768   0.0000       6.924834       188.4343 
 769   0.0000       6.929616       188.5644 
 770   0.0000       6.934925       188.7089 
 771   0.0000       6.939330       188.8288 
 772   0.0000       6.958539       189.3515 
 773   0.0000       7.017520       190.9564 
 774   0.0000       7.032483       191.3636 
 775   0.0000       7.086408       192.8310 
 776   0.0000       7.091113       192.9590 
 777   0.0000       7.110985       193.4997 
 778   0.0000       7.121631       193.7894 
 779   0.0000       7.250173       197.2872 
 780   0.0000       7.260885       197.5787 
 781   0.0000       7.275852       197.9860 
 782   0.0000       7.299790       198.6374 
 783   0.0000       7.328651       199.4227 
 784   0.0000       7.345527       199.8820 
 785   0.0000       7.367117       200.4694 
 786   0.0000       7.497153       204.0079 
 787   0.0000       7.508276       204.3106 
 788   0.0000       7.512557       204.4271 
 789   0.0000       7.594628       206.6603 
 790   0.0000       7.638406       207.8516 
 791   0.0000       7.651517       208.2084 
 792   0.0000       7.704416       209.6478 
 793   0.0000       7.743507       210.7115 
 794   0.0000       7.798170       212.1990 
 795   0.0000       7.814766       212.6506 
 796   0.0000       7.873795       214.2568 
 797   0.0000       7.883826       214.5298 
 798   0.0000       7.926913       215.7023 
 799   0.0000       7.941567       216.1010 
 800   0.0000       8.031035       218.5356 
 801   0.0000       8.077714       219.8058 
 802   0.0000       8.160871       222.0686 
 803   0.0000       8.197526       223.0660 
 804   0.0000       8.268987       225.0106 
 805   0.0000       8.376507       227.9363 
 806   0.0000       8.468944       230.4517 
 807   0.0000       8.479149       230.7294 
 808   0.0000       8.584224       233.5886 
 809   0.0000       9.890387       269.1311 
 810   0.0000      10.231030       278.4005 
 811   0.0000      11.501831       312.9807 
 812   0.0000      12.171079       331.1919 
 813   0.0000      12.356041       336.2250 
 814   0.0000      12.784296       347.8784 
 815   0.0000      13.203914       359.2968 
 816   0.0000      13.376841       364.0023 
 817   0.0000      13.700671       372.8142 
 818   0.0000      13.857837       377.0909 
 819   0.0000      13.924065       378.8931 
 820   0.0000      14.263264       388.1231 
 821   0.0000      14.503194       394.6520 
 822   0.0000      14.557221       396.1221 
 823   0.0000      14.650353       398.6564 
 824   0.0000      14.742702       401.1693 
 825   0.0000      15.280087       415.7923 
 826   0.0000      15.373241       418.3272 
 827   0.0000      16.177838       440.2213 

                    ********************************
                    * MULLIKEN POPULATION ANALYSIS *
                    ********************************

-----------------------
MULLIKEN ATOMIC CHARGES
-----------------------
   0 C :   -0.269171
   1 C :    0.045020
   2 O :   -0.342619
   3 C :    0.491464
   4 O :   -0.576405
   5 C :   -0.205418
   6 C :    0.200361
   7 C :   -0.277642
   8 N :   -0.122251
   9 C :    0.354678
  10 S :   -0.720411
  11 N :   -0.210057
  12 C :    0.073151
  13 C :    0.006603
  14 C :   -0.284415
  15 C :   -0.157311
  16 C :   -0.284290
  17 C :    0.344425
  18 O :   -0.465195
  19 C :   -0.241699
  20 H :    0.094652
  21 H :    0.101896
  22 H :    0.110839
  23 H :    0.091485
  24 H :    0.094297
  25 H :    0.125750
  26 H :    0.135248
  27 H :    0.140558
  28 H :    0.263564
  29 H :    0.249620
  30 H :    0.157543
  31 H :    0.198179
  32 H :    0.204080
  33 H :    0.180089
  34 H :    0.324471
  35 H :    0.168912
Sum of atomic charges:   -0.0000000

--------------------------------
MULLIKEN REDUCED ORBITAL CHARGES
--------------------------------
  0 C s       :     3.263358  s :     3.263358
      pz      :     1.025324  p :     2.926582
      px      :     0.948981
      py      :     0.952277
      dz2     :     0.014705  d :     0.074714
      dxz     :     0.017597
      dyz     :     0.004908
      dx2y2   :     0.017472
      dxy     :     0.020032
      f0      :     0.000367  f :     0.004517
      f+1     :     0.001167
      f-1     :     0.000359
      f+2     :     0.000100
      f-2     :     0.000626
      f+3     :     0.001107
      f-3     :     0.000791
  1 C s       :     3.168628  s :     3.168628
      pz      :     0.731692  p :     2.626057
      px      :     0.927480
      py      :     0.966885
      dz2     :     0.027678  d :     0.148256
      dxz     :     0.038054
      dyz     :     0.033054
      dx2y2   :     0.023717
      dxy     :     0.025754
      f0      :     0.002491  f :     0.012038
      f+1     :     0.002367
      f-1     :     0.001946
      f+2     :     0.001172
      f-2     :     0.002178
      f+3     :     0.000917
      f-3     :     0.000966
  2 O s       :     3.713409  s :     3.713409
      pz      :     1.511631  p :     4.594146
      px      :     1.488073
      py      :     1.594442
      dz2     :     0.011694  d :     0.032877
      dxz     :     0.005038
      dyz     :     0.003874
      dx2y2   :     0.004279
      dxy     :     0.007993
      f0      :     0.000261  f :     0.002187
      f+1     :     0.000416
      f-1     :     0.000243
      f+2     :     0.000115
      f-2     :     0.000352
[...]
 15 C s       :     2.712808  s :     2.712808
      pz      :     0.879720  p :     2.804705
      px      :     0.951870
      py      :     0.973115
      dz2     :     0.073117  d :     0.406112
      dxz     :     0.066009
      dyz     :     0.051175
      dx2y2   :     0.097847
      dxy     :     0.117964
      f0      :     0.002551  f :     0.039384
      f+1     :     0.004338
      f-1     :     0.005102
      f+2     :     0.006506
      f-2     :     0.005842
      f+3     :     0.007020
      f-3     :     0.008025
 16 C s       :     2.706924  s :     2.706924
      pz      :     0.922584  p :     2.851205
      px      :     0.948123
      py      :     0.980498
      dz2     :     0.042403  d :     0.385767
      dxz     :     0.057978
      dyz     :     0.078276
      dx2y2   :     0.109927
      dxy     :     0.097183
      f0      :     0.004192  f :     0.039538
      f+1     :     0.001826
      f-1     :     0.005105
      f+2     :     0.005056
      f-2     :     0.006437
      f+3     :     0.006883
      f-3     :     0.010039
 17 C s       :     2.701333  s :     2.701333
      pz      :     0.832425  p :     2.690411
      px      :     0.966335
      py      :     0.891651
      dz2     :     0.111493  d :     0.700248
      dxz     :     0.100515
      dyz     :     0.136993
      dx2y2   :     0.171597
      dxy     :     0.179651
      f0      :     0.007538  f :     0.096357
      f+1     :     0.008919
      f-1     :     0.013795
      f+2     :     0.013788
      f-2     :     0.015338
      f+3     :     0.014652
      f-3     :     0.022327
 18 O s       :     3.196475  s :     3.196475
      pz      :     1.567063  p :     4.403880
      px      :     1.327514
      py      :     1.509303
      dz2     :     0.009006  d :     0.067509
      dxz     :     0.008341
      dyz     :     0.013518
      dx2y2   :     0.017805
      dxy     :     0.018839
      f0      :     0.000333  f :     0.004772
      f+1     :     0.000446
      f-1     :     0.000578
      f+2     :     0.000695
      f-2     :     0.000713
      f+3     :     0.000954
      f-3     :     0.001053
 19 C s       :     2.697087  s :     2.697087
      pz      :     0.916503  p :     2.847616
      px      :     0.971172
      py      :     0.959941
      dz2     :     0.061778  d :     0.394030
      dxz     :     0.070738
      dyz     :     0.048078
      dx2y2   :     0.102207
      dxy     :     0.111230
      f0      :     0.002951  f :     0.042028
      f+1     :     0.005158
      f-1     :     0.004393
      f+2     :     0.007428
      f-2     :     0.006387
      f+3     :     0.007381
      f-3     :     0.008330
 20 H s       :     0.851659  s :     0.851659
      pz      :     0.055409  p :     0.151459
      px      :     0.054767
      py      :     0.041283
      dz2     :     0.007345  d :     0.027461
      dxz     :     0.006656
      dyz     :     0.004488
      dx2y2   :     0.004295
      dxy     :     0.004677
 21 H s       :     0.847497  s :     0.847497
      pz      :     0.039872  p :     0.149575
      px      :     0.044320
      py      :     0.065383
      dz2     :     0.002971  d :     0.027361
      dxz     :     0.002550
      dyz     :     0.006494
      dx2y2   :     0.007860
      dxy     :     0.007487
 22 H s       :     0.838616  s :     0.838616
      pz      :     0.065123  p :     0.149710
      px      :     0.045861
      py      :     0.038726
      dz2     :     0.008625  d :     0.027508
      dxz     :     0.007883
      dyz     :     0.006776
      dx2y2   :     0.001607
      dxy     :     0.002617
 23 H s       :     0.848158  s :     0.848158
      pz      :     0.048668  p :     0.151663
      px      :     0.053543
      py      :     0.049452
      dz2     :     0.005500  d :     0.027919
      dxz     :     0.006865
      dyz     :     0.005334
      dx2y2   :     0.005250
      dxy     :     0.004970
 24 H s       :     0.859202  s :     0.859202
      pz      :     0.036765  p :     0.146185
      px      :     0.042617
      py      :     0.066802
      dz2     :     0.003672  d :     0.027191
      dxz     :     0.002308
      dyz     :     0.007244
      dx2y2   :     0.006013
      dxy     :     0.007954
 25 H s       :     0.833220  s :     0.833220
      pz      :     0.069282  p :     0.149761
      px      :     0.036462
      py      :     0.044017
      dz2     :     0.008725  d :     0.027525
      dxz     :     0.007090
      dyz     :     0.008537
      dx2y2   :     0.001336
      dxy     :     0.001838
 26 H s       :     0.821317  s :     0.821317
      pz      :     0.057865  p :     0.155236
      px      :     0.040819
      py      :     0.056552
      dz2     :     0.007661  d :     0.028267
      dxz     :     0.003465
      dyz     :     0.006978
      dx2y2   :     0.004482
      dxy     :     0.005681
 27 H s       :     0.824142  s :     0.824142
      pz      :     0.042429  p :     0.152261
      px      :     0.068609
      py      :     0.041223
      dz2     :     0.003585  d :     0.027716
      dxz     :     0.007625
      dyz     :     0.001533
      dx2y2   :     0.007023
      dxy     :     0.007951
 28 H s       :     0.703185  s :     0.703185
      pz      :     0.082818  p :     0.249457
      px      :     0.072262
      py      :     0.094377
      dz2     :     0.012948  d :     0.060369
      dxz     :     0.009860
      dyz     :     0.015871
      dx2y2   :     0.010297
      dxy     :     0.011394
 29 H s       :     0.722240  s :     0.722240
      pz      :     0.043506  p :     0.250884
      px      :     0.100207
      py      :     0.107171
      dz2     :     0.006308  d :     0.060912
      dxz     :     0.005414
      dyz     :     0.010378
      dx2y2   :     0.022639
      dxy     :     0.016172
 30 H s       :     0.813622  s :     0.813622
      pz      :     0.046400  p :     0.154746
      px      :     0.048490
      py      :     0.059856
      dz2     :     0.005717  d :     0.029802
      dxz     :     0.004421
      dyz     :     0.006725
      dx2y2   :     0.006273
      dxy     :     0.006665
 31 H s       :     0.837231  s :     0.837231
      pz      :     0.057359  p :     0.163010
      px      :     0.046664
      py      :     0.058987
      dz2     :     0.005684  d :     0.028019
      dxz     :     0.004524
      dyz     :     0.006303
      dx2y2   :     0.005974
      dxy     :     0.005534
 32 H s       :     0.834238  s :     0.834238
      pz      :     0.036928  p :     0.152859
      px      :     0.045417
      py      :     0.070514
      dz2     :     0.002645  d :     0.026619
      dxz     :     0.001792
      dyz     :     0.005995
      dx2y2   :     0.008093
      dxy     :     0.008094
 33 H s       :     0.830243  s :     0.830243
      pz      :     0.054088  p :     0.158042
      px      :     0.069815
      py      :     0.034138
      dz2     :     0.005124  d :     0.027640
      dxz     :     0.007689
      dyz     :     0.002691
      dx2y2   :     0.005667
      dxy     :     0.006468
 34 H s       :     0.673363  s :     0.673363
      pz      :     0.094393  p :     0.347144
      px      :     0.153554
      py      :     0.099197
      dz2     :     0.010673  d :     0.100078
      dxz     :     0.028330
      dyz     :     0.006339
      dx2y2   :     0.025645
      dxy     :     0.029091
 35 H s       :     0.832019  s :     0.832019
      pz      :     0.042004  p :     0.156119
      px      :     0.043088
      py      :     0.071027
      dz2     :     0.002638  d :     0.027901
      dxz     :     0.001833
      dyz     :     0.007073
      dx2y2   :     0.008222
      dxy     :     0.008137


                      *****************************
                      * MAYER POPULATION ANALYSIS *
                      *****************************

  NA   - Mulliken gross atomic population
  ZA   - Total nuclear charge
  QA   - Mulliken gross atomic charge
  VA   - Mayer's total valence
  BVA  - Mayer's bonded valence
  FA   - Mayer's free valence

  ATOM       NA         ZA         QA         VA         BVA        FA
  0 C      6.2692     6.0000    -0.2692     3.8937     3.8937    -0.0000
  1 C      5.9550     6.0000     0.0450     3.8452     3.8452     0.0000
  2 O      8.3426     8.0000    -0.3426     2.0796     2.0796     0.0000
  3 C      5.5085     6.0000     0.4915     4.2317     4.2317    -0.0000
  4 O      8.5764     8.0000    -0.5764     1.9664     1.9664     0.0000
  5 C      6.2054     6.0000    -0.2054     3.6445     3.6445    -0.0000
  6 C      5.7996     6.0000     0.2004     3.7769     3.7769    -0.0000
  7 C      6.2776     6.0000    -0.2776     3.8784     3.8784    -0.0000
  8 N      7.1223     7.0000    -0.1223     3.4164     3.4164    -0.0000
  9 C      5.6453     6.0000     0.3547     3.9940     3.9940    -0.0000
 10 S     16.7204    16.0000    -0.7204     1.3691     1.3691    -0.0000
 11 N      7.2101     7.0000    -0.2101     3.3265     3.3265     0.0000
 12 C      5.9268     6.0000     0.0732     3.9582     3.9582    -0.0000
 13 C      5.9934     6.0000     0.0066     3.6857     3.6857     0.0000
 14 C      6.2844     6.0000    -0.2844     3.8061     3.8061     0.0000
 15 C      6.1573     6.0000    -0.1573     3.7471     3.7471    -0.0000
 16 C      6.2843     6.0000    -0.2843     3.7764     3.7764     0.0000
 17 C      5.6556     6.0000     0.3444     3.8340     3.8340     0.0000
 18 O      8.4652     8.0000    -0.4652     2.0326     2.0326     0.0000
 19 C      6.2417     6.0000    -0.2417     3.8352     3.8352     0.0000
 20 H      0.9053     1.0000     0.0947     0.9881     0.9881     0.0000
 21 H      0.8981     1.0000     0.1019     0.9833     0.9833    -0.0000
 22 H      0.8892     1.0000     0.1108     0.9818     0.9818     0.0000
 23 H      0.9085     1.0000     0.0915     0.9791     0.9791     0.0000
 24 H      0.9057     1.0000     0.0943     0.9828     0.9828    -0.0000
 25 H      0.8743     1.0000     0.1257     0.9875     0.9875    -0.0000
 26 H      0.8648     1.0000     0.1352     0.9782     0.9782    -0.0000
 27 H      0.8594     1.0000     0.1406     0.9786     0.9786    -0.0000
 28 H      0.7364     1.0000     0.2636     0.9628     0.9628     0.0000
 29 H      0.7504     1.0000     0.2496     0.9713     0.9713     0.0000
 30 H      0.8425     1.0000     0.1575     0.9910     0.9910     0.0000
 31 H      0.8018     1.0000     0.1982     0.9666     0.9666     0.0000
 32 H      0.7959     1.0000     0.2041     0.9615     0.9615    -0.0000
 33 H      0.8199     1.0000     0.1801     0.9769     0.9769     0.0000
 34 H      0.6755     1.0000     0.3245     0.9399     0.9399    -0.0000
 35 H      0.8311     1.0000     0.1689     0.9854     0.9854     0.0000

  Mayer bond orders larger than 0.100000
B(  0-C ,  1-C ) :   0.9666 B(  0-C , 20-H ) :   0.9788 B(  0-C , 21-H ) :   0.9790 
B(  0-C , 22-H ) :   0.9761 B(  1-C ,  2-O ) :   0.8986 B(  1-C , 23-H ) :   0.9772 
B(  1-C , 24-H ) :   0.9787 B(  2-O ,  3-C ) :   1.1740 B(  3-C ,  4-O ) :   1.8895 
B(  3-C ,  5-C ) :   1.1141 B(  5-C ,  6-C ) :   1.5890 B(  5-C , 12-C ) :   0.9681 
B(  6-C ,  7-C ) :   0.9702 B(  6-C ,  8-N ) :   1.1106 B(  7-C , 25-H ) :   0.9859 
B(  7-C , 26-H ) :   0.9558 B(  7-C , 27-H ) :   0.9576 B(  8-N ,  9-C ) :   1.3141 
B(  8-N , 28-H ) :   0.9149 B(  9-C , 10-S ) :   1.2323 B(  9-C , 11-N ) :   1.3687 
B( 11-N , 12-C ) :   0.9911 B( 11-N , 29-H ) :   0.9279 B( 12-C , 13-C ) :   0.9465 
B( 12-C , 30-H ) :   1.0003 B( 13-C , 14-C ) :   1.3650 B( 13-C , 19-C ) :   1.3282 
B( 14-C , 15-C ) :   1.3620 B( 14-C , 31-H ) :   0.9588 B( 15-C , 16-C ) :   1.3645 
B( 15-C , 32-H ) :   0.9537 B( 16-C , 17-C ) :   1.3045 B( 16-C , 33-H ) :   0.9742 
B( 17-C , 18-O ) :   1.0721 B( 17-C , 19-C ) :   1.3945 B( 18-O , 34-H ) :   0.9215 
B( 19-C , 35-H ) :   0.9554 

-------
TIMINGS
-------

Total SCF time: 0 days 1 hours 43 min 13 sec 

Total time                  ....    6193.037 sec
Sum of individual times     ....    6188.817 sec  ( 99.9%)

Fock matrix formation       ....    6176.199 sec  ( 99.7%)
Diagonalization             ....       1.387 sec  (  0.0%)
Density matrix formation    ....       0.197 sec  (  0.0%)
Population analysis         ....       0.261 sec  (  0.0%)
Initial guess               ....       5.773 sec  (  0.1%)
Orbital Transformation      ....       0.000 sec  (  0.0%)
Orbital Orthonormalization  ....       0.000 sec  (  0.0%)
DIIS solution               ....       1.482 sec  (  0.0%)
SOSCF solution              ....       2.133 sec  (  0.0%)

Maximum memory used throughout the entire SCF-calculation: 708.5 MB

------------------------------------------------------------------------------
                                ORCA  MP2 
------------------------------------------------------------------------------

Freezing NCore=48 chemical core electrons

-------------
RI-MP2 ENERGY
-------------
Dimension of the basis                    ...  828
Memory devoted to MP2                     ...  256 MB   
Data format for buffers                   ... DOUBLE
Compression type for matrix containers    ... UNCOMPRESSED
Overall scaling of the MP2 energy         ...   1.000e+00
Calculating two index integrals           ... done (    0.042 sec)
Cholesky decomposition of V**-1           ... done (    0.557 sec)

-----------------
RI-TRANSFORMATION (AUX index driven)
-----------------

Dimension of the orbital-basis         ... 828
Dimension of the aux-basis             ... 2141
Transformation of internal/external MOs...   24-  76 to   77- 827
Number Format for Storage              ... Double (8 Byte)
Integral mode                          ... Direct

First Phase: integral generation and transformation of MO indices
  Aux angular momentum 0               ... done (    4.882 sec)
  Aux angular momentum 1               ... done (    7.977 sec)
  Aux angular momentum 2               ... done (   10.552 sec)
  Aux angular momentum 3               ... done (    8.502 sec)
  Aux angular momentum 4               ... done (    2.898 sec)
Closing buffer VIA ( 0.63 GB; CompressionRatio= 1.00)
  Phase 1 completed in    34.974 sec
Second Phase: sorting and transformation of aux index

IA-Transformation
Memory available                       ... 158 MB 
Max. # MO pairs treated in a batch     ... 11    
# of internal orbitals                 ... 53
# batches for internal orbitals        ... 5
Closing buffer IAV ( 0.63 GB; CompressionRatio= 1.00)
(ia|v) transformation done in    19.201 sec

  Phase 2 completed in    19.208 sec
RI-Integral transformation completed in    54.187 sec
Opening buffers                              ... done

Starting loop over batches of integrals:

Operator 0  - window                       ... ( 24- 76)x( 77-827)
Operator 0  - Memory available             ...   256 MB
Operator 0  - Memory needed per MO         ...  12.3 MB
Operator 0  - Number of orbitals per batch ... 13
Operator 0  - Number of batches            ... 5

OPERATOR  0   PASS   0:  MOs    24 ...   36
  Reading integrals       ... ok
  Internal MO  26
  Internal MO  29
  Internal MO  32
  Internal MO  35
OPERATOR  0   PASS   1:  MOs    37 ...   49
  Reading integrals       ... ok
  Internal MO  38
  Internal MO  41
  Internal MO  44
  Internal MO  47
OPERATOR  0   PASS   2:  MOs    50 ...   62
  Reading integrals       ... ok
  Internal MO  50
  Internal MO  53
  Internal MO  56
  Internal MO  59
  Internal MO  62
OPERATOR  0   PASS   3:  MOs    63 ...   75
  Reading integrals       ... ok
  Internal MO  65
  Internal MO  68
  Internal MO  71
  Internal MO  74
OPERATOR  0   PASS   4:  MOs    76 ...   76
  Reading integrals       ... ok
Time spent in pair loops =    91.109 sec
Deleting buffer (Ka|jb)[aa] ...done

-----------------------------------------------
 RI-MP2 CORRELATION ENERGY:     -3.525448976 Eh
-----------------------------------------------


-------
TIMINGS
-------

Total time                :  145.995 sec
Integral trafo            :   54.206 sec ( 37.1%)
I/O of integrals          :    1.007 sec (  0.7%)
K(i,j) Operators          :   63.301 sec ( 43.4%)
T(i,j) pair energies      :    8.919 sec (  6.1%)
V-calculation             :    0.042 sec (  0.0%)
V**(-1/2)                 :    0.557 sec (  0.4%)
Gamma(ia|P)               :    0.000 sec (  0.0%)
Gamma-Trafo               :    0.000 sec (  0.0%)
D(virtual)                :    0.000 sec (  0.0%)
D(internal)               :    0.000 sec (  0.0%)
W(virtual)                :    0.000 sec (  0.0%)
W(internal)               :    0.000 sec (  0.0%)
L(virtual)                :    0.000 sec (  0.0%)
L(internal)               :    0.000 sec (  0.0%)
G(D)                      :    0.000 sec (  0.0%)
G(Z)                      :    0.000 sec (  0.0%)
Z-Vector Solution         :    0.000 sec (  0.0%)
3-Index Derivative        :    0.000 sec (  0.0%)
2-Index Derivative        :    0.000 sec (  0.0%)
Separable Gradient        :    0.000 sec (  0.0%)


---------------------------------------
MP2 TOTAL ENERGY:    -1274.435998964 Eh
---------------------------------------

Maximum memory used throughout the entire MP2-calculation: 302.1 MB

-------------------------   --------------------
FINAL SINGLE POINT ENERGY     -1274.435998964103
-------------------------   --------------------


                            ***************************************
                            *     ORCA property calculations      *
                            ***************************************


  WARNING: The energy has been calculated at the MP2 level but the densities
           used in the property calculations are still SCF densities
           MP2 response densities have not been calculated 
           use %mp2 Density relaxed end
           or  %mp2 Density unrelaxed end

                                    ---------------------
                                    Active property flags
                                    ---------------------
   (+) Dipole Moment


------------------------------------------------------------------------------
                       ORCA ELECTRIC PROPERTIES CALCULATION
------------------------------------------------------------------------------

Dipole Moment Calculation                       ... on
Quadrupole Moment Calculation                   ... off
Polarizability Calculation                      ... off
GBWName                                         ... qm_input.solv.gbw
Electron density file                           ... qm_input.solv.scfp
The origin for moment calculation is the CENTER OF MASS  = ( 7.643434, -3.407208  0.468372)

-------------
DIPOLE MOMENT
-------------
                                X             Y             Z
Electronic contribution:    -10.83160     -10.85598       9.55243
Nuclear contribution   :     12.25670      13.69194     -11.03040
                        -----------------------------------------
Total Dipole Moment    :      1.42510       2.83596      -1.47797
                        -----------------------------------------
Magnitude (a.u.)       :      3.50114
Magnitude (Debye)      :      8.89919



--------------------
Rotational spectrum 
--------------------
 
Rotational constants in cm-1:     0.010654     0.008021     0.005109 
Rotational constants in MHz :   319.393466   240.448879   153.155975 

 Dipole components along the rotational axes: 
x,y,z [a.u.] :     2.537932     1.735787     1.674492 
x,y,z [Debye]:     6.450911     4.412020     4.256221 

 

Timings for individual modules:

Sum of individual times         ...     6555.383 sec (= 109.256 min)
GTO integral calculation        ...      215.836 sec (=   3.597 min)   3.3 %
SCF iterations                  ...     6193.133 sec (= 103.219 min)  94.5 %
MP2 module                      ...      146.414 sec (=   2.440 min)   2.2 %
                             ****ORCA TERMINATED NORMALLY****
TOTAL RUN TIME: 0 days 1 hours 49 minutes 16 seconds 400 msec
