
                                        *****************
                                        * O   R   C   A *
                                        *****************

                                            #,                                       
                                            ###                                      
                                            ####                                     
                                            #####                                    
                                            ######                                   
                                           ########,                                 
                                     ,,################,,,,,                         
                               ,,#################################,,                 
                          ,,##########################################,,             
                       ,#########################################, ''#####,          
                    ,#############################################,,   '####,        
                  ,##################################################,,,,####,       
                ,###########''''           ''''###############################       
              ,#####''   ,,,,##########,,,,          '''####'''          '####       
            ,##' ,,,,###########################,,,                        '##       
           ' ,,###''''                  '''############,,,                           
         ,,##''                                '''############,,,,        ,,,,,,###''
      ,#''                                            '''#######################'''  
     '                                                          ''''####''''         
             ,#######,   #######,   ,#######,      ##                                
            ,#'     '#,  ##    ##  ,#'     '#,    #''#        ######   ,####,        
            ##       ##  ##   ,#'  ##            #'  '#       #        #'  '#        
            ##       ##  #######   ##           ,######,      #####,   #    #        
            '#,     ,#'  ##    ##  '#,     ,#' ,#      #,         ##   #,  ,#        
             '#######'   ##     ##  '#######'  #'      '#     #####' # '####'        



                  #######################################################
                  #                        -***-                        #
                  #          Department of theory and spectroscopy      #
                  #    Directorship and core code : Frank Neese         #
                  #        Max Planck Institute fuer Kohlenforschung    #
                  #                Kaiser Wilhelm Platz 1               #
                  #                 D-45470 Muelheim/Ruhr               #
                  #                      Germany                        #
                  #                                                     #
                  #                  All rights reserved                #
                  #                        -***-                        #
                  #######################################################


                         Program Version 5.0.0 -  RELEASE  -
                                (SVN: $Rev: 19529$)
                ($Date: 2021-06-28 11:36:33 +0200 (Mo, 28 Jun 2021) $)


 With contributions from (in alphabetic order):
   Daniel Aravena         : Magnetic Suceptibility
   Michael Atanasov       : Ab Initio Ligand Field Theory (pilot matlab implementation)
   Alexander A. Auer      : GIAO ZORA, VPT2 properties, NMR spectrum
   Ute Becker             : Parallelization
   Giovanni Bistoni       : ED, misc. LED, open-shell LED, HFLD
   Martin Brehm           : Molecular dynamics
   Dmytro Bykov           : SCF Hessian
   Vijay G. Chilkuri      : MRCI spin determinant printing, contributions to CSF-ICE
   Dipayan Datta          : RHF DLPNO-CCSD density
   Achintya Kumar Dutta   : EOM-CC, STEOM-CC
   Dmitry Ganyushin       : Spin-Orbit,Spin-Spin,Magnetic field MRCI
   Miquel Garcia          : C-PCM Hessian, Gaussian charge scheme
   Yang Guo               : DLPNO-NEVPT2, F12-NEVPT2, CIM, IAO-localization
   Andreas Hansen         : Spin unrestricted coupled pair/coupled cluster methods
   Benjamin Helmich-Paris : MC-RPA, TRAH-SCF, COSX integrals
   Lee Huntington         : MR-EOM, pCC
   Robert Izsak           : Overlap fitted RIJCOSX, COSX-SCS-MP3, EOM
   Marcus Kettner         : VPT2
   Christian Kollmar      : KDIIS, OOCD, Brueckner-CCSD(T), CCSD density, CASPT2, CASPT2-K
   Simone Kossmann        : Meta GGA functionals, TD-DFT gradient, OOMP2, MP2 Hessian
   Martin Krupicka        : Initial AUTO-CI
   Lucas Lang             : DCDCAS
   Marvin Lechner         : AUTO-CI (C++ implementation), FIC-MRCC
   Dagmar Lenk            : GEPOL surface, SMD
   Dimitrios Liakos       : Extrapolation schemes; Compound Job, initial MDCI parallelization
   Dimitrios Manganas     : Further ROCIS development; embedding schemes
   Dimitrios Pantazis     : SARC Basis sets
   Anastasios Papadopoulos: AUTO-CI, single reference methods and gradients
   Taras Petrenko         : DFT Hessian,TD-DFT gradient, ASA, ECA, R-Raman, ABS, FL, XAS/XES, NRVS
   Peter Pinski           : DLPNO-MP2, DLPNO-MP2 Gradient
   Christoph Reimann      : Effective Core Potentials
   Marius Retegan         : Local ZFS, SOC
   Christoph Riplinger    : Optimizer, TS searches, QM/MM, DLPNO-CCSD(T), (RO)-DLPNO pert. Triples
   Tobias Risthaus        : Range-separated hybrids, TD-DFT gradient, RPA, STAB
   Michael Roemelt        : Original ROCIS implementation
   Masaaki Saitow         : Open-shell DLPNO-CCSD energy and density
   Barbara Sandhoefer     : DKH picture change effects
   Avijit Sen             : IP-ROCIS
   Kantharuban Sivalingam : CASSCF convergence, NEVPT2, FIC-MRCI
   Bernardo de Souza      : ESD, SOC TD-DFT
   Georgi Stoychev        : AutoAux, RI-MP2 NMR
   Willem Van den Heuvel  : Paramagnetic NMR
   Boris Wezisla          : Elementary symmetry handling
   Frank Wennmohs         : Technical directorship


 We gratefully acknowledge several colleagues who have allowed us to
 interface, adapt or use parts of their codes:
   Stefan Grimme, W. Hujo, H. Kruse, P. Pracht,  : VdW corrections, initial TS optimization,
                  C. Bannwarth, S. Ehlert          DFT functionals, gCP, sTDA/sTD-DF
   Ed Valeev, F. Pavosevic, A. Kumar             : LibInt (2-el integral package), F12 methods
   Garnet Chan, S. Sharma, J. Yang, R. Olivares  : DMRG
   Ulf Ekstrom                                   : XCFun DFT Library
   Mihaly Kallay                                 : mrcc  (arbitrary order and MRCC methods)
   Jiri Pittner, Ondrej Demel                    : Mk-CCSD
   Frank Weinhold                                : gennbo (NPA and NBO analysis)
   Christopher J. Cramer and Donald G. Truhlar   : smd solvation model
   Lars Goerigk                                  : TD-DFT with DH, B97 family of functionals
   V. Asgeirsson, H. Jonsson                     : NEB implementation
   FAccTs GmbH                                   : IRC, NEB, NEB-TS, DLPNO-Multilevel, CI-OPT
                                                   MM, QMMM, 2- and 3-layer-ONIOM, Crystal-QMMM,
                                                   LR-CPCM, SF, NACMEs, symmetry and pop. for TD-DFT,
                                                   nearIR, NL-DFT gradient (VV10), updates on ESD,
                                                   ML-optimized integration grids
   S Lehtola, MJT Oliveira, MAL Marques          : LibXC Library
   Liviu Ungur et al                             : ANISO software


 Your calculation uses the libint2 library for the computation of 2-el integrals
 For citations please refer to: http://libint.valeyev.net

 Your ORCA version has been built with support for libXC version: 5.1.0
 For citations please refer to: https://tddft.org/programs/libxc/

 This ORCA versions uses:
   CBLAS   interface :  Fast vector & matrix operations
   LAPACKE interface :  Fast linear algebra routines
   SCALAPACK package :  Parallel linear algebra routines
   Shared memory     :  Shared parallel matrices
   BLAS/LAPACK       :  OpenBLAS 0.3.15  USE64BITINT DYNAMIC_ARCH NO_AFFINITY SkylakeX SINGLE_THREADED
        Core in use  :  SkylakeX
   Copyright (c) 2011-2014, The OpenBLAS Project


================================================================================

----- Orbital basis set information -----
Your calculation utilizes the basis: cc-pVTZ 
       H, B-Ne : Obtained from the ccRepo (grant-hill.group.shef.ac.uk/ccrepo) Feb. 2017
                 T. H. Dunning, Jr., J. Chem. Phys. 90, 1007 (1989)
            He : Obtained from the ccRepo (grant-hill.group.shef.ac.uk/ccrepo) Feb. 2017
                 D. E. Woon, T. H. Dunning, Jr., J. Chem. Phys. 100, 2975 (1994)
  Li-Be, Na-Mg : Obtained from the ccRepo (grant-hill.group.shef.ac.uk/ccrepo) Feb. 2017
                 B. P. Prascher, D. E. Woon, K. A. Peterson, T. H. Dunning, Jr., A. K. Wilson, Theor. Chem. Acc. 128, 69 (2011)
         Al-Ar : Obtained from the ccRepo (grant-hill.group.shef.ac.uk/ccrepo) Feb. 2017
                 D. E. Woon, T. H. Dunning, Jr., J. Chem. Phys. 98, 1358 (1993)
            Ca : Obtained from the Peterson Research Group Website (tyr0.chem.wsu.edu/~kipeters) Feb. 2017
                 J. Koput, K. A. Peterson, J. Phys. Chem. 106, 9595 (2002)
         Sc-Zn : Obtained from the ccRepo (grant-hill.group.shef.ac.uk/ccrepo) Feb. 2017
                 N. B. Balabanov, K. A. Peterson, J. Chem. Phys. 123, 064107 (2005)
                 N. B. Balabanov, K. A. Peterson, J. Chem. Phys. 125, 074110 (2006)
         Ga-Kr : Obtained from the ccRepo (grant-hill.group.shef.ac.uk/ccrepo) Feb. 2017
                 A. K. Wilson, D. E. Woon, K. A. Peterson, T. H. Dunning, Jr., J. Chem. Phys. 110, 7667 (1999)
             Y : Obtained from the ccRepo (grant-hill.group.shef.ac.uk/ccrepo) Feb. 2017
                 K. A. Peterson, D. Figgen, M. Dolg, H. Stoll, J. Chem. Phys. 126, 124101 (2007)
        Ag, Au : Obtained from the Peterson Research Group Website (tyr0.chem.wsu.edu/~kipeters) Feb. 2017
                 K. A. Peterson, C. Puzzarini, Theor. Chem. Acc. 114, 283 (2005)

----- AuxC basis set information -----
Your calculation utilizes the auxiliary basis: cc-pVTZ/C 
  Obtained from the EMSL Basis Set Exchange (bse.pnl.gov) Feb. 2017
  H-He, B-F, Al-Ar, Ga-Kr : F. Weigend, A. Kohn, C. Hattig, J. Chem. Phys. 116, 3175 (2002)
             Li-Be, Na-Mg : C. Haettig, Phys. Chem. Chem. Phys. 7, 59 (2005)
                       Ne : C. Haettig, Phys. Chem. Chem. Phys. 7, 59 (2005)
                            F. Weigend, A. Kohn, C. Hattig, J. Chem. Phys. 116, 3175 (2002)
                    Sc-Zn : J. G. Hill, J. A. Platts, J. Chem. Phys. 128, 044104 (2008)

================================================================================
                                        WARNINGS
                       Please study these warnings very carefully!
================================================================================


WARNING: No MP2 level density has been requested!
         To caclulate MP2 level properties use
         %mp2 Density relaxed end
         or
         %mp2 Density unrelaxed end

WARNING: Post HF methods need fully converged wavefunctions
  ===> : Setting SCFConvForced true
         You can overwrite this default with %scf ConvForced false 


INFO   : the flag for use of the SHARK integral package has been found!

================================================================================
                                       INPUT FILE
================================================================================
NAME = qm_input.vacu
|  1> ! RI-MP2 cc-pVTZ cc-pVTZ/c TightSCF KeepDens NoKeepInts
|  2> 
|  3> *xyz  0  1
|  4>     C    13.1831475   -5.6215424    2.9595652
|  5>     C    12.7989426   -4.9360603    1.6405691
|  6>     O    13.7435583   -5.2584847    0.7325764
|  7>     C    13.6585457   -6.4156460   -0.0155003
|  8>     O    12.7233243   -7.1982094    0.0386220
|  9>     C    14.8836800   -6.6634026   -0.8733013
| 10>     C    14.9022514   -7.5788433   -1.8649664
| 11>     C    13.8219059   -8.5040454   -2.4437506
| 12>     N    16.1355516   -7.7779046   -2.5874859
| 13>     C    17.3895481   -7.3763207   -2.1768038
| 14>     S    18.8780784   -7.8570097   -2.9267914
| 15>     N    17.2940756   -6.5110094   -1.1202180
| 16>     C    16.0985581   -5.8525906   -0.5069389
| 17>     C    16.0249618   -4.3364725   -0.8463977
| 18>     C    16.8311600   -3.4026568   -0.1194219
| 19>     C    16.8294373   -2.0467112   -0.5281660
| 20>     C    15.9503795   -1.6002872   -1.4758285
| 21>     C    15.0863095   -2.4614992   -2.1767364
| 22>     O    14.0232673   -1.9851743   -2.9257562
| 23>     C    15.1484228   -3.8291994   -1.7937269
| 24>     H    12.4801166   -5.3138244    3.7433032
| 25>     H    14.2034904   -5.3276127    3.2346929
| 26>     H    13.1014406   -6.7059522    2.8161422
| 27>     H    11.8223631   -5.2194725    1.2292789
| 28>     H    12.7668116   -3.8537524    1.8159802
| 29>     H    12.8085620   -8.0842293   -2.4522396
| 30>     H    13.7537797   -9.4375853   -1.8718663
| 31>     H    14.0096702   -8.7532441   -3.4953380
| 32>     H    15.9707237   -8.2761557   -3.4538254
| 33>     H    18.1491331   -6.3503109   -0.6015475
| 34>     H    16.2314393   -5.9649725    0.5760673
| 35>     H    17.5988132   -3.6709989    0.6003677
| 36>     H    17.6403394   -1.4242898   -0.1615255
| 37>     H    15.9655220   -0.5514085   -1.7569337
| 38>     H    13.7278862   -1.1054093   -2.6333613
| 39>     H    14.4887860   -4.5877900   -2.2045985
| 40> *
| 41> 
| 42>                          ****END OF INPUT****
================================================================================

                       ****************************
                       * Single Point Calculation *
                       ****************************

---------------------------------
CARTESIAN COORDINATES (ANGSTROEM)
---------------------------------
  C     13.183147   -5.621542    2.959565
  C     12.798943   -4.936060    1.640569
  O     13.743558   -5.258485    0.732576
  C     13.658546   -6.415646   -0.015500
  O     12.723324   -7.198209    0.038622
  C     14.883680   -6.663403   -0.873301
  C     14.902251   -7.578843   -1.864966
  C     13.821906   -8.504045   -2.443751
  N     16.135552   -7.777905   -2.587486
  C     17.389548   -7.376321   -2.176804
  S     18.878078   -7.857010   -2.926791
  N     17.294076   -6.511009   -1.120218
  C     16.098558   -5.852591   -0.506939
  C     16.024962   -4.336473   -0.846398
  C     16.831160   -3.402657   -0.119422
  C     16.829437   -2.046711   -0.528166
  C     15.950380   -1.600287   -1.475828
  C     15.086309   -2.461499   -2.176736
  O     14.023267   -1.985174   -2.925756
  C     15.148423   -3.829199   -1.793727
  H     12.480117   -5.313824    3.743303
  H     14.203490   -5.327613    3.234693
  H     13.101441   -6.705952    2.816142
  H     11.822363   -5.219473    1.229279
  H     12.766812   -3.853752    1.815980
  H     12.808562   -8.084229   -2.452240
  H     13.753780   -9.437585   -1.871866
  H     14.009670   -8.753244   -3.495338
  H     15.970724   -8.276156   -3.453825
  H     18.149133   -6.350311   -0.601548
  H     16.231439   -5.964972    0.576067
  H     17.598813   -3.670999    0.600368
  H     17.640339   -1.424290   -0.161525
  H     15.965522   -0.551408   -1.756934
  H     13.727886   -1.105409   -2.633361
  H     14.488786   -4.587790   -2.204598

----------------------------
CARTESIAN COORDINATES (A.U.)
----------------------------
  NO LB      ZA    FRAG     MASS         X           Y           Z
   0 C     6.0000    0    12.011   24.912538  -10.623176    5.592768
   1 C     6.0000    0    12.011   24.186496   -9.327802    3.100226
   2 O     8.0000    0    15.999   25.971561   -9.937096    1.384369
   3 C     6.0000    0    12.011   25.810911  -12.123814   -0.029291
   4 O     8.0000    0    15.999   24.043598  -13.602644    0.072985
   5 C     6.0000    0    12.011   28.126079  -12.592006   -1.650300
   6 C     6.0000    0    12.011   28.161174  -14.321938   -3.524276
   7 C     6.0000    0    12.011   26.119617  -16.070317   -4.618019
   8 N     7.0000    0    14.007   30.491774  -14.698110   -4.889640
   9 C     6.0000    0    12.011   32.861484  -13.939226   -4.113563
  10 S    16.0000    0    32.060   35.674398  -14.847597   -5.530834
  11 N     7.0000    0    14.007   32.681067  -12.304025   -2.116905
  12 C     6.0000    0    12.011   30.421866  -11.059793   -0.957976
  13 C     6.0000    0    12.011   30.282789   -8.194745   -1.599460
  14 C     6.0000    0    12.011   31.806283   -6.430089   -0.225675
  15 C     6.0000    0    12.011   31.803027   -3.867724   -0.998089
  16 C     6.0000    0    12.011   30.141849   -3.024105   -2.788912
  17 C     6.0000    0    12.011   28.508993   -4.651559   -4.113436
  18 O     8.0000    0    15.999   26.500135   -3.751436   -5.528878
  19 C     6.0000    0    12.011   28.626370   -7.236138   -3.389653
  20 H     1.0000    0     1.008   23.584002  -10.041673    7.073818
  21 H     1.0000    0     1.008   26.840707  -10.067729    6.112684
  22 H     1.0000    0     1.008   24.758135  -12.672413    5.321738
  23 H     1.0000    0     1.008   22.341029   -9.863374    2.323000
  24 H     1.0000    0     1.008   24.125778   -7.282537    3.431705
  25 H     1.0000    0     1.008   24.204674  -15.276979   -4.634061
  26 H     1.0000    0     1.008   25.990877  -17.834452   -3.537315
  27 H     1.0000    0     1.008   26.474440  -16.541234   -6.605232
  28 H     1.0000    0     1.008   30.180294  -15.639668   -6.526784
  29 H     1.0000    0     1.008   34.296891  -12.000348   -1.136760
  30 H     1.0000    0     1.008   30.672975  -11.272164    1.088609
  31 H     1.0000    0     1.008   33.256937   -6.937183    1.134531
  32 H     1.0000    0     1.008   33.335410   -2.691518   -0.305239
  33 H     1.0000    0     1.008   30.170464   -1.042011   -3.320124
  34 H     1.0000    0     1.008   25.941945   -2.088921   -4.976332
  35 H     1.0000    0     1.008   27.379838   -8.669667   -4.166087

--------------------------------
INTERNAL COORDINATES (ANGSTROEM)
--------------------------------
 C      0   0   0     0.000000000000     0.00000000     0.00000000
 C      1   0   0     1.535333783390     0.00000000     0.00000000
 O      2   1   0     1.349335783879   107.23138603     0.00000000
 C      3   2   1     1.380531841523   121.45420224    86.63118142
 O      4   3   2     1.220644815413   124.09242049     2.96230557
 C      4   3   2     1.515968318099   113.19359786   185.82658099
 C      6   4   3     1.349731915112   122.52703707   193.36403515
 C      7   6   4     1.535622504193   132.52185468     3.52593356
 N      7   6   4     1.443152525674   118.23883374   182.53784374
 C      9   7   6     1.379288453519   125.99601771    16.94959867
 S     10   9   7     1.734723542497   124.80090495   169.18261952
 N     10   9   7     1.369033307457   110.51295958   347.26712259
 C     12  10   9     1.496291637181   130.55451286   351.66011922
 C     13  12  10     1.555397950821   112.16499991   253.00482465
 C     14  13  12     1.431943124930   119.88251758   280.24114174
 C     15  14  13     1.416214382479   118.50060399   174.58732146
 C     16  15  14     1.367516441372   120.88686295     8.55491464
 C     17  16  15     1.406973687788   122.69544573   354.45063491
 O     18  17  16     1.384909668582   122.02620597   166.59362046
 C     14  13  12     1.386751322219   122.38186446   103.60315187
 H      1   2   3     1.096899296436   109.15885683   175.39545096
 H      1   2   3     1.096899974214   109.18496884    55.12965771
 H      1   2   3     1.096900537320   108.08440002   293.63676912
 H      2   1   3     1.096900006174   115.43954692   120.40044933
 H      2   1   3     1.096901019038   108.08811699   239.86114144
 H      8   7   6     1.096897206035   114.97723611    34.28600499
 H      8   7   6     1.096899984778   111.09737276   274.16663198
 H      8   7   6     1.096900854351   112.19655795   152.53096261
 H      9   7   6     1.012900056536   110.91589261   196.04288356
 H     12  10   9     1.012900006802   115.88756619   164.80462691
 H     13  12  10     1.096899965357   105.23626708   134.95164853
 H     15  14  13     1.085999993725   124.98223881     7.33083585
 H     16  15  14     1.085999940701   116.76898918   196.92772631
 H     17  16  15     1.085999979782   119.05844140   179.14233898
 H     19  18  17     0.973001144402   112.42518273   336.55892401
 H     20  14  13     1.085999943835   112.75924729     4.09648346

---------------------------
INTERNAL COORDINATES (A.U.)
---------------------------
 C      0   0   0     0.000000000000     0.00000000     0.00000000
 C      1   0   0     2.901360374765     0.00000000     0.00000000
 O      2   1   0     2.549875094230   107.23138603     0.00000000
 C      3   2   1     2.608827099637   121.45420224    86.63118142
 O      4   3   2     2.306684407922   124.09242049     2.96230557
 C      4   3   2     2.864764948909   113.19359786   185.82658099
 C      6   4   3     2.550623673775   122.52703707   193.36403515
 C      7   6   4     2.901905978011   132.52185468     3.52593356
 N      7   6   4     2.727163043000   118.23883374   182.53784374
 C      9   7   6     2.606477436831   125.99601771    16.94959867
 S     10   9   7     3.278152413385   124.80090495   169.18261952
 N     10   9   7     2.587098019309   110.51295958   347.26712259
 C     12  10   9     2.827581410748   130.55451286   351.66011922
 C     13  12  10     2.939276156314   112.16499991   253.00482465
 C     14  13  12     2.705980345470   119.88251758   280.24114174
 C     15  14  13     2.676257329805   118.50060399   174.58732146
 C     16  15  14     2.584231557828   120.88686295     8.55491464
 C     17  16  15     2.658794947552   122.69544573   354.45063491
 O     18  17  16     2.617099993840   122.02620597   166.59362046
 C     14  13  12     2.620580214848   122.38186446   103.60315187
 H      1   2   3     2.072839266756   109.15885683   175.39545096
 H      1   2   3     2.072840547569   109.18496884    55.12965771
 H      1   2   3     2.072841611686   108.08440002   293.63676912
 H      2   1   3     2.072840607966   115.43954692   120.40044933
 H      2   1   3     2.072842522001   108.08811699   239.86114144
 H      8   7   6     2.072835316470   114.97723611    34.28600499
 H      8   7   6     2.072840567532   111.09737276   274.16663198
 H      8   7   6     2.072842210787   112.19655795   152.53096261
 H      9   7   6     1.914103707886   110.91589261   196.04288356
 H     12  10   9     1.914103613902   115.88756619   164.80462691
 H     13  12  10     2.072840530832   105.23626708   134.95164853
 H     15  14  13     2.052242569581   124.98223881     7.33083585
 H     16  15  14     2.052242469380   116.76898918   196.92772631
 H     17  16  15     2.052242543232   119.05844140   179.14233898
 H     19  18  17     1.838705690912   112.42518273   336.55892401
 H     20  14  13     2.052242475302   112.75924729     4.09648346

---------------------
BASIS SET INFORMATION
---------------------
There are 5 groups of distinct atoms

 Group   1 Type C   : 18s5p2d1f contracted to 4s3p2d1f pattern {8811/311/11/1}
 Group   2 Type O   : 18s5p2d1f contracted to 4s3p2d1f pattern {8811/311/11/1}
 Group   3 Type N   : 18s5p2d1f contracted to 4s3p2d1f pattern {8811/311/11/1}
 Group   4 Type S   : 41s16p2d1f contracted to 5s4p2d1f pattern {13131311/7711/11/1}
 Group   5 Type H   : 5s2p1d contracted to 3s2p1d pattern {311/11/1}

Atom   0C    basis set group =>   1
Atom   1C    basis set group =>   1
Atom   2O    basis set group =>   2
Atom   3C    basis set group =>   1
Atom   4O    basis set group =>   2
Atom   5C    basis set group =>   1
Atom   6C    basis set group =>   1
Atom   7C    basis set group =>   1
Atom   8N    basis set group =>   3
Atom   9C    basis set group =>   1
Atom  10S    basis set group =>   4
Atom  11N    basis set group =>   3
Atom  12C    basis set group =>   1
Atom  13C    basis set group =>   1
Atom  14C    basis set group =>   1
Atom  15C    basis set group =>   1
Atom  16C    basis set group =>   1
Atom  17C    basis set group =>   1
Atom  18O    basis set group =>   2
Atom  19C    basis set group =>   1
Atom  20H    basis set group =>   5
Atom  21H    basis set group =>   5
Atom  22H    basis set group =>   5
Atom  23H    basis set group =>   5
Atom  24H    basis set group =>   5
Atom  25H    basis set group =>   5
Atom  26H    basis set group =>   5
Atom  27H    basis set group =>   5
Atom  28H    basis set group =>   5
Atom  29H    basis set group =>   5
Atom  30H    basis set group =>   5
Atom  31H    basis set group =>   5
Atom  32H    basis set group =>   5
Atom  33H    basis set group =>   5
Atom  34H    basis set group =>   5
Atom  35H    basis set group =>   5
---------------------------------
AUXILIARY/C BASIS SET INFORMATION
---------------------------------
There are 5 groups of distinct atoms

 Group   1 Type C   : 8s6p5d3f1g contracted to 8s6p5d3f1g pattern {11111111/111111/11111/111/1}
 Group   2 Type O   : 8s6p5d3f1g contracted to 8s6p5d3f1g pattern {11111111/111111/11111/111/1}
 Group   3 Type N   : 8s6p5d3f1g contracted to 8s6p5d3f1g pattern {11111111/111111/11111/111/1}
 Group   4 Type S   : 10s8p7d5f2g contracted to 10s8p7d5f2g pattern {1111111111/11111111/1111111/11111/11}
 Group   5 Type H   : 4s3p2d1f contracted to 4s3p2d1f pattern {1111/111/11/1}

Atom   0C    basis set group =>   1
Atom   1C    basis set group =>   1
Atom   2O    basis set group =>   2
Atom   3C    basis set group =>   1
Atom   4O    basis set group =>   2
Atom   5C    basis set group =>   1
Atom   6C    basis set group =>   1
Atom   7C    basis set group =>   1
Atom   8N    basis set group =>   3
Atom   9C    basis set group =>   1
Atom  10S    basis set group =>   4
Atom  11N    basis set group =>   3
Atom  12C    basis set group =>   1
Atom  13C    basis set group =>   1
Atom  14C    basis set group =>   1
Atom  15C    basis set group =>   1
Atom  16C    basis set group =>   1
Atom  17C    basis set group =>   1
Atom  18O    basis set group =>   2
Atom  19C    basis set group =>   1
Atom  20H    basis set group =>   5
Atom  21H    basis set group =>   5
Atom  22H    basis set group =>   5
Atom  23H    basis set group =>   5
Atom  24H    basis set group =>   5
Atom  25H    basis set group =>   5
Atom  26H    basis set group =>   5
Atom  27H    basis set group =>   5
Atom  28H    basis set group =>   5
Atom  29H    basis set group =>   5
Atom  30H    basis set group =>   5
Atom  31H    basis set group =>   5
Atom  32H    basis set group =>   5
Atom  33H    basis set group =>   5
Atom  34H    basis set group =>   5
Atom  35H    basis set group =>   5
------------------------------------------------------------------------------
                           ORCA GTO INTEGRAL CALCULATION
------------------------------------------------------------------------------
------------------------------------------------------------------------------
                   ___                                                        
                  /   \      - P O W E R E D   B Y -                         
                 /     \                                                     
                 |  |  |   _    _      __       _____    __    __             
                 |  |  |  | |  | |    /  \     |  _  \  |  |  /  |          
                  \  \/   | |  | |   /    \    | | | |  |  | /  /          
                 / \  \   | |__| |  /  /\  \   | |_| |  |  |/  /          
                |  |  |   |  __  | /  /__\  \  |    /   |      \           
                |  |  |   | |  | | |   __   |  |    \   |  |\   \          
                \     /   | |  | | |  |  |  |  | |\  \  |  | \   \       
                 \___/    |_|  |_| |__|  |__|  |_| \__\ |__|  \__/        
                                                                              
                      - O R C A' S   B I G   F R I E N D -                    
                                      &                                       
                       - I N T E G R A L  F E E D E R -                       
                                                                              
 v1 FN, 2020, v2 2021                                                         
------------------------------------------------------------------------------


Reading SHARK input file qm_input.vacu.SHARKINP.tmp ... ok
----------------------
SHARK INTEGRAL PACKAGE
----------------------

Number of atoms                             ...     36
Number of basis functions                   ...    828
Number of shells                            ...    298
Maximum angular momentum                    ...      3
Integral batch strategy                     ... SHARK/LIBINT Hybrid
RI-J (if used) integral strategy            ... SPLIT-RIJ (Revised 2003 algorithm where possible)
Printlevel                                  ...      1
Contraction scheme used                     ... SEGMENTED contraction
Coulomb Range Separation                    ... NOT USED
Exchange Range Separation                   ... NOT USED
Finite Nucleus Model                        ... NOT USED
Auxiliary Coulomb fitting basis             ... NOT available
Auxiliary J/K fitting basis                 ... NOT available
Auxiliary Correlation fitting basis         ... AVAILABLE
   # of basis functions in Aux-C            ...   2141
   # of shells in Aux-C                     ...    629
   Maximum angular momentum in Aux-C        ...      4
Auxiliary 'external' fitting basis          ... NOT available
Integral threshold                          ...     2.500000e-11
Primitive cut-off                           ...     2.500000e-12
Primitive pair pre-selection threshold      ...     2.500000e-12

Calculating pre-screening integrals         ... done (  0.7 sec) Dimension = 298
Organizing shell pair data                  ... done (  0.4 sec)
Shell pair information
Total number of shell pairs                 ...     44551
Shell pairs after pre-screening             ...     32487
Total number of primitive shell pairs       ...    234348
Primitive shell pairs kept                  ...     93250
          la=0 lb=0:   6505 shell pairs
          la=1 lb=0:   9049 shell pairs
          la=1 lb=1:   3193 shell pairs
          la=2 lb=0:   5170 shell pairs
          la=2 lb=1:   3545 shell pairs
          la=2 lb=2:    999 shell pairs
          la=3 lb=0:   1881 shell pairs
          la=3 lb=1:   1281 shell pairs
          la=3 lb=2:    724 shell pairs
          la=3 lb=3:    140 shell pairs

Calculating one electron integrals          ... done (  0.4 sec)
Calculating RI/C V-Matrix + Cholesky decomp.... done (  0.4 sec)
Calculating Nuclear repulsion               ... done (  0.0 sec) ENN=   1682.503409022429 Eh

SHARK setup successfully completed in   1.9 seconds

Maximum memory used throughout the entire GTOINT-calculation: 479.1 MB
-------------------------------------------------------------------------------
                                 ORCA SCF
-------------------------------------------------------------------------------

------------
SCF SETTINGS
------------
Hamiltonian:
 Ab initio Hamiltonian  Method          .... Hartree-Fock(GTOs)


General Settings:
 Integral files         IntName         .... qm_input.vacu
 Hartree-Fock type      HFTyp           .... RHF
 Total Charge           Charge          ....    0
 Multiplicity           Mult            ....    1
 Number of Electrons    NEL             ....  154
 Basis Dimension        Dim             ....  828
 Nuclear Repulsion      ENuc            ....   1682.5034090224 Eh

Convergence Acceleration:
 DIIS                   CNVDIIS         .... on
   Start iteration      DIISMaxIt       ....    12
   Startup error        DIISStart       ....  0.200000
   # of expansion vecs  DIISMaxEq       ....     5
   Bias factor          DIISBfac        ....   1.050
   Max. coefficient     DIISMaxC        ....  10.000
 Trust-Rad. Augm. Hess. CNVTRAH         .... auto
   Auto Start mean grad. ratio tolernc. ....  1.125000
   Auto Start start iteration           ....    20
   Auto Start num. interpolation iter.  ....    10
   Max. Number of Micro iterations      ....    16
   Max. Number of Macro iterations      .... Maxiter - #DIIS iter
   Number of Davidson start vectors     ....     2
   Converg. threshold I  (grad. norm)   ....   1.000e-05
   Converg. threshold II (energy diff.) ....   1.000e-08
   Grad. Scal. Fac. for Micro threshold ....   0.100
   Minimum threshold for Micro iter.    ....   0.010
   NR start threshold (gradient norm)   ....   0.001
   Initial trust radius                 ....   0.400
   Minimum AH scaling param. (alpha)    ....   1.000
   Maximum AH scaling param. (alpha)    .... 1000.000
   Orbital update algorithm             .... Taylor
   White noise on init. David. guess    .... on
   Maximum white noise                  ....   0.010
   Quad. conv. algorithm                .... NR
 SOSCF                  CNVSOSCF        .... on
   Start iteration      SOSCFMaxIt      ....   150
   Startup grad/error   SOSCFStart      ....  0.003300
 Level Shifting         CNVShift        .... on
   Level shift para.    LevelShift      ....    0.2500
   Turn off err/grad.   ShiftErr        ....    0.0010
 Zerner damping         CNVZerner       .... off
 Static damping         CNVDamp         .... on
   Fraction old density DampFac         ....    0.7000
   Max. Damping (<1)    DampMax         ....    0.9800
   Min. Damping (>=0)   DampMin         ....    0.0000
   Turn off err/grad.   DampErr         ....    0.1000
 Fernandez-Rico         CNVRico         .... off

SCF Procedure:
 Maximum # iterations   MaxIter         ....   125
 SCF integral mode      SCFMode         .... Direct
   Integral package                     .... SHARK and LIBINT hybrid scheme
 Reset frequency        DirectResetFreq ....    20
 Integral Threshold     Thresh          ....  2.500e-11 Eh
 Primitive CutOff       TCut            ....  2.500e-12 Eh

Convergence Tolerance:
 Convergence Check Mode ConvCheckMode   .... Total+1el-Energy
 Convergence forced     ConvForced      .... 1
 Energy Change          TolE            ....  1.000e-08 Eh
 1-El. energy change                    ....  1.000e-05 Eh
 Orbital Gradient       TolG            ....  1.000e-05
 Orbital Rotation angle TolX            ....  1.000e-05
 DIIS Error             TolErr          ....  5.000e-07


Diagonalization of the overlap matrix:
Smallest eigenvalue                        ... 4.481e-05
Time for diagonalization                   ...    0.160 sec
Threshold for overlap eigenvalues          ... 1.000e-08
Number of eigenvalues below threshold      ... 0
Time for construction of square roots      ...    0.081 sec
Total time needed                          ...    0.244 sec

Time for model grid setup =    1.722 sec

------------------------------
INITIAL GUESS: MODEL POTENTIAL
------------------------------
Loading Hartree-Fock densities                     ... done
Calculating cut-offs                               ... done
Initializing the effective Hamiltonian             ... done
Setting up the integral package (SHARK)            ... done
Starting the Coulomb interaction                   ... done (   4.4 sec)
Reading the grid                                   ... done
Mapping shells                                     ... done
Starting the XC term evaluation                    ... done (   1.8 sec)
Transforming the Hamiltonian                       ... done (   0.1 sec)
Diagonalizing the Hamiltonian                      ... done (   0.2 sec)
Back transforming the eigenvectors                 ... done (   0.0 sec)
Now organizing SCF variables                       ... done
                      ------------------
                      INITIAL GUESS DONE (   8.2 sec)
                      ------------------
--------------
SCF ITERATIONS
--------------
ITER       Energy         Delta-E        Max-DP      RMS-DP      [F,P]     Damp
               ***  Starting incremental Fock matrix formation  ***
  0  -1269.9690975192   0.000000000000 0.05399957  0.00045767  0.3091866 0.7000
  1  -1270.2397500320  -0.270652512801 0.05190291  0.00037681  0.1806948 0.7000
                               ***Turning on DIIS***
  2  -1270.4077844210  -0.168034389029 0.03041914  0.00024793  0.1098182 0.7000
  3  -1272.4771368864  -2.069352465353 0.06287421  0.00050275  0.0829127 0.0000
  4  -1270.7214011723   1.755735714119 0.01918921  0.00010881  0.0067637 0.0000
  5  -1270.7784976194  -0.057096447164 0.00692652  0.00005364  0.0038178 0.0000
                      *** Initiating the SOSCF procedure ***
                           *** Shutting down DIIS ***
                      *** Re-Reading the Fockian *** 
                      *** Removing any level shift *** 
ITER      Energy       Delta-E        Grad      Rot      Max-DP    RMS-DP
  6  -1270.75719580   0.0213018157  0.001910  0.001910  0.003145  0.000027
               *** Restarting incremental Fock matrix formation ***
  7  -1270.77220375  -0.0150079492  0.001061  0.002731  0.001578  0.000017
  8  -1270.77225644  -0.0000526913  0.000483  0.003206  0.001941  0.000018
  9  -1270.77227723  -0.0000207859  0.000247  0.000442  0.000402  0.000005
 10  -1270.77227996  -0.0000027312  0.000062  0.000158  0.000129  0.000001
 11  -1270.77228023  -0.0000002674  0.000023  0.000123  0.000072  0.000001
 12  -1270.77228032  -0.0000000863  0.000011  0.000047  0.000041  0.000000
 13  -1270.77228032  -0.0000000060  0.000004  0.000015  0.000008  0.000000
                  ***Gradient check signals convergence***
              ***Rediagonalizing the Fockian in SOSCF/NRSCF***

               *****************************************************
               *                     SUCCESS                       *
               *           SCF CONVERGED AFTER  14 CYCLES          *
               *****************************************************


----------------
TOTAL SCF ENERGY
----------------

Total Energy       :        -1270.77228032 Eh          -34579.47173 eV

Components:
Nuclear Repulsion  :         1682.50340902 Eh           45783.24533 eV
Electronic Energy  :        -2953.27568934 Eh          -80362.71707 eV
One Electron Energy:        -5085.89747412 Eh         -138394.30610 eV
Two Electron Energy:         2132.62178478 Eh           58031.58903 eV

Virial components:
Potential Energy   :        -2539.40280601 Eh          -69100.66336 eV
Kinetic Energy     :         1268.63052569 Eh           34521.19163 eV
Virial Ratio       :            2.00168824


---------------
SCF CONVERGENCE
---------------

  Last Energy change         ...    4.6502e-09  Tolerance :   1.0000e-08
  Last MAX-Density change    ...    9.5884e-06  Tolerance :   1.0000e-07
  Last RMS-Density change    ...    4.9372e-08  Tolerance :   5.0000e-09
  Last Orbital Gradient      ...    2.0083e-06  Tolerance :   1.0000e-05
  Last Orbital Rotation      ...    6.4338e-06  Tolerance :   1.0000e-05

             **** THE GBW FILE WAS UPDATED (qm_input.vacu.gbw) ****
             **** DENSITY qm_input.vacu.scfp WAS UPDATED ****
             **** ENERGY FILE WAS UPDATED (qm_input.vacu.en.tmp) ****
             **** THE GBW FILE WAS UPDATED (qm_input.vacu.gbw) ****
             **** DENSITY qm_input.vacu.scfp WAS UPDATED ****
----------------
ORBITAL ENERGIES
----------------

  NO   OCC          E(Eh)            E(eV) 
   0   2.0000     -91.891683     -2500.4998 
   1   2.0000     -20.608309      -560.7806 
   2   2.0000     -20.595277      -560.4260 
   3   2.0000     -20.555097      -559.3326 
   4   2.0000     -15.626983      -425.2318 
   5   2.0000     -15.611016      -424.7973 
   6   2.0000     -11.406460      -310.3856 
   7   2.0000     -11.394705      -310.0657 
   8   2.0000     -11.342800      -308.6533 
   9   2.0000     -11.320986      -308.0597 
  10   2.0000     -11.320156      -308.0371 
  11   2.0000     -11.288463      -307.1747 
  12   2.0000     -11.268271      -306.6252 
  13   2.0000     -11.266175      -306.5682 
  14   2.0000     -11.262638      -306.4720 
  15   2.0000     -11.249291      -306.1088 
  16   2.0000     -11.246888      -306.0434 
  17   2.0000     -11.242893      -305.9347 
  18   2.0000     -11.240992      -305.8830 
  19   2.0000     -11.226020      -305.4755 
  20   2.0000      -8.893588      -242.0068 
  21   2.0000      -6.574869      -178.9113 
  22   2.0000      -6.573010      -178.8607 
  23   2.0000      -6.572486      -178.8464 
  24   2.0000      -1.472966       -40.0814 
  25   2.0000      -1.399488       -38.0820 
  26   2.0000      -1.375069       -37.4175 
  27   2.0000      -1.331653       -36.2361 
  28   2.0000      -1.226117       -33.3643 
  29   2.0000      -1.159451       -31.5503 
  30   2.0000      -1.124573       -30.6012 
  31   2.0000      -1.044259       -28.4157 
  32   2.0000      -1.040894       -28.3242 
  33   2.0000      -1.012574       -27.5535 
  34   2.0000      -1.001639       -27.2560 
  35   2.0000      -0.968317       -26.3492 
  36   2.0000      -0.922669       -25.1071 
  37   2.0000      -0.905575       -24.6419 
  38   2.0000      -0.849602       -23.1188 
  39   2.0000      -0.840130       -22.8611 
  40   2.0000      -0.829228       -22.5644 
  41   2.0000      -0.811245       -22.0751 
  42   2.0000      -0.763764       -20.7831 
  43   2.0000      -0.737437       -20.0667 
  44   2.0000      -0.723614       -19.6905 
  45   2.0000      -0.700458       -19.0604 
  46   2.0000      -0.694794       -18.9063 
  47   2.0000      -0.688993       -18.7485 
  48   2.0000      -0.676307       -18.4032 
  49   2.0000      -0.656021       -17.8512 
  50   2.0000      -0.650232       -17.6937 
  51   2.0000      -0.645812       -17.5735 
  52   2.0000      -0.628060       -17.0904 
  53   2.0000      -0.616147       -16.7662 
  54   2.0000      -0.609160       -16.5761 
  55   2.0000      -0.602170       -16.3859 
  56   2.0000      -0.599618       -16.3164 
  57   2.0000      -0.576782       -15.6950 
  58   2.0000      -0.573137       -15.5959 
  59   2.0000      -0.562435       -15.3046 
  60   2.0000      -0.558351       -15.1935 
  61   2.0000      -0.545285       -14.8380 
  62   2.0000      -0.540180       -14.6990 
  63   2.0000      -0.538785       -14.6611 
  64   2.0000      -0.529313       -14.4033 
  65   2.0000      -0.509503       -13.8643 
  66   2.0000      -0.494911       -13.4672 
  67   2.0000      -0.491157       -13.3651 
  68   2.0000      -0.483665       -13.1612 
  69   2.0000      -0.464268       -12.6334 
  70   2.0000      -0.452146       -12.3035 
  71   2.0000      -0.447375       -12.1737 
  72   2.0000      -0.362884        -9.8746 
  73   2.0000      -0.350720        -9.5436 
  74   2.0000      -0.325082        -8.8459 
  75   2.0000      -0.319986        -8.7073 
  76   2.0000      -0.313887        -8.5413 
  77   0.0000       0.075286         2.0486 
  78   0.0000       0.105057         2.8588 
  79   0.0000       0.114109         3.1051 
  80   0.0000       0.119524         3.2524 
  81   0.0000       0.129985         3.5371 
  82   0.0000       0.139976         3.8089 
  83   0.0000       0.145122         3.9490 
  84   0.0000       0.151494         4.1224 
  85   0.0000       0.158652         4.3171 
  86   0.0000       0.172848         4.7034 
  87   0.0000       0.174207         4.7404 
  88   0.0000       0.190187         5.1753 
  89   0.0000       0.194090         5.2815 
  90   0.0000       0.199388         5.4256 
  91   0.0000       0.204670         5.5693 
  92   0.0000       0.210070         5.7163 
  93   0.0000       0.219478         5.9723 
  94   0.0000       0.226188         6.1549 
  95   0.0000       0.230225         6.2647 
  96   0.0000       0.232976         6.3396 
  97   0.0000       0.240734         6.5507 
  98   0.0000       0.258716         7.0400 
  99   0.0000       0.274149         7.4600 
 100   0.0000       0.286001         7.7825 
 101   0.0000       0.301926         8.2158 
 102   0.0000       0.303824         8.2675 
 103   0.0000       0.312377         8.5002 
 104   0.0000       0.324294         8.8245 
 105   0.0000       0.329637         8.9699 
 106   0.0000       0.338619         9.2143 
 107   0.0000       0.343452         9.3458 
 108   0.0000       0.357447         9.7266 
 109   0.0000       0.359800         9.7907 
 110   0.0000       0.366034         9.9603 
 111   0.0000       0.374679        10.1955 
 112   0.0000       0.379111        10.3161 
 113   0.0000       0.382750        10.4151 
 114   0.0000       0.391317        10.6483 
 115   0.0000       0.402284        10.9467 
 116   0.0000       0.407784        11.0964 
 117   0.0000       0.418783        11.3957 
 118   0.0000       0.429396        11.6845 
 119   0.0000       0.440289        11.9809 
 120   0.0000       0.442318        12.0361 
 121   0.0000       0.447721        12.1831 
 122   0.0000       0.451669        12.2906 
 123   0.0000       0.454032        12.3548 
 124   0.0000       0.463693        12.6177 
 125   0.0000       0.466759        12.7012 
 126   0.0000       0.469986        12.7890 
 127   0.0000       0.471139        12.8203 
 128   0.0000       0.485199        13.2029 
 129   0.0000       0.489286        13.3141 
 130   0.0000       0.494975        13.4689 
 131   0.0000       0.497872        13.5478 
 132   0.0000       0.504619        13.7314 
 133   0.0000       0.507788        13.8176 
 134   0.0000       0.519329        14.1317 
 135   0.0000       0.524788        14.2802 
 136   0.0000       0.528983        14.3944 
 137   0.0000       0.532441        14.4884 
 138   0.0000       0.539411        14.6781 
 139   0.0000       0.543856        14.7991 
 140   0.0000       0.550055        14.9678 
 141   0.0000       0.553285        15.0557 
 142   0.0000       0.562533        15.3073 
 143   0.0000       0.563895        15.3444 
 144   0.0000       0.575140        15.6504 
 145   0.0000       0.577462        15.7135 
 146   0.0000       0.581466        15.8225 
 147   0.0000       0.583374        15.8744 
 148   0.0000       0.587725        15.9928 
 149   0.0000       0.591569        16.0974 
 150   0.0000       0.596559        16.2332 
 151   0.0000       0.598163        16.2768 
 152   0.0000       0.608550        16.5595 
 153   0.0000       0.611620        16.6430 
 154   0.0000       0.616033        16.7631 
 155   0.0000       0.622560        16.9407 
 156   0.0000       0.624645        16.9975 
 157   0.0000       0.629329        17.1249 
 158   0.0000       0.633208        17.2305 
 159   0.0000       0.634064        17.2538 
 160   0.0000       0.638457        17.3733 
 161   0.0000       0.645533        17.5659 
 162   0.0000       0.649782        17.6815 
 163   0.0000       0.652573        17.7574 
 164   0.0000       0.659998        17.9594 
 165   0.0000       0.661088        17.9891 
 166   0.0000       0.665711        18.1149 
 167   0.0000       0.668515        18.1912 
 168   0.0000       0.681995        18.5580 
 169   0.0000       0.684018        18.6131 
 170   0.0000       0.698566        19.0089 
 171   0.0000       0.702457        19.1148 
 172   0.0000       0.710531        19.3345 
 173   0.0000       0.713436        19.4136 
 174   0.0000       0.717173        19.5153 
 175   0.0000       0.724249        19.7078 
 176   0.0000       0.728261        19.8170 
 177   0.0000       0.735019        20.0009 
 178   0.0000       0.743339        20.2273 
 179   0.0000       0.757552        20.6140 
 180   0.0000       0.759329        20.6624 
 181   0.0000       0.766374        20.8541 
 182   0.0000       0.771394        20.9907 
 183   0.0000       0.775586        21.1048 
 184   0.0000       0.779669        21.2159 
 185   0.0000       0.791882        21.5482 
 186   0.0000       0.798036        21.7157 
 187   0.0000       0.809761        22.0347 
 188   0.0000       0.820017        22.3138 
 189   0.0000       0.823553        22.4100 
 190   0.0000       0.832696        22.6588 
 191   0.0000       0.836707        22.7680 
 192   0.0000       0.846957        23.0469 
 193   0.0000       0.851421        23.1683 
 194   0.0000       0.859294        23.3826 
 195   0.0000       0.867448        23.6045 
 196   0.0000       0.872326        23.7372 
 197   0.0000       0.881865        23.9968 
 198   0.0000       0.883838        24.0505 
 199   0.0000       0.895134        24.3578 
 200   0.0000       0.907496        24.6942 
 201   0.0000       0.913935        24.8694 
 202   0.0000       0.918495        24.9935 
 203   0.0000       0.925315        25.1791 
 204   0.0000       0.931899        25.3583 
 205   0.0000       0.939173        25.5562 
 206   0.0000       0.943174        25.6651 
 207   0.0000       0.947004        25.7693 
 208   0.0000       0.955648        26.0045 
 209   0.0000       0.961855        26.1734 
 210   0.0000       0.968585        26.3565 
 211   0.0000       0.979722        26.6596 
 212   0.0000       0.988033        26.8857 
 213   0.0000       0.988375        26.8950 
 214   0.0000       0.996568        27.1180 
 215   0.0000       1.010760        27.5042 
 216   0.0000       1.017515        27.6880 
 217   0.0000       1.018780        27.7224 
 218   0.0000       1.027601        27.9624 
 219   0.0000       1.037099        28.2209 
 220   0.0000       1.041301        28.3352 
 221   0.0000       1.055847        28.7311 
 222   0.0000       1.057820        28.7847 
 223   0.0000       1.060187        28.8492 
 224   0.0000       1.068783        29.0831 
 225   0.0000       1.082475        29.4556 
 226   0.0000       1.094707        29.7885 
 227   0.0000       1.103552        30.0292 
 228   0.0000       1.109839        30.2002 
 229   0.0000       1.112805        30.2810 
 230   0.0000       1.120353        30.4863 
 231   0.0000       1.123086        30.5607 
 232   0.0000       1.128689        30.7132 
 233   0.0000       1.143235        31.1090 
 234   0.0000       1.152162        31.3519 
 235   0.0000       1.155502        31.4428 
 236   0.0000       1.160934        31.5906 
 237   0.0000       1.172607        31.9083 
 238   0.0000       1.174713        31.9656 
 239   0.0000       1.179517        32.0963 
 240   0.0000       1.189473        32.3672 
 241   0.0000       1.194893        32.5147 
 242   0.0000       1.201709        32.7002 
 243   0.0000       1.206272        32.8243 
 244   0.0000       1.217357        33.1260 
 245   0.0000       1.222032        33.2532 
 246   0.0000       1.228574        33.4312 
 247   0.0000       1.236992        33.6603 
 248   0.0000       1.245842        33.9011 
 249   0.0000       1.250336        34.0234 
 250   0.0000       1.255783        34.1716 
 251   0.0000       1.271964        34.6119 
 252   0.0000       1.285302        34.9749 
 253   0.0000       1.289095        35.0780 
 254   0.0000       1.292347        35.1666 
 255   0.0000       1.296575        35.2816 
 256   0.0000       1.306297        35.5462 
 257   0.0000       1.309883        35.6437 
 258   0.0000       1.325250        36.0619 
 259   0.0000       1.330390        36.2017 
 260   0.0000       1.338413        36.4201 
 261   0.0000       1.340794        36.4849 
 262   0.0000       1.347119        36.6570 
 263   0.0000       1.355283        36.8791 
 264   0.0000       1.357918        36.9508 
 265   0.0000       1.362724        37.0816 
 266   0.0000       1.373702        37.3803 
 267   0.0000       1.387704        37.7613 
 268   0.0000       1.394209        37.9384 
 269   0.0000       1.402273        38.1578 
 270   0.0000       1.406716        38.2787 
 271   0.0000       1.423545        38.7366 
 272   0.0000       1.425476        38.7892 
 273   0.0000       1.432610        38.9833 
 274   0.0000       1.443152        39.2702 
 275   0.0000       1.451534        39.4983 
 276   0.0000       1.459120        39.7047 
 277   0.0000       1.467466        39.9318 
 278   0.0000       1.476498        40.1776 
 279   0.0000       1.489755        40.5383 
 280   0.0000       1.493233        40.6329 
 281   0.0000       1.499939        40.8154 
 282   0.0000       1.505817        40.9754 
 283   0.0000       1.510968        41.1155 
 284   0.0000       1.512171        41.1483 
 285   0.0000       1.518826        41.3293 
 286   0.0000       1.523498        41.4565 
 287   0.0000       1.524857        41.4935 
 288   0.0000       1.536044        41.7979 
 289   0.0000       1.548681        42.1417 
 290   0.0000       1.554515        42.3005 
 291   0.0000       1.561835        42.4997 
 292   0.0000       1.568615        42.6842 
 293   0.0000       1.575258        42.8650 
 294   0.0000       1.577932        42.9377 
 295   0.0000       1.579979        42.9934 
 296   0.0000       1.588414        43.2229 
 297   0.0000       1.594072        43.3769 
 298   0.0000       1.600314        43.5468 
 299   0.0000       1.617947        44.0266 
 300   0.0000       1.629603        44.3437 
 301   0.0000       1.636474        44.5307 
 302   0.0000       1.640351        44.6362 
 303   0.0000       1.648789        44.8658 
 304   0.0000       1.660535        45.1855 
 305   0.0000       1.668636        45.4059 
 306   0.0000       1.677035        45.6345 
 307   0.0000       1.681511        45.7562 
 308   0.0000       1.686752        45.8988 
 309   0.0000       1.701561        46.3018 
 310   0.0000       1.721294        46.8388 
 311   0.0000       1.726709        46.9861 
 312   0.0000       1.731068        47.1048 
 313   0.0000       1.741616        47.3918 
 314   0.0000       1.747363        47.5482 
 315   0.0000       1.754102        47.7315 
 316   0.0000       1.756748        47.8035 
 317   0.0000       1.773356        48.2555 
 318   0.0000       1.787107        48.6297 
 319   0.0000       1.793869        48.8137 
 320   0.0000       1.808669        49.2164 
 321   0.0000       1.819803        49.5194 
 322   0.0000       1.826524        49.7022 
 323   0.0000       1.841490        50.1095 
 324   0.0000       1.853016        50.4231 
 325   0.0000       1.864771        50.7430 
 326   0.0000       1.865027        50.7500 
 327   0.0000       1.873340        50.9762 
 328   0.0000       1.900307        51.7100 
 329   0.0000       1.901383        51.7393 
 330   0.0000       1.912579        52.0439 
 331   0.0000       1.919055        52.2201 
 332   0.0000       1.935504        52.6677 
 333   0.0000       1.944806        52.9209 
 334   0.0000       1.951090        53.0918 
 335   0.0000       1.956887        53.2496 
 336   0.0000       1.969860        53.6026 
 337   0.0000       1.977133        53.8005 
 338   0.0000       1.989731        54.1433 
 339   0.0000       1.999868        54.4192 
 340   0.0000       2.015184        54.8359 
 341   0.0000       2.026678        55.1487 
 342   0.0000       2.030008        55.2393 
 343   0.0000       2.040531        55.5257 
 344   0.0000       2.059461        56.0408 
 345   0.0000       2.070907        56.3522 
 346   0.0000       2.089554        56.8596 
 347   0.0000       2.109217        57.3947 
 348   0.0000       2.116290        57.5872 
 349   0.0000       2.134623        58.0860 
 350   0.0000       2.157706        58.7142 
 351   0.0000       2.180368        59.3308 
 352   0.0000       2.189204        59.5713 
 353   0.0000       2.198228        59.8168 
 354   0.0000       2.213071        60.2207 
 355   0.0000       2.231591        60.7247 
 356   0.0000       2.249999        61.2256 
 357   0.0000       2.267597        61.7045 
 358   0.0000       2.272711        61.8436 
 359   0.0000       2.293867        62.4193 
 360   0.0000       2.297460        62.5171 
 361   0.0000       2.316367        63.0316 
 362   0.0000       2.336760        63.5865 
 363   0.0000       2.344979        63.8101 
 364   0.0000       2.353710        64.0477 
 365   0.0000       2.371565        64.5336 
 366   0.0000       2.378348        64.7182 
 367   0.0000       2.388931        65.0061 
 368   0.0000       2.391558        65.0776 
 369   0.0000       2.414546        65.7031 
 370   0.0000       2.431493        66.1643 
 371   0.0000       2.448519        66.6276 
 372   0.0000       2.464297        67.0569 
 373   0.0000       2.478943        67.4555 
 374   0.0000       2.483085        67.5682 
 375   0.0000       2.496415        67.9309 
 376   0.0000       2.512248        68.3617 
 377   0.0000       2.517598        68.5073 
 378   0.0000       2.527500        68.7768 
 379   0.0000       2.533534        68.9410 
 380   0.0000       2.547184        69.3124 
 381   0.0000       2.552986        69.4703 
 382   0.0000       2.563346        69.7522 
 383   0.0000       2.592952        70.5578 
 384   0.0000       2.596284        70.6485 
 385   0.0000       2.611170        71.0535 
 386   0.0000       2.623961        71.4016 
 387   0.0000       2.638263        71.7908 
 388   0.0000       2.641135        71.8689 
 389   0.0000       2.653169        72.1964 
 390   0.0000       2.668775        72.6211 
 391   0.0000       2.677561        72.8601 
 392   0.0000       2.698263        73.4235 
 393   0.0000       2.710922        73.7679 
 394   0.0000       2.714128        73.8552 
 395   0.0000       2.717826        73.9558 
 396   0.0000       2.725088        74.1534 
 397   0.0000       2.741010        74.5867 
 398   0.0000       2.742458        74.6261 
 399   0.0000       2.754728        74.9600 
 400   0.0000       2.767085        75.2962 
 401   0.0000       2.775857        75.5349 
 402   0.0000       2.785517        75.7978 
 403   0.0000       2.793390        76.0120 
 404   0.0000       2.811672        76.5095 
 405   0.0000       2.817770        76.6754 
 406   0.0000       2.824383        76.8554 
 407   0.0000       2.832434        77.0744 
 408   0.0000       2.843406        77.3730 
 409   0.0000       2.847917        77.4958 
 410   0.0000       2.855917        77.7135 
 411   0.0000       2.863414        77.9174 
 412   0.0000       2.881028        78.3968 
 413   0.0000       2.889379        78.6240 
 414   0.0000       2.897563        78.8467 
 415   0.0000       2.905362        79.0589 
 416   0.0000       2.914064        79.2957 
 417   0.0000       2.921773        79.5055 
 418   0.0000       2.927847        79.6708 
 419   0.0000       2.946708        80.1840 
 420   0.0000       2.952083        80.3303 
 421   0.0000       2.964418        80.6659 
 422   0.0000       2.973085        80.9017 
 423   0.0000       2.981063        81.1188 
 424   0.0000       2.989868        81.3584 
 425   0.0000       2.993950        81.4695 
 426   0.0000       3.007917        81.8496 
 427   0.0000       3.013311        81.9964 
 428   0.0000       3.022523        82.2470 
 429   0.0000       3.031873        82.5014 
 430   0.0000       3.040630        82.7397 
 431   0.0000       3.045158        82.8630 
 432   0.0000       3.045855        82.8819 
 433   0.0000       3.062947        83.3470 
 434   0.0000       3.066455        83.4425 
 435   0.0000       3.076891        83.7264 
 436   0.0000       3.086782        83.9956 
 437   0.0000       3.088830        84.0513 
 438   0.0000       3.098920        84.3259 
 439   0.0000       3.106795        84.5402 
 440   0.0000       3.112316        84.6904 
 441   0.0000       3.116073        84.7927 
 442   0.0000       3.122482        84.9671 
 443   0.0000       3.127934        85.1154 
 444   0.0000       3.138594        85.4055 
 445   0.0000       3.152262        85.7774 
 446   0.0000       3.153116        85.8006 
 447   0.0000       3.161483        86.0283 
 448   0.0000       3.166245        86.1579 
 449   0.0000       3.171143        86.2912 
 450   0.0000       3.179868        86.5286 
 451   0.0000       3.192884        86.8828 
 452   0.0000       3.205478        87.2255 
 453   0.0000       3.207440        87.2789 
 454   0.0000       3.218254        87.5731 
 455   0.0000       3.225347        87.7661 
 456   0.0000       3.235125        88.0322 
 457   0.0000       3.241673        88.2104 
 458   0.0000       3.248795        88.4042 
 459   0.0000       3.253119        88.5219 
 460   0.0000       3.260529        88.7235 
 461   0.0000       3.269484        88.9672 
 462   0.0000       3.277066        89.1735 
 463   0.0000       3.281269        89.2879 
 464   0.0000       3.284484        89.3754 
 465   0.0000       3.288740        89.4912 
 466   0.0000       3.295755        89.6821 
 467   0.0000       3.308886        90.0394 
 468   0.0000       3.314533        90.1930 
 469   0.0000       3.324964        90.4769 
 470   0.0000       3.333341        90.7048 
 471   0.0000       3.339028        90.8596 
 472   0.0000       3.341820        90.9355 
 473   0.0000       3.346336        91.0584 
 474   0.0000       3.351090        91.1878 
 475   0.0000       3.354599        91.2833 
 476   0.0000       3.356683        91.3400 
 477   0.0000       3.363342        91.5212 
 478   0.0000       3.369133        91.6788 
 479   0.0000       3.374148        91.8152 
 480   0.0000       3.382115        92.0320 
 481   0.0000       3.389978        92.2460 
 482   0.0000       3.399745        92.5118 
 483   0.0000       3.401396        92.5567 
 484   0.0000       3.406304        92.6903 
 485   0.0000       3.412073        92.8472 
 486   0.0000       3.416564        92.9694 
 487   0.0000       3.425753        93.2195 
 488   0.0000       3.426538        93.2408 
 489   0.0000       3.430784        93.3564 
 490   0.0000       3.445196        93.7486 
 491   0.0000       3.448291        93.8328 
 492   0.0000       3.453468        93.9736 
 493   0.0000       3.458112        94.1000 
 494   0.0000       3.463504        94.2467 
 495   0.0000       3.467919        94.3669 
 496   0.0000       3.474105        94.5352 
 497   0.0000       3.485790        94.8532 
 498   0.0000       3.487745        94.9064 
 499   0.0000       3.492760        95.0428 
 500   0.0000       3.499751        95.2331 
 501   0.0000       3.512299        95.5745 
 502   0.0000       3.514636        95.6381 
 503   0.0000       3.520207        95.7897 
 504   0.0000       3.526684        95.9659 
 505   0.0000       3.535935        96.2177 
 506   0.0000       3.543659        96.4279 
 507   0.0000       3.555256        96.7434 
 508   0.0000       3.559413        96.8565 
 509   0.0000       3.572431        97.2108 
 510   0.0000       3.577413        97.3463 
 511   0.0000       3.581142        97.4478 
 512   0.0000       3.589718        97.6812 
 513   0.0000       3.595049        97.8263 
 514   0.0000       3.600677        97.9794 
 515   0.0000       3.614630        98.3591 
 516   0.0000       3.619852        98.5012 
 517   0.0000       3.621409        98.5436 
 518   0.0000       3.626599        98.6848 
 519   0.0000       3.632609        98.8483 
 520   0.0000       3.642855        99.1271 
 521   0.0000       3.646265        99.2199 
 522   0.0000       3.652766        99.3968 
 523   0.0000       3.662320        99.6568 
 524   0.0000       3.669509        99.8524 
 525   0.0000       3.675109       100.0048 
 526   0.0000       3.684352       100.2563 
 527   0.0000       3.685490       100.2873 
 528   0.0000       3.696672       100.5916 
 529   0.0000       3.700914       100.7070 
 530   0.0000       3.710330       100.9632 
 531   0.0000       3.712821       101.0310 
 532   0.0000       3.721293       101.2615 
 533   0.0000       3.725835       101.3851 
 534   0.0000       3.729496       101.4848 
 535   0.0000       3.734660       101.6253 
 536   0.0000       3.747448       101.9732 
 537   0.0000       3.750858       102.0660 
 538   0.0000       3.756586       102.2219 
 539   0.0000       3.767233       102.5116 
 540   0.0000       3.770324       102.5957 
 541   0.0000       3.785264       103.0023 
 542   0.0000       3.786681       103.0408 
 543   0.0000       3.793750       103.2332 
 544   0.0000       3.802262       103.4648 
 545   0.0000       3.815902       103.8360 
 546   0.0000       3.819325       103.9291 
 547   0.0000       3.824597       104.0726 
 548   0.0000       3.836757       104.4035 
 549   0.0000       3.842929       104.5714 
 550   0.0000       3.847257       104.6892 
 551   0.0000       3.847519       104.6963 
 552   0.0000       3.860464       105.0486 
 553   0.0000       3.869682       105.2994 
 554   0.0000       3.871590       105.3513 
 555   0.0000       3.884718       105.7086 
 556   0.0000       3.891281       105.8871 
 557   0.0000       3.912770       106.4719 
 558   0.0000       3.914735       106.5254 
 559   0.0000       3.925527       106.8190 
 560   0.0000       3.928430       106.8980 
 561   0.0000       3.930229       106.9470 
 562   0.0000       3.943905       107.3191 
 563   0.0000       3.966654       107.9381 
 564   0.0000       3.971599       108.0727 
 565   0.0000       3.980615       108.3180 
 566   0.0000       3.988949       108.5448 
 567   0.0000       3.995815       108.7317 
 568   0.0000       4.004592       108.9705 
 569   0.0000       4.008629       109.0804 
 570   0.0000       4.019510       109.3764 
 571   0.0000       4.032345       109.7257 
 572   0.0000       4.039031       109.9076 
 573   0.0000       4.042046       109.9897 
 574   0.0000       4.066733       110.6614 
 575   0.0000       4.069251       110.7299 
 576   0.0000       4.078302       110.9762 
 577   0.0000       4.084892       111.1556 
 578   0.0000       4.085489       111.1718 
 579   0.0000       4.098039       111.5133 
 580   0.0000       4.107144       111.7611 
 581   0.0000       4.108259       111.7914 
 582   0.0000       4.119744       112.1039 
 583   0.0000       4.127783       112.3227 
 584   0.0000       4.131341       112.4195 
 585   0.0000       4.133721       112.4843 
 586   0.0000       4.146896       112.8428 
 587   0.0000       4.147536       112.8602 
 588   0.0000       4.153106       113.0118 
 589   0.0000       4.166628       113.3797 
 590   0.0000       4.169399       113.4551 
 591   0.0000       4.176149       113.6388 
 592   0.0000       4.182351       113.8076 
 593   0.0000       4.199404       114.2716 
 594   0.0000       4.202228       114.3484 
 595   0.0000       4.208644       114.5230 
 596   0.0000       4.212042       114.6155 
 597   0.0000       4.217544       114.7652 
 598   0.0000       4.226932       115.0207 
 599   0.0000       4.233349       115.1953 
 600   0.0000       4.238392       115.3325 
 601   0.0000       4.243898       115.4823 
 602   0.0000       4.262315       115.9835 
 603   0.0000       4.267424       116.1225 
 604   0.0000       4.272705       116.2662 
 605   0.0000       4.279474       116.4504 
 606   0.0000       4.286028       116.6287 
 607   0.0000       4.302994       117.0904 
 608   0.0000       4.309535       117.2684 
 609   0.0000       4.320919       117.5782 
 610   0.0000       4.327543       117.7584 
 611   0.0000       4.334383       117.9446 
 612   0.0000       4.343950       118.2049 
 613   0.0000       4.345197       118.2388 
 614   0.0000       4.353679       118.4696 
 615   0.0000       4.356491       118.5461 
 616   0.0000       4.360481       118.6547 
 617   0.0000       4.367720       118.8517 
 618   0.0000       4.376531       119.0915 
 619   0.0000       4.392877       119.5363 
 620   0.0000       4.396501       119.6349 
 621   0.0000       4.402085       119.7868 
 622   0.0000       4.405256       119.8731 
 623   0.0000       4.416549       120.1804 
 624   0.0000       4.420280       120.2819 
 625   0.0000       4.434526       120.6696 
 626   0.0000       4.446720       121.0014 
 627   0.0000       4.456592       121.2700 
 628   0.0000       4.465284       121.5066 
 629   0.0000       4.476583       121.8140 
 630   0.0000       4.478832       121.8752 
 631   0.0000       4.490505       122.1929 
 632   0.0000       4.498552       122.4118 
 633   0.0000       4.508957       122.6950 
 634   0.0000       4.516973       122.9131 
 635   0.0000       4.527086       123.1883 
 636   0.0000       4.530499       123.2811 
 637   0.0000       4.536094       123.4334 
 638   0.0000       4.549624       123.8016 
 639   0.0000       4.555731       123.9677 
 640   0.0000       4.563937       124.1911 
 641   0.0000       4.565300       124.2281 
 642   0.0000       4.580267       124.6354 
 643   0.0000       4.594241       125.0157 
 644   0.0000       4.597387       125.1012 
 645   0.0000       4.608346       125.3995 
 646   0.0000       4.617510       125.6488 
 647   0.0000       4.622074       125.7730 
 648   0.0000       4.630198       125.9941 
 649   0.0000       4.635295       126.1328 
 650   0.0000       4.645185       126.4019 
 651   0.0000       4.660099       126.8078 
 652   0.0000       4.678718       127.3144 
 653   0.0000       4.684369       127.4682 
 654   0.0000       4.689111       127.5972 
 655   0.0000       4.702330       127.9569 
 656   0.0000       4.710084       128.1679 
 657   0.0000       4.716584       128.3448 
 658   0.0000       4.727214       128.6340 
 659   0.0000       4.748050       129.2010 
 660   0.0000       4.750828       129.2766 
 661   0.0000       4.780777       130.0916 
 662   0.0000       4.782003       130.1249 
 663   0.0000       4.792399       130.4078 
 664   0.0000       4.798753       130.5807 
 665   0.0000       4.816737       131.0701 
 666   0.0000       4.828417       131.3879 
 667   0.0000       4.842668       131.7757 
 668   0.0000       4.851690       132.0212 
 669   0.0000       4.860161       132.2517 
 670   0.0000       4.869574       132.5078 
 671   0.0000       4.900449       133.3480 
 672   0.0000       4.925056       134.0176 
 673   0.0000       4.927324       134.0793 
 674   0.0000       4.959004       134.9413 
 675   0.0000       4.975768       135.3975 
 676   0.0000       4.982121       135.5704 
 677   0.0000       4.991143       135.8159 
 678   0.0000       5.011193       136.3615 
 679   0.0000       5.039529       137.1326 
 680   0.0000       5.042086       137.2021 
 681   0.0000       5.055943       137.5792 
 682   0.0000       5.065555       137.8407 
 683   0.0000       5.074254       138.0775 
 684   0.0000       5.085104       138.3727 
 685   0.0000       5.099624       138.7678 
 686   0.0000       5.114704       139.1782 
 687   0.0000       5.123494       139.4174 
 688   0.0000       5.140402       139.8774 
 689   0.0000       5.150578       140.1543 
 690   0.0000       5.151311       140.1743 
 691   0.0000       5.176034       140.8471 
 692   0.0000       5.181207       140.9878 
 693   0.0000       5.187274       141.1529 
 694   0.0000       5.194421       141.3474 
 695   0.0000       5.200166       141.5037 
 696   0.0000       5.212133       141.8294 
 697   0.0000       5.217067       141.9636 
 698   0.0000       5.232935       142.3954 
 699   0.0000       5.239708       142.5797 
 700   0.0000       5.248872       142.8291 
 701   0.0000       5.266253       143.3020 
 702   0.0000       5.287161       143.8710 
 703   0.0000       5.297703       144.1578 
 704   0.0000       5.304564       144.3445 
 705   0.0000       5.317585       144.6989 
 706   0.0000       5.330093       145.0392 
 707   0.0000       5.343562       145.4057 
 708   0.0000       5.354889       145.7139 
 709   0.0000       5.360935       145.8785 
 710   0.0000       5.379263       146.3772 
 711   0.0000       5.399463       146.9269 
 712   0.0000       5.418059       147.4329 
 713   0.0000       5.434385       147.8771 
 714   0.0000       5.439935       148.0281 
 715   0.0000       5.449495       148.2883 
 716   0.0000       5.466796       148.7591 
 717   0.0000       5.478573       149.0795 
 718   0.0000       5.497815       149.6032 
 719   0.0000       5.512205       149.9947 
 720   0.0000       5.517036       150.1262 
 721   0.0000       5.532322       150.5421 
 722   0.0000       5.557613       151.2304 
 723   0.0000       5.568527       151.5273 
 724   0.0000       5.583603       151.9376 
 725   0.0000       5.587947       152.0558 
 726   0.0000       5.592765       152.1869 
 727   0.0000       5.600992       152.4107 
 728   0.0000       5.617079       152.8485 
 729   0.0000       5.631111       153.2303 
 730   0.0000       5.640330       153.4812 
 731   0.0000       5.647049       153.6640 
 732   0.0000       5.653616       153.8427 
 733   0.0000       5.668934       154.2595 
 734   0.0000       5.683722       154.6619 
 735   0.0000       5.693098       154.9171 
 736   0.0000       5.709094       155.3523 
 737   0.0000       5.714245       155.4925 
 738   0.0000       5.731278       155.9560 
 739   0.0000       5.732842       155.9986 
 740   0.0000       5.737515       156.1257 
 741   0.0000       5.754872       156.5980 
 742   0.0000       5.766571       156.9164 
 743   0.0000       5.786688       157.4638 
 744   0.0000       5.801496       157.8667 
 745   0.0000       5.827129       158.5643 
 746   0.0000       5.857446       159.3892 
 747   0.0000       5.889161       160.2522 
 748   0.0000       5.919376       161.0744 
 749   0.0000       5.939185       161.6134 
 750   0.0000       5.947199       161.8315 
 751   0.0000       5.964447       162.3008 
 752   0.0000       5.977149       162.6465 
 753   0.0000       5.983358       162.8154 
 754   0.0000       6.003195       163.3552 
 755   0.0000       6.025188       163.9537 
 756   0.0000       6.034524       164.2078 
 757   0.0000       6.054993       164.7647 
 758   0.0000       6.065940       165.0626 
 759   0.0000       6.083628       165.5439 
 760   0.0000       6.108424       166.2187 
 761   0.0000       6.117819       166.4743 
 762   0.0000       6.174260       168.0102 
 763   0.0000       6.217187       169.1783 
 764   0.0000       6.222408       169.3203 
 765   0.0000       6.241543       169.8410 
 766   0.0000       6.254680       170.1985 
 767   0.0000       6.281017       170.9152 
 768   0.0000       6.288770       171.1261 
 769   0.0000       6.292836       171.2368 
 770   0.0000       6.317764       171.9151 
 771   0.0000       6.367051       173.2563 
 772   0.0000       6.393044       173.9636 
 773   0.0000       6.433392       175.0615 
 774   0.0000       6.445698       175.3964 
 775   0.0000       6.463291       175.8751 
 776   0.0000       6.532185       177.7498 
 777   0.0000       6.548319       178.1888 
 778   0.0000       6.564559       178.6307 
 779   0.0000       6.622203       180.1993 
 780   0.0000       6.655833       181.1144 
 781   0.0000       6.707033       182.5077 
 782   0.0000       6.734953       183.2674 
 783   0.0000       6.763067       184.0324 
 784   0.0000       6.784541       184.6167 
 785   0.0000       6.819662       185.5724 
 786   0.0000       6.864802       186.8008 
 787   0.0000       6.901795       187.8074 
 788   0.0000       6.916670       188.2121 
 789   0.0000       6.976704       189.8458 
 790   0.0000       6.983029       190.0179 
 791   0.0000       7.012633       190.8235 
 792   0.0000       7.076808       192.5697 
 793   0.0000       7.100479       193.2139 
 794   0.0000       7.213235       196.2821 
 795   0.0000       7.242211       197.0706 
 796   0.0000       7.266077       197.7200 
 797   0.0000       7.273133       197.9120 
 798   0.0000       7.329351       199.4418 
 799   0.0000       7.353132       200.0889 
 800   0.0000       7.456622       202.9050 
 801   0.0000       7.539278       205.1542 
 802   0.0000       7.547297       205.3724 
 803   0.0000       7.570254       205.9971 
 804   0.0000       7.667887       208.6538 
 805   0.0000       7.671501       208.7522 
 806   0.0000       7.898095       214.9181 
 807   0.0000       7.943429       216.1517 
 808   0.0000       7.984458       217.2681 
 809   0.0000       9.257504       251.9095 
 810   0.0000       9.459038       257.3935 
 811   0.0000      10.472269       284.9649 
 812   0.0000      11.361689       309.1673 
 813   0.0000      12.095263       329.1288 
 814   0.0000      12.248817       333.3073 
 815   0.0000      12.711457       345.8963 
 816   0.0000      12.829333       349.1039 
 817   0.0000      13.104276       356.5855 
 818   0.0000      13.279119       361.3432 
 819   0.0000      13.426544       365.3548 
 820   0.0000      13.548276       368.6673 
 821   0.0000      13.641781       371.2117 
 822   0.0000      13.739116       373.8604 
 823   0.0000      14.009376       381.2145 
 824   0.0000      14.095509       383.5583 
 825   0.0000      14.236189       387.3864 
 826   0.0000      14.632498       398.1705 
 827   0.0000      15.597291       424.4239 

                    ********************************
                    * MULLIKEN POPULATION ANALYSIS *
                    ********************************

-----------------------
MULLIKEN ATOMIC CHARGES
-----------------------
   0 C :   -0.291901
   1 C :    0.017665
   2 O :   -0.307483
   3 C :    0.491704
   4 O :   -0.421227
   5 C :   -0.232116
   6 C :    0.149642
   7 C :   -0.265176
   8 N :   -0.165656
   9 C :    0.223386
  10 S :   -0.449748
  11 N :   -0.234272
  12 C :    0.081760
  13 C :    0.100454
  14 C :   -0.221232
  15 C :   -0.134838
  16 C :   -0.242774
  17 C :    0.258573
  18 O :   -0.373285
  19 C :   -0.204671
  20 H :    0.094068
  21 H :    0.093555
  22 H :    0.106920
  23 H :    0.092717
  24 H :    0.099122
  25 H :    0.130421
  26 H :    0.131056
  27 H :    0.093414
  28 H :    0.195132
  29 H :    0.187055
  30 H :    0.149009
  31 H :    0.144779
  32 H :    0.160600
  33 H :    0.141193
  34 H :    0.250058
  35 H :    0.152096
Sum of atomic charges:    0.0000000

--------------------------------
MULLIKEN REDUCED ORBITAL CHARGES
--------------------------------
  0 C s       :     3.263896  s :     3.263896
      pz      :     0.943020  p :     2.951945
      px      :     1.003908
      py      :     1.005016
      dz2     :     0.012268  d :     0.071452
      dxz     :     0.017906
      dyz     :     0.012459
      dx2y2   :     0.023010
      dxy     :     0.005810
      f0      :     0.000564  f :     0.004608
      f+1     :     0.000914
      f-1     :     0.001025
      f+2     :     0.000814
      f-2     :     0.000284
      f+3     :     0.000171
      f-3     :     0.000837
  1 C s       :     3.172267  s :     3.172267
      pz      :     0.800480  p :     2.637077
      px      :     0.833502
      py      :     1.003095
      dz2     :     0.041523  d :     0.159610
      dxz     :     0.038050
      dyz     :     0.023106
      dx2y2   :     0.036621
      dxy     :     0.020310
      f0      :     0.001996  f :     0.013380
      f+1     :     0.003107
      f-1     :     0.001315
      f+2     :     0.002400
      f-2     :     0.002227
      f+3     :     0.000873
      f-3     :     0.001463
  2 O s       :     3.693605  s :     3.693605
      pz      :     1.501422  p :     4.573735
      px      :     1.615777
      py      :     1.456536
      dz2     :     0.006113  d :     0.037573
      dxz     :     0.008820
      dyz     :     0.007083
      dx2y2   :     0.010700
      dxy     :     0.004856
      f0      :     0.000341  f :     0.002571
      f+1     :     0.000375
      f-1     :     0.000386
      f+2     :     0.000644
      f-2     :     0.000416
      f+3     :     0.000191
      f-3     :     0.000217
  3 C s       :     3.029562  s :     3.029562
      pz      :     0.696575  p :     2.157791
      px      :     0.805229
[...]
 15 C s       :     2.699357  s :     2.699357
      pz      :     0.905411  p :     2.804050
      px      :     0.922753
      py      :     0.975887
      dz2     :     0.075517  d :     0.425465
      dxz     :     0.052578
      dyz     :     0.097995
      dx2y2   :     0.083570
      dxy     :     0.115806
      f0      :     0.005669  f :     0.043068
      f+1     :     0.004344
      f-1     :     0.005435
      f+2     :     0.007869
      f-2     :     0.005522
      f+3     :     0.008292
      f-3     :     0.005937
 16 C s       :     2.697736  s :     2.697736
      pz      :     0.947307  p :     2.854846
      px      :     0.950145
      py      :     0.957394
      dz2     :     0.084592  d :     0.411761
      dxz     :     0.068232
      dyz     :     0.083238
      dx2y2   :     0.104817
      dxy     :     0.070882
      f0      :     0.004296  f :     0.042965
      f+1     :     0.005645
      f-1     :     0.005999
      f+2     :     0.007552
      f-2     :     0.007578
      f+3     :     0.005844
      f-3     :     0.006052
 17 C s       :     2.711332  s :     2.711332
      pz      :     0.820990  p :     2.685790
      px      :     0.856371
      py      :     1.008429
      dz2     :     0.104760  d :     0.665424
      dxz     :     0.110667
      dyz     :     0.129432
      dx2y2   :     0.175263
      dxy     :     0.145301
      f0      :     0.007428  f :     0.090847
      f+1     :     0.013319
      f-1     :     0.010284
      f+2     :     0.015956
      f-2     :     0.012647
      f+3     :     0.019596
      f-3     :     0.011616
 18 O s       :     3.189143  s :     3.189143
      pz      :     1.572789  p :     4.374472
      px      :     1.431330
      py      :     1.370353
      dz2     :     0.010695  d :     0.070084
      dxz     :     0.015698
      dyz     :     0.010334
      dx2y2   :     0.018970
      dxy     :     0.014387
      f0      :     0.000279  f :     0.004293
      f+1     :     0.000669
      f-1     :     0.000318
      f+2     :     0.001149
      f-2     :     0.000764
      f+3     :     0.000647
      f-3     :     0.000467
 19 C s       :     2.697883  s :     2.697883
      pz      :     0.925588  p :     2.833859
      px      :     0.935407
      py      :     0.972864
      dz2     :     0.062275  d :     0.398042
      dxz     :     0.048943
      dyz     :     0.100930
      dx2y2   :     0.080151
      dxy     :     0.105743
      f0      :     0.005435  f :     0.041377
      f+1     :     0.003839
      f-1     :     0.005194
      f+2     :     0.007214
      f-2     :     0.006049
      f+3     :     0.008128
      f-3     :     0.005518
 20 H s       :     0.849284  s :     0.849284
      pz      :     0.057394  p :     0.150698
      px      :     0.051800
      py      :     0.041504
      dz2     :     0.007768  d :     0.027340
      dxz     :     0.006313
      dyz     :     0.004899
      dx2y2   :     0.004721
      dxy     :     0.003639
 21 H s       :     0.852006  s :     0.852006
      pz      :     0.039870  p :     0.149878
      px      :     0.068831
      py      :     0.041177
      dz2     :     0.002965  d :     0.027520
      dxz     :     0.008706
      dyz     :     0.001011
      dx2y2   :     0.007458
      dxy     :     0.007379
 22 H s       :     0.846900  s :     0.846900
      pz      :     0.040135  p :     0.152860
      px      :     0.038196
      py      :     0.074529
      dz2     :     0.002543  d :     0.027594
      dxz     :     0.000278
      dyz     :     0.009142
      dx2y2   :     0.007109
      dxy     :     0.008522
 23 H s       :     0.856004  s :     0.856004
      pz      :     0.037135  p :     0.147211
      px      :     0.066963
      py      :     0.043114
      dz2     :     0.003589  d :     0.027524
      dxz     :     0.007512
      dyz     :     0.001608
      dx2y2   :     0.007768
      dxy     :     0.007046
 24 H s       :     0.853810  s :     0.853810
      pz      :     0.033553  p :     0.143440
      px      :     0.031932
      py      :     0.077955
      dz2     :     0.002645  d :     0.027124
      dxz     :     0.000502
      dyz     :     0.008520
      dx2y2   :     0.007446
      dxy     :     0.008011
 25 H s       :     0.828539  s :     0.828539
      pz      :     0.039697  p :     0.151783
      px      :     0.069491
      py      :     0.042595
      dz2     :     0.002546  d :     0.027764
      dxz     :     0.007925
      dyz     :     0.001623
      dx2y2   :     0.007984
      dxy     :     0.007685
 26 H s       :     0.826084  s :     0.826084
      pz      :     0.047458  p :     0.152045
      px      :     0.039854
      py      :     0.064733
      dz2     :     0.005776  d :     0.027660
      dxz     :     0.002367
      dyz     :     0.006988
      dx2y2   :     0.005289
      dxy     :     0.007240
 27 H s       :     0.839770  s :     0.839770
      pz      :     0.070608  p :     0.152726
      px      :     0.040029
      py      :     0.042090
      dz2     :     0.009349  d :     0.027988
      dxz     :     0.008023
      dyz     :     0.008889
      dx2y2   :     0.000677
      dxy     :     0.001048
 28 H s       :     0.744866  s :     0.744866
      pz      :     0.111018  p :     0.257423
      px      :     0.045645
      py      :     0.100760
      dz2     :     0.021385  d :     0.061150
      dxz     :     0.012132
      dyz     :     0.017084
      dx2y2   :     0.006194
      dxy     :     0.004355
 29 H s       :     0.752527  s :     0.752527
      pz      :     0.075982  p :     0.255994
      px      :     0.104192
      py      :     0.075820
      dz2     :     0.011748  d :     0.061043
      dxz     :     0.016757
      dyz     :     0.005178
      dx2y2   :     0.011527
      dxy     :     0.015833
 30 H s       :     0.828714  s :     0.828714
      pz      :     0.080707  p :     0.149853
      px      :     0.033485
      py      :     0.035661
      dz2     :     0.010606  d :     0.028813
      dxz     :     0.008593
      dyz     :     0.008865
      dx2y2   :     0.000441
      dxy     :     0.000307
 31 H s       :     0.848754  s :     0.848754
      pz      :     0.058888  p :     0.159023
      px      :     0.063501
      py      :     0.036635
      dz2     :     0.006296  d :     0.027463
      dxz     :     0.007114
      dyz     :     0.004468
      dx2y2   :     0.004912
      dxy     :     0.004673
 32 H s       :     0.838888  s :     0.838888
      pz      :     0.042486  p :     0.152727
      px      :     0.060262
      py      :     0.049979
      dz2     :     0.003641  d :     0.026997
      dxz     :     0.005278
      dyz     :     0.003390
      dx2y2   :     0.007628
      dxy     :     0.007061
 33 H s       :     0.844497  s :     0.844497
      pz      :     0.041828  p :     0.156754
      px      :     0.039274
      py      :     0.075653
      dz2     :     0.003256  d :     0.027714
      dxz     :     0.000646
      dyz     :     0.008387
      dx2y2   :     0.007088
      dxy     :     0.008337
 34 H s       :     0.706170  s :     0.706170
      pz      :     0.104219  p :     0.348983
      px      :     0.085964
      py      :     0.158799
      dz2     :     0.011325  d :     0.097816
      dxz     :     0.006496
      dyz     :     0.028089
      dx2y2   :     0.027577
      dxy     :     0.024330
 35 H s       :     0.836732  s :     0.836732
      pz      :     0.047352  p :     0.165865
      px      :     0.055874
      py      :     0.062640
      dz2     :     0.004093  d :     0.028487
      dxz     :     0.004391
      dyz     :     0.005342
      dx2y2   :     0.007874
      dxy     :     0.006787


                      *****************************
                      * MAYER POPULATION ANALYSIS *
                      *****************************

  NA   - Mulliken gross atomic population
  ZA   - Total nuclear charge
  QA   - Mulliken gross atomic charge
  VA   - Mayer's total valence
  BVA  - Mayer's bonded valence
  FA   - Mayer's free valence

  ATOM       NA         ZA         QA         VA         BVA        FA
  0 C      6.2919     6.0000    -0.2919     3.8787     3.8787     0.0000
  1 C      5.9823     6.0000     0.0177     3.8850     3.8850    -0.0000
  2 O      8.3075     8.0000    -0.3075     2.0816     2.0816    -0.0000
  3 C      5.5083     6.0000     0.4917     4.1909     4.1909    -0.0000
  4 O      8.4212     8.0000    -0.4212     2.0914     2.0914     0.0000
  5 C      6.2321     6.0000    -0.2321     3.7135     3.7135    -0.0000
  6 C      5.8504     6.0000     0.1496     3.8440     3.8440     0.0000
  7 C      6.2652     6.0000    -0.2652     3.9070     3.9070     0.0000
  8 N      7.1657     7.0000    -0.1657     3.2752     3.2752    -0.0000
  9 C      5.7766     6.0000     0.2234     4.0946     4.0946    -0.0000
 10 S     16.4497    16.0000    -0.4497     1.6460     1.6460     0.0000
 11 N      7.2343     7.0000    -0.2343     3.2127     3.2127     0.0000
 12 C      5.9182     6.0000     0.0818     3.9237     3.9237    -0.0000
 13 C      5.8995     6.0000     0.1005     3.6852     3.6852    -0.0000
 14 C      6.2212     6.0000    -0.2212     3.8911     3.8911     0.0000
 15 C      6.1348     6.0000    -0.1348     3.7984     3.7984     0.0000
 16 C      6.2428     6.0000    -0.2428     3.8005     3.8005     0.0000
 17 C      5.7414     6.0000     0.2586     3.8989     3.8989     0.0000
 18 O      8.3733     8.0000    -0.3733     2.0840     2.0840    -0.0000
 19 C      6.2047     6.0000    -0.2047     3.7818     3.7818     0.0000
 20 H      0.9059     1.0000     0.0941     0.9874     0.9874     0.0000
 21 H      0.9064     1.0000     0.0936     0.9853     0.9853    -0.0000
 22 H      0.8931     1.0000     0.1069     0.9886     0.9886    -0.0000
 23 H      0.9073     1.0000     0.0927     0.9871     0.9871     0.0000
 24 H      0.9009     1.0000     0.0991     0.9744     0.9744    -0.0000
 25 H      0.8696     1.0000     0.1304     0.9836     0.9836     0.0000
 26 H      0.8689     1.0000     0.1311     0.9779     0.9779    -0.0000
 27 H      0.9066     1.0000     0.0934     0.9834     0.9834    -0.0000
 28 H      0.8049     1.0000     0.1951     1.0178     1.0178    -0.0000
 29 H      0.8129     1.0000     0.1871     1.0151     1.0151     0.0000
 30 H      0.8510     1.0000     0.1490     0.9866     0.9866     0.0000
 31 H      0.8552     1.0000     0.1448     0.9869     0.9869     0.0000
 32 H      0.8394     1.0000     0.1606     0.9764     0.9764    -0.0000
 33 H      0.8588     1.0000     0.1412     0.9847     0.9847     0.0000
 34 H      0.7499     1.0000     0.2501     1.0031     1.0031    -0.0000
 35 H      0.8479     1.0000     0.1521     0.9931     0.9931     0.0000

  Mayer bond orders larger than 0.100000
B(  0-C ,  1-C ) :   0.9586 B(  0-C , 20-H ) :   0.9802 B(  0-C , 21-H ) :   0.9773 
B(  0-C , 22-H ) :   0.9778 B(  1-C ,  2-O ) :   0.9348 B(  1-C , 23-H ) :   0.9814 
B(  1-C , 24-H ) :   0.9821 B(  2-O ,  3-C ) :   1.1471 B(  3-C ,  4-O ) :   1.9741 
B(  3-C ,  5-C ) :   1.0407 B(  5-C ,  6-C ) :   1.6903 B(  5-C , 12-C ) :   0.9728 
B(  6-C ,  7-C ) :   0.9738 B(  6-C ,  8-N ) :   1.0913 B(  7-C , 25-H ) :   0.9648 
B(  7-C , 26-H ) :   0.9602 B(  7-C , 27-H ) :   0.9851 B(  8-N ,  9-C ) :   1.2096 
B(  8-N , 28-H ) :   0.9555 B(  9-C , 10-S ) :   1.5078 B(  9-C , 11-N ) :   1.3182 
B( 11-N , 12-C ) :   0.9167 B( 11-N , 29-H ) :   0.9605 B( 12-C , 13-C ) :   0.9711 
B( 12-C , 30-H ) :   0.9980 B( 13-C , 14-C ) :   1.3408 B( 13-C , 19-C ) :   1.3538 
B( 14-C , 15-C ) :   1.4032 B( 14-C , 31-H ) :   0.9765 B( 15-C , 16-C ) :   1.3590 
B( 15-C , 32-H ) :   0.9707 B( 16-C , 17-C ) :   1.3677 B( 16-C , 33-H ) :   0.9772 
B( 17-C , 18-O ) :   1.0803 B( 17-C , 19-C ) :   1.3462 B( 18-O , 34-H ) :   0.9711 
B( 19-C , 35-H ) :   0.9587 

-------
TIMINGS
-------

Total SCF time: 0 days 2 hours 6 min 1 sec 

Total time                  ....    7561.701 sec
Sum of individual times     ....    7558.291 sec  (100.0%)

Fock matrix formation       ....    7544.552 sec  ( 99.8%)
Diagonalization             ....       1.545 sec  (  0.0%)
Density matrix formation    ....       0.217 sec  (  0.0%)
Population analysis         ....       0.203 sec  (  0.0%)
Initial guess               ....       6.495 sec  (  0.1%)
Orbital Transformation      ....       0.000 sec  (  0.0%)
Orbital Orthonormalization  ....       0.000 sec  (  0.0%)
DIIS solution               ....       1.427 sec  (  0.0%)
SOSCF solution              ....       2.130 sec  (  0.0%)

Maximum memory used throughout the entire SCF-calculation: 721.5 MB

------------------------------------------------------------------------------
                                ORCA  MP2 
------------------------------------------------------------------------------

Freezing NCore=48 chemical core electrons

-------------
RI-MP2 ENERGY
-------------
Dimension of the basis                    ...  828
Memory devoted to MP2                     ...  256 MB   
Data format for buffers                   ... DOUBLE
Compression type for matrix containers    ... UNCOMPRESSED
Overall scaling of the MP2 energy         ...   1.000e+00
Calculating two index integrals           ... done (    0.045 sec)
Cholesky decomposition of V**-1           ... done (    0.577 sec)

-----------------
RI-TRANSFORMATION (AUX index driven)
-----------------

Dimension of the orbital-basis         ... 828
Dimension of the aux-basis             ... 2141
Transformation of internal/external MOs...   24-  76 to   77- 827
Number Format for Storage              ... Double (8 Byte)
Integral mode                          ... Direct

First Phase: integral generation and transformation of MO indices
  Aux angular momentum 0               ... done (    5.265 sec)
  Aux angular momentum 1               ... done (    8.709 sec)
  Aux angular momentum 2               ... done (   11.239 sec)
  Aux angular momentum 3               ... done (    9.061 sec)
  Aux angular momentum 4               ... done (    3.135 sec)
Closing buffer VIA ( 0.63 GB; CompressionRatio= 1.00)
  Phase 1 completed in    37.612 sec
Second Phase: sorting and transformation of aux index

IA-Transformation
Memory available                       ... 158 MB 
Max. # MO pairs treated in a batch     ... 11    
# of internal orbitals                 ... 53
# batches for internal orbitals        ... 5
Closing buffer IAV ( 0.63 GB; CompressionRatio= 1.00)
(ia|v) transformation done in    18.561 sec

  Phase 2 completed in    18.570 sec
RI-Integral transformation completed in    56.188 sec
Opening buffers                              ... done

Starting loop over batches of integrals:

Operator 0  - window                       ... ( 24- 76)x( 77-827)
Operator 0  - Memory available             ...   256 MB
Operator 0  - Memory needed per MO         ...  12.3 MB
Operator 0  - Number of orbitals per batch ... 13
Operator 0  - Number of batches            ... 5

OPERATOR  0   PASS   0:  MOs    24 ...   36
  Reading integrals       ... ok
  Internal MO  26
  Internal MO  29
  Internal MO  32
  Internal MO  35
OPERATOR  0   PASS   1:  MOs    37 ...   49
  Reading integrals       ... ok
  Internal MO  38
  Internal MO  41
  Internal MO  44
  Internal MO  47
OPERATOR  0   PASS   2:  MOs    50 ...   62
  Reading integrals       ... ok
  Internal MO  50
  Internal MO  53
  Internal MO  56
  Internal MO  59
  Internal MO  62
OPERATOR  0   PASS   3:  MOs    63 ...   75
  Reading integrals       ... ok
  Internal MO  65
  Internal MO  68
  Internal MO  71
  Internal MO  74
OPERATOR  0   PASS   4:  MOs    76 ...   76
  Reading integrals       ... ok
Time spent in pair loops =    94.509 sec
Deleting buffer (Ka|jb)[aa] ...done

-----------------------------------------------
 RI-MP2 CORRELATION ENERGY:     -3.533925541 Eh
-----------------------------------------------


-------
TIMINGS
-------

Total time                :  151.420 sec
Integral trafo            :   56.210 sec ( 37.1%)
I/O of integrals          :    0.914 sec (  0.6%)
K(i,j) Operators          :   66.504 sec ( 43.9%)
T(i,j) pair energies      :    9.561 sec (  6.3%)
V-calculation             :    0.045 sec (  0.0%)
V**(-1/2)                 :    0.577 sec (  0.4%)
Gamma(ia|P)               :    0.000 sec (  0.0%)
Gamma-Trafo               :    0.000 sec (  0.0%)
D(virtual)                :    0.000 sec (  0.0%)
D(internal)               :    0.000 sec (  0.0%)
W(virtual)                :    0.000 sec (  0.0%)
W(internal)               :    0.000 sec (  0.0%)
L(virtual)                :    0.000 sec (  0.0%)
L(internal)               :    0.000 sec (  0.0%)
G(D)                      :    0.000 sec (  0.0%)
G(Z)                      :    0.000 sec (  0.0%)
Z-Vector Solution         :    0.000 sec (  0.0%)
3-Index Derivative        :    0.000 sec (  0.0%)
2-Index Derivative        :    0.000 sec (  0.0%)
Separable Gradient        :    0.000 sec (  0.0%)


---------------------------------------
MP2 TOTAL ENERGY:    -1274.306205857 Eh
---------------------------------------

Maximum memory used throughout the entire MP2-calculation: 303.3 MB

-------------------------   --------------------
FINAL SINGLE POINT ENERGY     -1274.306205856935
-------------------------   --------------------


                            ***************************************
                            *     ORCA property calculations      *
                            ***************************************


  WARNING: The energy has been calculated at the MP2 level but the densities
           used in the property calculations are still SCF densities
           MP2 response densities have not been calculated 
           use %mp2 Density relaxed end
           or  %mp2 Density unrelaxed end

                                    ---------------------
                                    Active property flags
                                    ---------------------
   (+) Dipole Moment


------------------------------------------------------------------------------
                       ORCA ELECTRIC PROPERTIES CALCULATION
------------------------------------------------------------------------------

Dipole Moment Calculation                       ... on
Quadrupole Moment Calculation                   ... off
Polarizability Calculation                      ... off
GBWName                                         ... qm_input.vacu.gbw
Electron density file                           ... qm_input.vacu.scfp
The origin for moment calculation is the CENTER OF MASS  = (29.161689, -10.449980 -1.988663)

-------------
DIPOLE MOMENT
-------------
                                X             Y             Z
Electronic contribution:     10.13188      -2.32539     -10.38636
Nuclear contribution   :    -11.60631       3.69450      11.52691
                        -----------------------------------------
Total Dipole Moment    :     -1.47443       1.36911       1.14056
                        -----------------------------------------
Magnitude (a.u.)       :      2.31285
Magnitude (Debye)      :      5.87880



--------------------
Rotational spectrum 
--------------------
 
Rotational constants in cm-1:     0.010761     0.008446     0.006056 
Rotational constants in MHz :   322.612195   253.208604   181.554575 

 Dipole components along the rotational axes: 
x,y,z [a.u.] :     2.283582     0.366729     0.006409 
x,y,z [Debye]:     5.804405     0.932151     0.016291 

 

Timings for individual modules:

Sum of individual times         ...     7715.567 sec (= 128.593 min)
GTO integral calculation        ...        2.008 sec (=   0.033 min)   0.0 %
SCF iterations                  ...     7561.747 sec (= 126.029 min)  98.0 %
MP2 module                      ...      151.813 sec (=   2.530 min)   2.0 %
                             ****ORCA TERMINATED NORMALLY****
TOTAL RUN TIME: 0 days 2 hours 8 minutes 36 seconds 513 msec
