
                                        *****************
                                        * O   R   C   A *
                                        *****************

                                            #,                                       
                                            ###                                      
                                            ####                                     
                                            #####                                    
                                            ######                                   
                                           ########,                                 
                                     ,,################,,,,,                         
                               ,,#################################,,                 
                          ,,##########################################,,             
                       ,#########################################, ''#####,          
                    ,#############################################,,   '####,        
                  ,##################################################,,,,####,       
                ,###########''''           ''''###############################       
              ,#####''   ,,,,##########,,,,          '''####'''          '####       
            ,##' ,,,,###########################,,,                        '##       
           ' ,,###''''                  '''############,,,                           
         ,,##''                                '''############,,,,        ,,,,,,###''
      ,#''                                            '''#######################'''  
     '                                                          ''''####''''         
             ,#######,   #######,   ,#######,      ##                                
            ,#'     '#,  ##    ##  ,#'     '#,    #''#        ######   ,####,        
            ##       ##  ##   ,#'  ##            #'  '#       #        #'  '#        
            ##       ##  #######   ##           ,######,      #####,   #    #        
            '#,     ,#'  ##    ##  '#,     ,#' ,#      #,         ##   #,  ,#        
             '#######'   ##     ##  '#######'  #'      '#     #####' # '####'        



                  #######################################################
                  #                        -***-                        #
                  #          Department of theory and spectroscopy      #
                  #    Directorship and core code : Frank Neese         #
                  #        Max Planck Institute fuer Kohlenforschung    #
                  #                Kaiser Wilhelm Platz 1               #
                  #                 D-45470 Muelheim/Ruhr               #
                  #                      Germany                        #
                  #                                                     #
                  #                  All rights reserved                #
                  #                        -***-                        #
                  #######################################################


                         Program Version 5.0.0 -  RELEASE  -
                                (SVN: $Rev: 19529$)
                ($Date: 2021-06-28 11:36:33 +0200 (Mo, 28 Jun 2021) $)


 With contributions from (in alphabetic order):
   Daniel Aravena         : Magnetic Suceptibility
   Michael Atanasov       : Ab Initio Ligand Field Theory (pilot matlab implementation)
   Alexander A. Auer      : GIAO ZORA, VPT2 properties, NMR spectrum
   Ute Becker             : Parallelization
   Giovanni Bistoni       : ED, misc. LED, open-shell LED, HFLD
   Martin Brehm           : Molecular dynamics
   Dmytro Bykov           : SCF Hessian
   Vijay G. Chilkuri      : MRCI spin determinant printing, contributions to CSF-ICE
   Dipayan Datta          : RHF DLPNO-CCSD density
   Achintya Kumar Dutta   : EOM-CC, STEOM-CC
   Dmitry Ganyushin       : Spin-Orbit,Spin-Spin,Magnetic field MRCI
   Miquel Garcia          : C-PCM Hessian, Gaussian charge scheme
   Yang Guo               : DLPNO-NEVPT2, F12-NEVPT2, CIM, IAO-localization
   Andreas Hansen         : Spin unrestricted coupled pair/coupled cluster methods
   Benjamin Helmich-Paris : MC-RPA, TRAH-SCF, COSX integrals
   Lee Huntington         : MR-EOM, pCC
   Robert Izsak           : Overlap fitted RIJCOSX, COSX-SCS-MP3, EOM
   Marcus Kettner         : VPT2
   Christian Kollmar      : KDIIS, OOCD, Brueckner-CCSD(T), CCSD density, CASPT2, CASPT2-K
   Simone Kossmann        : Meta GGA functionals, TD-DFT gradient, OOMP2, MP2 Hessian
   Martin Krupicka        : Initial AUTO-CI
   Lucas Lang             : DCDCAS
   Marvin Lechner         : AUTO-CI (C++ implementation), FIC-MRCC
   Dagmar Lenk            : GEPOL surface, SMD
   Dimitrios Liakos       : Extrapolation schemes; Compound Job, initial MDCI parallelization
   Dimitrios Manganas     : Further ROCIS development; embedding schemes
   Dimitrios Pantazis     : SARC Basis sets
   Anastasios Papadopoulos: AUTO-CI, single reference methods and gradients
   Taras Petrenko         : DFT Hessian,TD-DFT gradient, ASA, ECA, R-Raman, ABS, FL, XAS/XES, NRVS
   Peter Pinski           : DLPNO-MP2, DLPNO-MP2 Gradient
   Christoph Reimann      : Effective Core Potentials
   Marius Retegan         : Local ZFS, SOC
   Christoph Riplinger    : Optimizer, TS searches, QM/MM, DLPNO-CCSD(T), (RO)-DLPNO pert. Triples
   Tobias Risthaus        : Range-separated hybrids, TD-DFT gradient, RPA, STAB
   Michael Roemelt        : Original ROCIS implementation
   Masaaki Saitow         : Open-shell DLPNO-CCSD energy and density
   Barbara Sandhoefer     : DKH picture change effects
   Avijit Sen             : IP-ROCIS
   Kantharuban Sivalingam : CASSCF convergence, NEVPT2, FIC-MRCI
   Bernardo de Souza      : ESD, SOC TD-DFT
   Georgi Stoychev        : AutoAux, RI-MP2 NMR
   Willem Van den Heuvel  : Paramagnetic NMR
   Boris Wezisla          : Elementary symmetry handling
   Frank Wennmohs         : Technical directorship


 We gratefully acknowledge several colleagues who have allowed us to
 interface, adapt or use parts of their codes:
   Stefan Grimme, W. Hujo, H. Kruse, P. Pracht,  : VdW corrections, initial TS optimization,
                  C. Bannwarth, S. Ehlert          DFT functionals, gCP, sTDA/sTD-DF
   Ed Valeev, F. Pavosevic, A. Kumar             : LibInt (2-el integral package), F12 methods
   Garnet Chan, S. Sharma, J. Yang, R. Olivares  : DMRG
   Ulf Ekstrom                                   : XCFun DFT Library
   Mihaly Kallay                                 : mrcc  (arbitrary order and MRCC methods)
   Jiri Pittner, Ondrej Demel                    : Mk-CCSD
   Frank Weinhold                                : gennbo (NPA and NBO analysis)
   Christopher J. Cramer and Donald G. Truhlar   : smd solvation model
   Lars Goerigk                                  : TD-DFT with DH, B97 family of functionals
   V. Asgeirsson, H. Jonsson                     : NEB implementation
   FAccTs GmbH                                   : IRC, NEB, NEB-TS, DLPNO-Multilevel, CI-OPT
                                                   MM, QMMM, 2- and 3-layer-ONIOM, Crystal-QMMM,
                                                   LR-CPCM, SF, NACMEs, symmetry and pop. for TD-DFT,
                                                   nearIR, NL-DFT gradient (VV10), updates on ESD,
                                                   ML-optimized integration grids
   S Lehtola, MJT Oliveira, MAL Marques          : LibXC Library
   Liviu Ungur et al                             : ANISO software


 Your calculation uses the libint2 library for the computation of 2-el integrals
 For citations please refer to: http://libint.valeyev.net

 Your ORCA version has been built with support for libXC version: 5.1.0
 For citations please refer to: https://tddft.org/programs/libxc/

 This ORCA versions uses:
   CBLAS   interface :  Fast vector & matrix operations
   LAPACKE interface :  Fast linear algebra routines
   SCALAPACK package :  Parallel linear algebra routines
   Shared memory     :  Shared parallel matrices
   BLAS/LAPACK       :  OpenBLAS 0.3.15  USE64BITINT DYNAMIC_ARCH NO_AFFINITY SkylakeX SINGLE_THREADED
        Core in use  :  SkylakeX
   Copyright (c) 2011-2014, The OpenBLAS Project


================================================================================

----- Orbital basis set information -----
Your calculation utilizes the basis: cc-pVTZ 
       H, B-Ne : Obtained from the ccRepo (grant-hill.group.shef.ac.uk/ccrepo) Feb. 2017
                 T. H. Dunning, Jr., J. Chem. Phys. 90, 1007 (1989)
            He : Obtained from the ccRepo (grant-hill.group.shef.ac.uk/ccrepo) Feb. 2017
                 D. E. Woon, T. H. Dunning, Jr., J. Chem. Phys. 100, 2975 (1994)
  Li-Be, Na-Mg : Obtained from the ccRepo (grant-hill.group.shef.ac.uk/ccrepo) Feb. 2017
                 B. P. Prascher, D. E. Woon, K. A. Peterson, T. H. Dunning, Jr., A. K. Wilson, Theor. Chem. Acc. 128, 69 (2011)
         Al-Ar : Obtained from the ccRepo (grant-hill.group.shef.ac.uk/ccrepo) Feb. 2017
                 D. E. Woon, T. H. Dunning, Jr., J. Chem. Phys. 98, 1358 (1993)
            Ca : Obtained from the Peterson Research Group Website (tyr0.chem.wsu.edu/~kipeters) Feb. 2017
                 J. Koput, K. A. Peterson, J. Phys. Chem. 106, 9595 (2002)
         Sc-Zn : Obtained from the ccRepo (grant-hill.group.shef.ac.uk/ccrepo) Feb. 2017
                 N. B. Balabanov, K. A. Peterson, J. Chem. Phys. 123, 064107 (2005)
                 N. B. Balabanov, K. A. Peterson, J. Chem. Phys. 125, 074110 (2006)
         Ga-Kr : Obtained from the ccRepo (grant-hill.group.shef.ac.uk/ccrepo) Feb. 2017
                 A. K. Wilson, D. E. Woon, K. A. Peterson, T. H. Dunning, Jr., J. Chem. Phys. 110, 7667 (1999)
             Y : Obtained from the ccRepo (grant-hill.group.shef.ac.uk/ccrepo) Feb. 2017
                 K. A. Peterson, D. Figgen, M. Dolg, H. Stoll, J. Chem. Phys. 126, 124101 (2007)
        Ag, Au : Obtained from the Peterson Research Group Website (tyr0.chem.wsu.edu/~kipeters) Feb. 2017
                 K. A. Peterson, C. Puzzarini, Theor. Chem. Acc. 114, 283 (2005)

----- AuxC basis set information -----
Your calculation utilizes the auxiliary basis: cc-pVTZ/C 
  Obtained from the EMSL Basis Set Exchange (bse.pnl.gov) Feb. 2017
  H-He, B-F, Al-Ar, Ga-Kr : F. Weigend, A. Kohn, C. Hattig, J. Chem. Phys. 116, 3175 (2002)
             Li-Be, Na-Mg : C. Haettig, Phys. Chem. Chem. Phys. 7, 59 (2005)
                       Ne : C. Haettig, Phys. Chem. Chem. Phys. 7, 59 (2005)
                            F. Weigend, A. Kohn, C. Hattig, J. Chem. Phys. 116, 3175 (2002)
                    Sc-Zn : J. G. Hill, J. A. Platts, J. Chem. Phys. 128, 044104 (2008)

================================================================================
                                        WARNINGS
                       Please study these warnings very carefully!
================================================================================


WARNING: No MP2 level density has been requested!
         To caclulate MP2 level properties use
         %mp2 Density relaxed end
         or
         %mp2 Density unrelaxed end

WARNING: Post HF methods need fully converged wavefunctions
  ===> : Setting SCFConvForced true
         You can overwrite this default with %scf ConvForced false 


INFO   : the flag for use of the SHARK integral package has been found!

================================================================================
                                       INPUT FILE
================================================================================
NAME = qm_input.solv
|  1> ! RI-MP2 cc-pVTZ cc-pVTZ/c TightSCF KeepDens NoKeepInts
|  2> 
|  3> %pointcharges "srfp_output"
|  4> 
|  5> *xyz  0  1
|  6>     C    13.1831475   -5.6215424    2.9595652
|  7>     C    12.7989426   -4.9360603    1.6405691
|  8>     O    13.7435583   -5.2584847    0.7325764
|  9>     C    13.6585457   -6.4156460   -0.0155003
| 10>     O    12.7233243   -7.1982094    0.0386220
| 11>     C    14.8836800   -6.6634026   -0.8733013
| 12>     C    14.9022514   -7.5788433   -1.8649664
| 13>     C    13.8219059   -8.5040454   -2.4437506
| 14>     N    16.1355516   -7.7779046   -2.5874859
| 15>     C    17.3895481   -7.3763207   -2.1768038
| 16>     S    18.8780784   -7.8570097   -2.9267914
| 17>     N    17.2940756   -6.5110094   -1.1202180
| 18>     C    16.0985581   -5.8525906   -0.5069389
| 19>     C    16.0249618   -4.3364725   -0.8463977
| 20>     C    16.8311600   -3.4026568   -0.1194219
| 21>     C    16.8294373   -2.0467112   -0.5281660
| 22>     C    15.9503795   -1.6002872   -1.4758285
| 23>     C    15.0863095   -2.4614992   -2.1767364
| 24>     O    14.0232673   -1.9851743   -2.9257562
| 25>     C    15.1484228   -3.8291994   -1.7937269
| 26>     H    12.4801166   -5.3138244    3.7433032
| 27>     H    14.2034904   -5.3276127    3.2346929
| 28>     H    13.1014406   -6.7059522    2.8161422
| 29>     H    11.8223631   -5.2194725    1.2292789
| 30>     H    12.7668116   -3.8537524    1.8159802
| 31>     H    12.8085620   -8.0842293   -2.4522396
| 32>     H    13.7537797   -9.4375853   -1.8718663
| 33>     H    14.0096702   -8.7532441   -3.4953380
| 34>     H    15.9707237   -8.2761557   -3.4538254
| 35>     H    18.1491331   -6.3503109   -0.6015475
| 36>     H    16.2314393   -5.9649725    0.5760673
| 37>     H    17.5988132   -3.6709989    0.6003677
| 38>     H    17.6403394   -1.4242898   -0.1615255
| 39>     H    15.9655220   -0.5514085   -1.7569337
| 40>     H    13.7278862   -1.1054093   -2.6333613
| 41>     H    14.4887860   -4.5877900   -2.2045985
| 42> *
| 43> 
| 44>                          ****END OF INPUT****
================================================================================

                       ****************************
                       * Single Point Calculation *
                       ****************************

---------------------------------
CARTESIAN COORDINATES (ANGSTROEM)
---------------------------------
  C     13.183147   -5.621542    2.959565
  C     12.798943   -4.936060    1.640569
  O     13.743558   -5.258485    0.732576
  C     13.658546   -6.415646   -0.015500
  O     12.723324   -7.198209    0.038622
  C     14.883680   -6.663403   -0.873301
  C     14.902251   -7.578843   -1.864966
  C     13.821906   -8.504045   -2.443751
  N     16.135552   -7.777905   -2.587486
  C     17.389548   -7.376321   -2.176804
  S     18.878078   -7.857010   -2.926791
  N     17.294076   -6.511009   -1.120218
  C     16.098558   -5.852591   -0.506939
  C     16.024962   -4.336473   -0.846398
  C     16.831160   -3.402657   -0.119422
  C     16.829437   -2.046711   -0.528166
  C     15.950380   -1.600287   -1.475828
  C     15.086309   -2.461499   -2.176736
  O     14.023267   -1.985174   -2.925756
  C     15.148423   -3.829199   -1.793727
  H     12.480117   -5.313824    3.743303
  H     14.203490   -5.327613    3.234693
  H     13.101441   -6.705952    2.816142
  H     11.822363   -5.219473    1.229279
  H     12.766812   -3.853752    1.815980
  H     12.808562   -8.084229   -2.452240
  H     13.753780   -9.437585   -1.871866
  H     14.009670   -8.753244   -3.495338
  H     15.970724   -8.276156   -3.453825
  H     18.149133   -6.350311   -0.601548
  H     16.231439   -5.964972    0.576067
  H     17.598813   -3.670999    0.600368
  H     17.640339   -1.424290   -0.161525
  H     15.965522   -0.551408   -1.756934
  H     13.727886   -1.105409   -2.633361
  H     14.488786   -4.587790   -2.204598

----------------------------
CARTESIAN COORDINATES (A.U.)
----------------------------
  NO LB      ZA    FRAG     MASS         X           Y           Z
   0 C     6.0000    0    12.011   24.912538  -10.623176    5.592768
   1 C     6.0000    0    12.011   24.186496   -9.327802    3.100226
   2 O     8.0000    0    15.999   25.971561   -9.937096    1.384369
   3 C     6.0000    0    12.011   25.810911  -12.123814   -0.029291
   4 O     8.0000    0    15.999   24.043598  -13.602644    0.072985
   5 C     6.0000    0    12.011   28.126079  -12.592006   -1.650300
   6 C     6.0000    0    12.011   28.161174  -14.321938   -3.524276
   7 C     6.0000    0    12.011   26.119617  -16.070317   -4.618019
   8 N     7.0000    0    14.007   30.491774  -14.698110   -4.889640
   9 C     6.0000    0    12.011   32.861484  -13.939226   -4.113563
  10 S    16.0000    0    32.060   35.674398  -14.847597   -5.530834
  11 N     7.0000    0    14.007   32.681067  -12.304025   -2.116905
  12 C     6.0000    0    12.011   30.421866  -11.059793   -0.957976
  13 C     6.0000    0    12.011   30.282789   -8.194745   -1.599460
  14 C     6.0000    0    12.011   31.806283   -6.430089   -0.225675
  15 C     6.0000    0    12.011   31.803027   -3.867724   -0.998089
  16 C     6.0000    0    12.011   30.141849   -3.024105   -2.788912
  17 C     6.0000    0    12.011   28.508993   -4.651559   -4.113436
  18 O     8.0000    0    15.999   26.500135   -3.751436   -5.528878
  19 C     6.0000    0    12.011   28.626370   -7.236138   -3.389653
  20 H     1.0000    0     1.008   23.584002  -10.041673    7.073818
  21 H     1.0000    0     1.008   26.840707  -10.067729    6.112684
  22 H     1.0000    0     1.008   24.758135  -12.672413    5.321738
  23 H     1.0000    0     1.008   22.341029   -9.863374    2.323000
  24 H     1.0000    0     1.008   24.125778   -7.282537    3.431705
  25 H     1.0000    0     1.008   24.204674  -15.276979   -4.634061
  26 H     1.0000    0     1.008   25.990877  -17.834452   -3.537315
  27 H     1.0000    0     1.008   26.474440  -16.541234   -6.605232
  28 H     1.0000    0     1.008   30.180294  -15.639668   -6.526784
  29 H     1.0000    0     1.008   34.296891  -12.000348   -1.136760
  30 H     1.0000    0     1.008   30.672975  -11.272164    1.088609
  31 H     1.0000    0     1.008   33.256937   -6.937183    1.134531
  32 H     1.0000    0     1.008   33.335410   -2.691518   -0.305239
  33 H     1.0000    0     1.008   30.170464   -1.042011   -3.320124
  34 H     1.0000    0     1.008   25.941945   -2.088921   -4.976332
  35 H     1.0000    0     1.008   27.379838   -8.669667   -4.166087

--------------------------------
INTERNAL COORDINATES (ANGSTROEM)
--------------------------------
 C      0   0   0     0.000000000000     0.00000000     0.00000000
 C      1   0   0     1.535333783390     0.00000000     0.00000000
 O      2   1   0     1.349335783879   107.23138603     0.00000000
 C      3   2   1     1.380531841523   121.45420224    86.63118142
 O      4   3   2     1.220644815413   124.09242049     2.96230557
 C      4   3   2     1.515968318099   113.19359786   185.82658099
 C      6   4   3     1.349731915112   122.52703707   193.36403515
 C      7   6   4     1.535622504193   132.52185468     3.52593356
 N      7   6   4     1.443152525674   118.23883374   182.53784374
 C      9   7   6     1.379288453519   125.99601771    16.94959867
 S     10   9   7     1.734723542497   124.80090495   169.18261952
 N     10   9   7     1.369033307457   110.51295958   347.26712259
 C     12  10   9     1.496291637181   130.55451286   351.66011922
 C     13  12  10     1.555397950821   112.16499991   253.00482465
 C     14  13  12     1.431943124930   119.88251758   280.24114174
 C     15  14  13     1.416214382479   118.50060399   174.58732146
 C     16  15  14     1.367516441372   120.88686295     8.55491464
 C     17  16  15     1.406973687788   122.69544573   354.45063491
 O     18  17  16     1.384909668582   122.02620597   166.59362046
 C     14  13  12     1.386751322219   122.38186446   103.60315187
 H      1   2   3     1.096899296436   109.15885683   175.39545096
 H      1   2   3     1.096899974214   109.18496884    55.12965771
 H      1   2   3     1.096900537320   108.08440002   293.63676912
 H      2   1   3     1.096900006174   115.43954692   120.40044933
 H      2   1   3     1.096901019038   108.08811699   239.86114144
 H      8   7   6     1.096897206035   114.97723611    34.28600499
 H      8   7   6     1.096899984778   111.09737276   274.16663198
 H      8   7   6     1.096900854351   112.19655795   152.53096261
 H      9   7   6     1.012900056536   110.91589261   196.04288356
 H     12  10   9     1.012900006802   115.88756619   164.80462691
 H     13  12  10     1.096899965357   105.23626708   134.95164853
 H     15  14  13     1.085999993725   124.98223881     7.33083585
 H     16  15  14     1.085999940701   116.76898918   196.92772631
 H     17  16  15     1.085999979782   119.05844140   179.14233898
 H     19  18  17     0.973001144402   112.42518273   336.55892401
 H     20  14  13     1.085999943835   112.75924729     4.09648346

---------------------------
INTERNAL COORDINATES (A.U.)
---------------------------
 C      0   0   0     0.000000000000     0.00000000     0.00000000
 C      1   0   0     2.901360374765     0.00000000     0.00000000
 O      2   1   0     2.549875094230   107.23138603     0.00000000
 C      3   2   1     2.608827099637   121.45420224    86.63118142
 O      4   3   2     2.306684407922   124.09242049     2.96230557
 C      4   3   2     2.864764948909   113.19359786   185.82658099
 C      6   4   3     2.550623673775   122.52703707   193.36403515
 C      7   6   4     2.901905978011   132.52185468     3.52593356
 N      7   6   4     2.727163043000   118.23883374   182.53784374
 C      9   7   6     2.606477436831   125.99601771    16.94959867
 S     10   9   7     3.278152413385   124.80090495   169.18261952
 N     10   9   7     2.587098019309   110.51295958   347.26712259
 C     12  10   9     2.827581410748   130.55451286   351.66011922
 C     13  12  10     2.939276156314   112.16499991   253.00482465
 C     14  13  12     2.705980345470   119.88251758   280.24114174
 C     15  14  13     2.676257329805   118.50060399   174.58732146
 C     16  15  14     2.584231557828   120.88686295     8.55491464
 C     17  16  15     2.658794947552   122.69544573   354.45063491
 O     18  17  16     2.617099993840   122.02620597   166.59362046
 C     14  13  12     2.620580214848   122.38186446   103.60315187
 H      1   2   3     2.072839266756   109.15885683   175.39545096
 H      1   2   3     2.072840547569   109.18496884    55.12965771
 H      1   2   3     2.072841611686   108.08440002   293.63676912
 H      2   1   3     2.072840607966   115.43954692   120.40044933
 H      2   1   3     2.072842522001   108.08811699   239.86114144
 H      8   7   6     2.072835316470   114.97723611    34.28600499
 H      8   7   6     2.072840567532   111.09737276   274.16663198
 H      8   7   6     2.072842210787   112.19655795   152.53096261
 H      9   7   6     1.914103707886   110.91589261   196.04288356
 H     12  10   9     1.914103613902   115.88756619   164.80462691
 H     13  12  10     2.072840530832   105.23626708   134.95164853
 H     15  14  13     2.052242569581   124.98223881     7.33083585
 H     16  15  14     2.052242469380   116.76898918   196.92772631
 H     17  16  15     2.052242543232   119.05844140   179.14233898
 H     19  18  17     1.838705690912   112.42518273   336.55892401
 H     20  14  13     2.052242475302   112.75924729     4.09648346

---------------------
BASIS SET INFORMATION
---------------------
There are 5 groups of distinct atoms

 Group   1 Type C   : 18s5p2d1f contracted to 4s3p2d1f pattern {8811/311/11/1}
 Group   2 Type O   : 18s5p2d1f contracted to 4s3p2d1f pattern {8811/311/11/1}
 Group   3 Type N   : 18s5p2d1f contracted to 4s3p2d1f pattern {8811/311/11/1}
 Group   4 Type S   : 41s16p2d1f contracted to 5s4p2d1f pattern {13131311/7711/11/1}
 Group   5 Type H   : 5s2p1d contracted to 3s2p1d pattern {311/11/1}

Atom   0C    basis set group =>   1
Atom   1C    basis set group =>   1
Atom   2O    basis set group =>   2
Atom   3C    basis set group =>   1
Atom   4O    basis set group =>   2
Atom   5C    basis set group =>   1
Atom   6C    basis set group =>   1
Atom   7C    basis set group =>   1
Atom   8N    basis set group =>   3
Atom   9C    basis set group =>   1
Atom  10S    basis set group =>   4
Atom  11N    basis set group =>   3
Atom  12C    basis set group =>   1
Atom  13C    basis set group =>   1
Atom  14C    basis set group =>   1
Atom  15C    basis set group =>   1
Atom  16C    basis set group =>   1
Atom  17C    basis set group =>   1
Atom  18O    basis set group =>   2
Atom  19C    basis set group =>   1
Atom  20H    basis set group =>   5
Atom  21H    basis set group =>   5
Atom  22H    basis set group =>   5
Atom  23H    basis set group =>   5
Atom  24H    basis set group =>   5
Atom  25H    basis set group =>   5
Atom  26H    basis set group =>   5
Atom  27H    basis set group =>   5
Atom  28H    basis set group =>   5
Atom  29H    basis set group =>   5
Atom  30H    basis set group =>   5
Atom  31H    basis set group =>   5
Atom  32H    basis set group =>   5
Atom  33H    basis set group =>   5
Atom  34H    basis set group =>   5
Atom  35H    basis set group =>   5
---------------------------------
AUXILIARY/C BASIS SET INFORMATION
---------------------------------
There are 5 groups of distinct atoms

 Group   1 Type C   : 8s6p5d3f1g contracted to 8s6p5d3f1g pattern {11111111/111111/11111/111/1}
 Group   2 Type O   : 8s6p5d3f1g contracted to 8s6p5d3f1g pattern {11111111/111111/11111/111/1}
 Group   3 Type N   : 8s6p5d3f1g contracted to 8s6p5d3f1g pattern {11111111/111111/11111/111/1}
 Group   4 Type S   : 10s8p7d5f2g contracted to 10s8p7d5f2g pattern {1111111111/11111111/1111111/11111/11}
 Group   5 Type H   : 4s3p2d1f contracted to 4s3p2d1f pattern {1111/111/11/1}

Atom   0C    basis set group =>   1
Atom   1C    basis set group =>   1
Atom   2O    basis set group =>   2
Atom   3C    basis set group =>   1
Atom   4O    basis set group =>   2
Atom   5C    basis set group =>   1
Atom   6C    basis set group =>   1
Atom   7C    basis set group =>   1
Atom   8N    basis set group =>   3
Atom   9C    basis set group =>   1
Atom  10S    basis set group =>   4
Atom  11N    basis set group =>   3
Atom  12C    basis set group =>   1
Atom  13C    basis set group =>   1
Atom  14C    basis set group =>   1
Atom  15C    basis set group =>   1
Atom  16C    basis set group =>   1
Atom  17C    basis set group =>   1
Atom  18O    basis set group =>   2
Atom  19C    basis set group =>   1
Atom  20H    basis set group =>   5
Atom  21H    basis set group =>   5
Atom  22H    basis set group =>   5
Atom  23H    basis set group =>   5
Atom  24H    basis set group =>   5
Atom  25H    basis set group =>   5
Atom  26H    basis set group =>   5
Atom  27H    basis set group =>   5
Atom  28H    basis set group =>   5
Atom  29H    basis set group =>   5
Atom  30H    basis set group =>   5
Atom  31H    basis set group =>   5
Atom  32H    basis set group =>   5
Atom  33H    basis set group =>   5
Atom  34H    basis set group =>   5
Atom  35H    basis set group =>   5
------------------------------------------------------------------------------
                           ORCA GTO INTEGRAL CALCULATION
------------------------------------------------------------------------------
------------------------------------------------------------------------------
                   ___                                                        
                  /   \      - P O W E R E D   B Y -                         
                 /     \                                                     
                 |  |  |   _    _      __       _____    __    __             
                 |  |  |  | |  | |    /  \     |  _  \  |  |  /  |          
                  \  \/   | |  | |   /    \    | | | |  |  | /  /          
                 / \  \   | |__| |  /  /\  \   | |_| |  |  |/  /          
                |  |  |   |  __  | /  /__\  \  |    /   |      \           
                |  |  |   | |  | | |   __   |  |    \   |  |\   \          
                \     /   | |  | | |  |  |  |  | |\  \  |  | \   \       
                 \___/    |_|  |_| |__|  |__|  |_| \__\ |__|  \__/        
                                                                              
                      - O R C A' S   B I G   F R I E N D -                    
                                      &                                       
                       - I N T E G R A L  F E E D E R -                       
                                                                              
 v1 FN, 2020, v2 2021                                                         
------------------------------------------------------------------------------


Reading SHARK input file qm_input.solv.SHARKINP.tmp ... ok
----------------------
SHARK INTEGRAL PACKAGE
----------------------

Number of atoms                             ...     36
Number of basis functions                   ...    828
Number of shells                            ...    298
Maximum angular momentum                    ...      3
Integral batch strategy                     ... SHARK/LIBINT Hybrid
RI-J (if used) integral strategy            ... SPLIT-RIJ (Revised 2003 algorithm where possible)
Printlevel                                  ...      1
Contraction scheme used                     ... SEGMENTED contraction
Coulomb Range Separation                    ... NOT USED
Exchange Range Separation                   ... NOT USED
Finite Nucleus Model                        ... NOT USED
Auxiliary Coulomb fitting basis             ... NOT available
Auxiliary J/K fitting basis                 ... NOT available
Auxiliary Correlation fitting basis         ... AVAILABLE
   # of basis functions in Aux-C            ...   2141
   # of shells in Aux-C                     ...    629
   Maximum angular momentum in Aux-C        ...      4
Auxiliary 'external' fitting basis          ... NOT available
Integral threshold                          ...     2.500000e-11
Primitive cut-off                           ...     2.500000e-12
Primitive pair pre-selection threshold      ...     2.500000e-12

Calculating pre-screening integrals         ... done (  0.5 sec) Dimension = 298
Organizing shell pair data                  ... done (  0.4 sec)
Shell pair information
Total number of shell pairs                 ...     44551
Shell pairs after pre-screening             ...     32487
Total number of primitive shell pairs       ...    234348
Primitive shell pairs kept                  ...     93250
          la=0 lb=0:   6505 shell pairs
          la=1 lb=0:   9049 shell pairs
          la=1 lb=1:   3193 shell pairs
          la=2 lb=0:   5170 shell pairs
          la=2 lb=1:   3545 shell pairs
          la=2 lb=2:    999 shell pairs
          la=3 lb=0:   1881 shell pairs
          la=3 lb=1:   1281 shell pairs
          la=3 lb=2:    724 shell pairs
          la=3 lb=3:    140 shell pairs

Reading point charge file                   ... ok (45433 point charges)
Calculating one electron integrals          ... done (222.3 sec)
Calculating RI/C V-Matrix + Cholesky decomp.... done (  0.4 sec)
Calculating Nuclear repulsion               ... (+Point charges) done (  0.0 sec) ENN=   1614.348307334578 Eh

SHARK setup successfully completed in 223.8 seconds

Maximum memory used throughout the entire GTOINT-calculation: 479.1 MB
ENUC WAS=  0.000000000
ENUC IS =  0.000000000
-------------------------------------------------------------------------------
                                 ORCA SCF
-------------------------------------------------------------------------------

------------
SCF SETTINGS
------------
Hamiltonian:
 Ab initio Hamiltonian  Method          .... Hartree-Fock(GTOs)


General Settings:
 Integral files         IntName         .... qm_input.solv
 Hartree-Fock type      HFTyp           .... RHF
 Total Charge           Charge          ....    0
 Multiplicity           Mult            ....    1
 Number of Electrons    NEL             ....  154
 Basis Dimension        Dim             ....  828
 Nuclear Repulsion      ENuc            ....   1614.3483073346 Eh

Convergence Acceleration:
 DIIS                   CNVDIIS         .... on
   Start iteration      DIISMaxIt       ....    12
   Startup error        DIISStart       ....  0.200000
   # of expansion vecs  DIISMaxEq       ....     5
   Bias factor          DIISBfac        ....   1.050
   Max. coefficient     DIISMaxC        ....  10.000
 Trust-Rad. Augm. Hess. CNVTRAH         .... auto
   Auto Start mean grad. ratio tolernc. ....  1.125000
   Auto Start start iteration           ....    20
   Auto Start num. interpolation iter.  ....    10
   Max. Number of Micro iterations      ....    16
   Max. Number of Macro iterations      .... Maxiter - #DIIS iter
   Number of Davidson start vectors     ....     2
   Converg. threshold I  (grad. norm)   ....   1.000e-05
   Converg. threshold II (energy diff.) ....   1.000e-08
   Grad. Scal. Fac. for Micro threshold ....   0.100
   Minimum threshold for Micro iter.    ....   0.010
   NR start threshold (gradient norm)   ....   0.001
   Initial trust radius                 ....   0.400
   Minimum AH scaling param. (alpha)    ....   1.000
   Maximum AH scaling param. (alpha)    .... 1000.000
   Orbital update algorithm             .... Taylor
   White noise on init. David. guess    .... on
   Maximum white noise                  ....   0.010
   Quad. conv. algorithm                .... NR
 SOSCF                  CNVSOSCF        .... on
   Start iteration      SOSCFMaxIt      ....   150
   Startup grad/error   SOSCFStart      ....  0.003300
 Level Shifting         CNVShift        .... on
   Level shift para.    LevelShift      ....    0.2500
   Turn off err/grad.   ShiftErr        ....    0.0010
 Zerner damping         CNVZerner       .... off
 Static damping         CNVDamp         .... on
   Fraction old density DampFac         ....    0.7000
   Max. Damping (<1)    DampMax         ....    0.9800
   Min. Damping (>=0)   DampMin         ....    0.0000
   Turn off err/grad.   DampErr         ....    0.1000
 Fernandez-Rico         CNVRico         .... off

SCF Procedure:
 Maximum # iterations   MaxIter         ....   125
 SCF integral mode      SCFMode         .... Direct
   Integral package                     .... SHARK and LIBINT hybrid scheme
 Reset frequency        DirectResetFreq ....    20
 Integral Threshold     Thresh          ....  2.500e-11 Eh
 Primitive CutOff       TCut            ....  2.500e-12 Eh

Convergence Tolerance:
 Convergence Check Mode ConvCheckMode   .... Total+1el-Energy
 Convergence forced     ConvForced      .... 1
 Energy Change          TolE            ....  1.000e-08 Eh
 1-El. energy change                    ....  1.000e-05 Eh
 Orbital Gradient       TolG            ....  1.000e-05
 Orbital Rotation angle TolX            ....  1.000e-05
 DIIS Error             TolErr          ....  5.000e-07


Diagonalization of the overlap matrix:
Smallest eigenvalue                        ... 4.481e-05
Time for diagonalization                   ...    0.123 sec
Threshold for overlap eigenvalues          ... 1.000e-08
Number of eigenvalues below threshold      ... 0
Time for construction of square roots      ...    0.056 sec
Total time needed                          ...    0.180 sec

Time for model grid setup =    1.360 sec

------------------------------
INITIAL GUESS: MODEL POTENTIAL
------------------------------
Loading Hartree-Fock densities                     ... done
Calculating cut-offs                               ... done
Initializing the effective Hamiltonian             ... done
Setting up the integral package (SHARK)            ... done
Starting the Coulomb interaction                   ... done (   3.7 sec)
Reading the grid                                   ... done
Mapping shells                                     ... done
Starting the XC term evaluation                    ... done (   1.3 sec)
Transforming the Hamiltonian                       ... done (   0.0 sec)
Diagonalizing the Hamiltonian                      ... done (   0.1 sec)
Back transforming the eigenvectors                 ... done (   0.0 sec)
Now organizing SCF variables                       ... done
                      ------------------
                      INITIAL GUESS DONE (   6.6 sec)
                      ------------------
--------------
SCF ITERATIONS
--------------
ITER       Energy         Delta-E        Max-DP      RMS-DP      [F,P]     Damp
               ***  Starting incremental Fock matrix formation  ***
  0  -1270.0322285703   0.000000000000 0.06206085  0.00049046  0.3505044 0.7000
  1  -1270.3221253108  -0.289896740469 0.05705608  0.00040402  0.2014690 0.7000
                               ***Turning on DIIS***
  2  -1270.5012594290  -0.179134118202 0.03176511  0.00026250  0.1103174 0.7000
  3  -1272.5629618340  -2.061702404955 0.06396254  0.00051835  0.0840703 0.0000
  4  -1270.8379918142   1.724970019793 0.02134957  0.00011489  0.0066825 0.0000
  5  -1270.8921096602  -0.054117846067 0.00739321  0.00005641  0.0039128 0.0000
                      *** Initiating the SOSCF procedure ***
                           *** Shutting down DIIS ***
                      *** Re-Reading the Fockian *** 
                      *** Removing any level shift *** 
ITER      Energy       Delta-E        Grad      Rot      Max-DP    RMS-DP
  6  -1270.87175673   0.0203529331  0.001923  0.001923  0.003085  0.000029
               *** Restarting incremental Fock matrix formation ***
  7  -1270.88788734  -0.0161306089  0.000766  0.001785  0.001879  0.000017
  8  -1270.88794058  -0.0000532484  0.000444  0.001983  0.002004  0.000018
  9  -1270.88796032  -0.0000197313  0.000194  0.000390  0.000550  0.000004
 10  -1270.88796274  -0.0000024264  0.000038  0.000090  0.000163  0.000001
 11  -1270.88796294  -0.0000001944  0.000025  0.000118  0.000049  0.000001
 12  -1270.88796301  -0.0000000699  0.000009  0.000038  0.000035  0.000000
 13  -1270.88796301  -0.0000000042  0.000004  0.000014  0.000012  0.000000
                 **** Energy Check signals convergence ****
              ***Rediagonalizing the Fockian in SOSCF/NRSCF***

               *****************************************************
               *                     SUCCESS                       *
               *           SCF CONVERGED AFTER  14 CYCLES          *
               *****************************************************


----------------
TOTAL SCF ENERGY
----------------

Total Energy       :        -1270.88796301 Eh          -34582.61962 eV

Components:
Nuclear Repulsion  :         1614.34830733 Eh           43928.65073 eV
Electronic Energy  :        -2885.23627034 Eh          -78511.27035 eV
One Electron Energy:        -5018.15540181 Eh         -136550.95060 eV
Two Electron Energy:         2132.91913147 Eh           58039.68025 eV

Virial components:
Potential Energy   :        -2539.53607692 Eh          -69104.28985 eV
Kinetic Energy     :         1268.64811392 Eh           34521.67023 eV
Virial Ratio       :            2.00176554


---------------
SCF CONVERGENCE
---------------

  Last Energy change         ...    4.8226e-09  Tolerance :   1.0000e-08
  Last MAX-Density change    ...    6.7684e-06  Tolerance :   1.0000e-07
  Last RMS-Density change    ...    4.0020e-08  Tolerance :   5.0000e-09
  Last Orbital Gradient      ...    1.5753e-06  Tolerance :   1.0000e-05
  Last Orbital Rotation      ...    4.1749e-06  Tolerance :   1.0000e-05

             **** THE GBW FILE WAS UPDATED (qm_input.solv.gbw) ****
             **** DENSITY qm_input.solv.scfp WAS UPDATED ****
             **** ENERGY FILE WAS UPDATED (qm_input.solv.en.tmp) ****
             **** THE GBW FILE WAS UPDATED (qm_input.solv.gbw) ****
             **** DENSITY qm_input.solv.scfp WAS UPDATED ****
----------------
ORBITAL ENERGIES
----------------

  NO   OCC          E(Eh)            E(eV) 
   0   2.0000     -91.463265     -2488.8420 
   1   2.0000     -20.168980      -548.8259 
   2   2.0000     -20.145574      -548.1889 
   3   2.0000     -20.126965      -547.6826 
   4   2.0000     -15.175542      -412.9475 
   5   2.0000     -15.163452      -412.6185 
   6   2.0000     -10.976778      -298.6933 
   7   2.0000     -10.958489      -298.1956 
   8   2.0000     -10.894985      -296.4676 
   9   2.0000     -10.876868      -295.9746 
  10   2.0000     -10.870465      -295.8004 
  11   2.0000     -10.836142      -294.8664 
  12   2.0000     -10.822045      -294.4828 
  13   2.0000     -10.819653      -294.4177 
  14   2.0000     -10.801996      -293.9372 
  15   2.0000     -10.801284      -293.9179 
  16   2.0000     -10.800611      -293.8996 
  17   2.0000     -10.800108      -293.8859 
  18   2.0000     -10.794986      -293.7465 
  19   2.0000     -10.769374      -293.0496 
  20   2.0000      -8.466390      -230.3822 
  21   2.0000      -6.148007      -167.2958 
  22   2.0000      -6.146165      -167.2456 
  23   2.0000      -6.145762      -167.2347 
  24   2.0000      -1.035946       -28.1895 
  25   2.0000      -0.951713       -25.8974 
  26   2.0000      -0.945903       -25.7393 
  27   2.0000      -0.883315       -24.0362 
  28   2.0000      -0.775326       -21.0977 
  29   2.0000      -0.716267       -19.4906 
  30   2.0000      -0.678705       -18.4685 
  31   2.0000      -0.596774       -16.2390 
  32   2.0000      -0.592347       -16.1186 
  33   2.0000      -0.568049       -15.4574 
  34   2.0000      -0.547814       -14.9068 
  35   2.0000      -0.529034       -14.3957 
  36   2.0000      -0.475247       -12.9321 
  37   2.0000      -0.459258       -12.4970 
  38   2.0000      -0.403759       -10.9868 
  39   2.0000      -0.392893       -10.6912 
  40   2.0000      -0.382613       -10.4114 
  41   2.0000      -0.364779        -9.9261 
  42   2.0000      -0.321500        -8.7485 
  43   2.0000      -0.289782        -7.8854 
  44   2.0000      -0.279165        -7.5965 
  45   2.0000      -0.260951        -7.1008 
  46   2.0000      -0.250818        -6.8251 
  47   2.0000      -0.240338        -6.5399 
  48   2.0000      -0.233572        -6.3558 
  49   2.0000      -0.210064        -5.7161 
  50   2.0000      -0.203917        -5.5489 
  51   2.0000      -0.198796        -5.4095 
  52   2.0000      -0.176676        -4.8076 
  53   2.0000      -0.171772        -4.6742 
  54   2.0000      -0.162229        -4.4145 
  55   2.0000      -0.157727        -4.2920 
  56   2.0000      -0.144789        -3.9399 
  57   2.0000      -0.128516        -3.4971 
  58   2.0000      -0.121186        -3.2977 
  59   2.0000      -0.113960        -3.1010 
  60   2.0000      -0.109580        -2.9818 
  61   2.0000      -0.101174        -2.7531 
  62   2.0000      -0.091247        -2.4829 
  63   2.0000      -0.087708        -2.3867 
  64   2.0000      -0.082326        -2.2402 
  65   2.0000      -0.077153        -2.0994 
  66   2.0000      -0.048371        -1.3162 
  67   2.0000      -0.046578        -1.2675 
  68   2.0000      -0.040562        -1.1038 
  69   2.0000      -0.028212        -0.7677 
  70   2.0000      -0.007341        -0.1998 
  71   2.0000      -0.002960        -0.0806 
  72   2.0000       0.083491         2.2719 
  73   2.0000       0.089074         2.4238 
  74   2.0000       0.102203         2.7811 
  75   2.0000       0.109782         2.9873 
  76   2.0000       0.119477         3.2511 
  77   0.0000       0.516535        14.0556 
  78   0.0000       0.553375        15.0581 
  79   0.0000       0.557788        15.1782 
  80   0.0000       0.588193        16.0055 
  81   0.0000       0.595733        16.2107 
  82   0.0000       0.604962        16.4619 
  83   0.0000       0.614708        16.7271 
  84   0.0000       0.621407        16.9093 
  85   0.0000       0.634617        17.2688 
  86   0.0000       0.638240        17.3674 
  87   0.0000       0.644484        17.5373 
  88   0.0000       0.648527        17.6473 
  89   0.0000       0.656769        17.8716 
  90   0.0000       0.663716        18.0606 
  91   0.0000       0.669625        18.2214 
  92   0.0000       0.675486        18.3809 
  93   0.0000       0.679933        18.5019 
  94   0.0000       0.688509        18.7353 
  95   0.0000       0.692540        18.8450 
  96   0.0000       0.699795        19.0424 
  97   0.0000       0.703369        19.1397 
  98   0.0000       0.717552        19.5256 
  99   0.0000       0.733758        19.9666 
 100   0.0000       0.736220        20.0336 
 101   0.0000       0.757584        20.6149 
 102   0.0000       0.759615        20.6702 
 103   0.0000       0.770782        20.9740 
 104   0.0000       0.780282        21.2325 
 105   0.0000       0.786230        21.3944 
 106   0.0000       0.790013        21.4973 
 107   0.0000       0.798832        21.7373 
 108   0.0000       0.805553        21.9202 
 109   0.0000       0.810499        22.0548 
 110   0.0000       0.816497        22.2180 
 111   0.0000       0.823287        22.4028 
 112   0.0000       0.829556        22.5734 
 113   0.0000       0.839408        22.8414 
 114   0.0000       0.844500        22.9800 
 115   0.0000       0.852438        23.1960 
 116   0.0000       0.862932        23.4816 
 117   0.0000       0.863806        23.5054 
 118   0.0000       0.868346        23.6289 
 119   0.0000       0.883248        24.0344 
 120   0.0000       0.886544        24.1241 
 121   0.0000       0.889724        24.2106 
 122   0.0000       0.900312        24.4987 
 123   0.0000       0.902607        24.5612 
 124   0.0000       0.906792        24.6751 
 125   0.0000       0.909485        24.7483 
 126   0.0000       0.913287        24.8518 
 127   0.0000       0.916853        24.9488 
 128   0.0000       0.923997        25.1432 
 129   0.0000       0.932461        25.3735 
 130   0.0000       0.938371        25.5344 
 131   0.0000       0.939715        25.5709 
 132   0.0000       0.950385        25.8613 
 133   0.0000       0.954041        25.9608 
 134   0.0000       0.964852        26.2550 
 135   0.0000       0.968634        26.3579 
 136   0.0000       0.975440        26.5431 
 137   0.0000       0.980189        26.6723 
 138   0.0000       0.986344        26.8398 
 139   0.0000       0.990528        26.9536 
 140   0.0000       0.998519        27.1711 
 141   0.0000       1.001152        27.2427 
 142   0.0000       1.008863        27.4526 
 143   0.0000       1.012708        27.5572 
 144   0.0000       1.017727        27.6938 
 145   0.0000       1.028737        27.9933 
 146   0.0000       1.030849        28.0508 
 147   0.0000       1.033773        28.1304 
 148   0.0000       1.039702        28.2917 
 149   0.0000       1.048628        28.5346 
 150   0.0000       1.050311        28.5804 
 151   0.0000       1.053527        28.6679 
 152   0.0000       1.058689        28.8084 
 153   0.0000       1.062233        28.9048 
 154   0.0000       1.072668        29.1888 
 155   0.0000       1.075512        29.2662 
 156   0.0000       1.079204        29.3666 
 157   0.0000       1.081923        29.4406 
 158   0.0000       1.084314        29.5057 
 159   0.0000       1.086771        29.5725 
 160   0.0000       1.090142        29.6643 
 161   0.0000       1.098503        29.8918 
 162   0.0000       1.103962        30.0403 
 163   0.0000       1.108147        30.1542 
 164   0.0000       1.109609        30.1940 
 165   0.0000       1.114771        30.3345 
 166   0.0000       1.122466        30.5438 
 167   0.0000       1.131259        30.7831 
 168   0.0000       1.137630        30.9565 
 169   0.0000       1.141561        31.0634 
 170   0.0000       1.146166        31.1888 
 171   0.0000       1.153379        31.3850 
 172   0.0000       1.160430        31.5769 
 173   0.0000       1.165471        31.7141 
 174   0.0000       1.171552        31.8795 
 175   0.0000       1.178730        32.0749 
 176   0.0000       1.181111        32.1397 
 177   0.0000       1.186752        32.2932 
 178   0.0000       1.190362        32.3914 
 179   0.0000       1.194951        32.5163 
 180   0.0000       1.210054        32.9272 
 181   0.0000       1.215637        33.0792 
 182   0.0000       1.219474        33.1836 
 183   0.0000       1.224350        33.3163 
 184   0.0000       1.231541        33.5119 
 185   0.0000       1.241393        33.7800 
 186   0.0000       1.247539        33.9473 
 187   0.0000       1.258341        34.2412 
 188   0.0000       1.264321        34.4039 
 189   0.0000       1.269903        34.5558 
 190   0.0000       1.273865        34.6636 
 191   0.0000       1.287955        35.0470 
 192   0.0000       1.295208        35.2444 
 193   0.0000       1.298130        35.3239 
 194   0.0000       1.307766        35.5861 
 195   0.0000       1.313841        35.7514 
 196   0.0000       1.316708        35.8295 
 197   0.0000       1.326235        36.0887 
 198   0.0000       1.329285        36.1717 
 199   0.0000       1.341760        36.5111 
 200   0.0000       1.352797        36.8115 
 201   0.0000       1.360012        37.0078 
 202   0.0000       1.365364        37.1534 
 203   0.0000       1.373452        37.3735 
 204   0.0000       1.380754        37.5722 
 205   0.0000       1.382421        37.6176 
 206   0.0000       1.391728        37.8708 
 207   0.0000       1.394662        37.9507 
 208   0.0000       1.404684        38.2234 
 209   0.0000       1.409472        38.3537 
 210   0.0000       1.415848        38.5272 
 211   0.0000       1.428483        38.8710 
 212   0.0000       1.433423        39.0054 
 213   0.0000       1.434264        39.0283 
 214   0.0000       1.444222        39.2993 
 215   0.0000       1.460682        39.7472 
 216   0.0000       1.466975        39.9184 
 217   0.0000       1.468472        39.9591 
 218   0.0000       1.474233        40.1159 
 219   0.0000       1.485423        40.4204 
 220   0.0000       1.491246        40.5789 
 221   0.0000       1.504236        40.9323 
 222   0.0000       1.508106        41.0376 
 223   0.0000       1.510497        41.1027 
 224   0.0000       1.517306        41.2880 
 225   0.0000       1.530784        41.6547 
 226   0.0000       1.540162        41.9099 
 227   0.0000       1.551967        42.2312 
 228   0.0000       1.555932        42.3391 
 229   0.0000       1.561581        42.4928 
 230   0.0000       1.563873        42.5551 
 231   0.0000       1.567559        42.6554 
 232   0.0000       1.578413        42.9508 
 233   0.0000       1.593288        43.3556 
 234   0.0000       1.602445        43.6047 
 235   0.0000       1.608144        43.7598 
 236   0.0000       1.609490        43.7965 
 237   0.0000       1.621032        44.1105 
 238   0.0000       1.625007        44.2187 
 239   0.0000       1.631555        44.3969 
 240   0.0000       1.643332        44.7173 
 241   0.0000       1.646147        44.7939 
 242   0.0000       1.653785        45.0018 
 243   0.0000       1.656812        45.0841 
 244   0.0000       1.667162        45.3658 
 245   0.0000       1.674590        45.5679 
 246   0.0000       1.684287        45.8318 
 247   0.0000       1.692204        46.0472 
 248   0.0000       1.700617        46.2761 
 249   0.0000       1.703105        46.3439 
 250   0.0000       1.708861        46.5005 
 251   0.0000       1.725160        46.9440 
 252   0.0000       1.738197        47.2987 
 253   0.0000       1.742046        47.4035 
 254   0.0000       1.744384        47.4671 
 255   0.0000       1.748055        47.5670 
 256   0.0000       1.758291        47.8455 
 257   0.0000       1.761672        47.9375 
 258   0.0000       1.777418        48.3660 
 259   0.0000       1.782288        48.4985 
 260   0.0000       1.790426        48.7200 
 261   0.0000       1.791688        48.7543 
 262   0.0000       1.799218        48.9592 
 263   0.0000       1.808016        49.1986 
 264   0.0000       1.808887        49.2223 
 265   0.0000       1.813557        49.3494 
 266   0.0000       1.824018        49.6340 
 267   0.0000       1.837008        49.9875 
 268   0.0000       1.845895        50.2294 
 269   0.0000       1.854589        50.4659 
 270   0.0000       1.860249        50.6199 
 271   0.0000       1.873862        50.9904 
 272   0.0000       1.876671        51.0668 
 273   0.0000       1.885113        51.2965 
 274   0.0000       1.894917        51.5633 
 275   0.0000       1.903091        51.7857 
 276   0.0000       1.912051        52.0296 
 277   0.0000       1.922021        52.3009 
 278   0.0000       1.933091        52.6021 
 279   0.0000       1.944741        52.9191 
 280   0.0000       1.946734        52.9733 
 281   0.0000       1.953651        53.1616 
 282   0.0000       1.959303        53.3153 
 283   0.0000       1.962249        53.3955 
 284   0.0000       1.964931        53.4685 
 285   0.0000       1.974278        53.7228 
 286   0.0000       1.975714        53.7619 
 287   0.0000       1.984156        53.9916 
 288   0.0000       1.988285        54.1040 
 289   0.0000       2.000811        54.4448 
 290   0.0000       2.007341        54.6225 
 291   0.0000       2.015288        54.8388 
 292   0.0000       2.023032        55.0495 
 293   0.0000       2.028673        55.2030 
 294   0.0000       2.034185        55.3530 
 295   0.0000       2.034651        55.3657 
 296   0.0000       2.037208        55.4353 
 297   0.0000       2.046099        55.6772 
 298   0.0000       2.053102        55.8678 
 299   0.0000       2.069768        56.3213 
 300   0.0000       2.078839        56.5681 
 301   0.0000       2.089987        56.8714 
 302   0.0000       2.096635        57.0524 
 303   0.0000       2.101004        57.1712 
 304   0.0000       2.108794        57.3832 
 305   0.0000       2.126254        57.8583 
 306   0.0000       2.129058        57.9346 
 307   0.0000       2.134701        58.0882 
 308   0.0000       2.138252        58.1848 
 309   0.0000       2.150186        58.5095 
 310   0.0000       2.172983        59.1299 
 311   0.0000       2.181957        59.3741 
 312   0.0000       2.183264        59.4096 
 313   0.0000       2.192015        59.6478 
 314   0.0000       2.196804        59.7781 
 315   0.0000       2.204954        59.9998 
 316   0.0000       2.209150        60.1140 
 317   0.0000       2.223430        60.5026 
 318   0.0000       2.237201        60.8773 
 319   0.0000       2.245153        61.0937 
 320   0.0000       2.253775        61.3283 
 321   0.0000       2.267571        61.7037 
 322   0.0000       2.276098        61.9358 
 323   0.0000       2.289160        62.2912 
 324   0.0000       2.298549        62.5467 
 325   0.0000       2.310068        62.8601 
 326   0.0000       2.314161        62.9715 
 327   0.0000       2.319351        63.1128 
 328   0.0000       2.335329        63.5475 
 329   0.0000       2.347281        63.8728 
 330   0.0000       2.349108        63.9225 
 331   0.0000       2.358085        64.1668 
 332   0.0000       2.367253        64.4162 
 333   0.0000       2.384468        64.8847 
 334   0.0000       2.394530        65.1585 
 335   0.0000       2.400141        65.3112 
 336   0.0000       2.412894        65.6582 
 337   0.0000       2.417196        65.7752 
 338   0.0000       2.431736        66.1709 
 339   0.0000       2.438567        66.3568 
 340   0.0000       2.441853        66.4462 
 341   0.0000       2.455452        66.8162 
 342   0.0000       2.465082        67.0783 
 343   0.0000       2.478333        67.4389 
 344   0.0000       2.499837        68.0240 
 345   0.0000       2.509148        68.2774 
 346   0.0000       2.535453        68.9932 
 347   0.0000       2.551035        69.4172 
 348   0.0000       2.562920        69.7406 
 349   0.0000       2.578129        70.1544 
 350   0.0000       2.597027        70.6687 
 351   0.0000       2.623815        71.3976 
 352   0.0000       2.634049        71.6761 
 353   0.0000       2.640542        71.8528 
 354   0.0000       2.653131        72.1954 
 355   0.0000       2.675603        72.8069 
 356   0.0000       2.694724        73.3272 
 357   0.0000       2.704725        73.5993 
 358   0.0000       2.717220        73.9393 
 359   0.0000       2.727833        74.2281 
 360   0.0000       2.738555        74.5199 
 361   0.0000       2.747411        74.7609 
 362   0.0000       2.773291        75.4651 
 363   0.0000       2.780805        75.6696 
 364   0.0000       2.796646        76.1006 
 365   0.0000       2.808003        76.4096 
 366   0.0000       2.819634        76.7261 
 367   0.0000       2.832394        77.0734 
 368   0.0000       2.837019        77.1992 
 369   0.0000       2.859457        77.8098 
 370   0.0000       2.876010        78.2602 
 371   0.0000       2.887040        78.5604 
 372   0.0000       2.908761        79.1514 
 373   0.0000       2.920292        79.4652 
 374   0.0000       2.925410        79.6045 
 375   0.0000       2.944445        80.1224 
 376   0.0000       2.956546        80.4517 
 377   0.0000       2.962363        80.6100 
 378   0.0000       2.970512        80.8317 
 379   0.0000       2.982211        81.1501 
 380   0.0000       2.988814        81.3298 
 381   0.0000       2.997838        81.5753 
 382   0.0000       3.011477        81.9465 
 383   0.0000       3.038154        82.6724 
 384   0.0000       3.039785        82.7167 
 385   0.0000       3.053314        83.0849 
 386   0.0000       3.071660        83.5841 
 387   0.0000       3.082686        83.8841 
 388   0.0000       3.090337        84.0924 
 389   0.0000       3.102009        84.4100 
 390   0.0000       3.115976        84.7900 
 391   0.0000       3.124663        85.0264 
 392   0.0000       3.142920        85.5232 
 393   0.0000       3.152092        85.7728 
 394   0.0000       3.160342        85.9973 
 395   0.0000       3.168138        86.2094 
 396   0.0000       3.171159        86.2916 
 397   0.0000       3.186118        86.6987 
 398   0.0000       3.190174        86.8091 
 399   0.0000       3.201445        87.1157 
 400   0.0000       3.216792        87.5333 
 401   0.0000       3.226895        87.8083 
 402   0.0000       3.234819        88.0239 
 403   0.0000       3.239384        88.1481 
 404   0.0000       3.259102        88.6847 
 405   0.0000       3.261753        88.7568 
 406   0.0000       3.272251        89.0425 
 407   0.0000       3.280629        89.2705 
 408   0.0000       3.287770        89.4648 
 409   0.0000       3.294673        89.6526 
 410   0.0000       3.306050        89.9622 
 411   0.0000       3.312133        90.1277 
 412   0.0000       3.326682        90.5236 
 413   0.0000       3.336122        90.7805 
 414   0.0000       3.346242        91.0559 
 415   0.0000       3.352873        91.2363 
 416   0.0000       3.362165        91.4892 
 417   0.0000       3.373541        91.7987 
 418   0.0000       3.375885        91.8625 
 419   0.0000       3.395713        92.4021 
 420   0.0000       3.396513        92.4238 
 421   0.0000       3.410468        92.8036 
 422   0.0000       3.419939        93.0613 
 423   0.0000       3.428738        93.3007 
 424   0.0000       3.437024        93.5262 
 425   0.0000       3.440817        93.6294 
 426   0.0000       3.455324        94.0242 
 427   0.0000       3.460315        94.1600 
 428   0.0000       3.471631        94.4679 
 429   0.0000       3.479708        94.6877 
 430   0.0000       3.485696        94.8506 
 431   0.0000       3.494658        95.0945 
 432   0.0000       3.494866        95.1001 
 433   0.0000       3.511607        95.5557 
 434   0.0000       3.517450        95.7147 
 435   0.0000       3.529918        96.0539 
 436   0.0000       3.534136        96.1687 
 437   0.0000       3.540129        96.3318 
 438   0.0000       3.549157        96.5775 
 439   0.0000       3.554585        96.7252 
 440   0.0000       3.564154        96.9856 
 441   0.0000       3.567091        97.0655 
 442   0.0000       3.573204        97.2318 
 443   0.0000       3.576509        97.3218 
 444   0.0000       3.587224        97.6133 
 445   0.0000       3.600692        97.9798 
 446   0.0000       3.603277        98.0502 
 447   0.0000       3.610750        98.2535 
 448   0.0000       3.614496        98.3554 
 449   0.0000       3.619318        98.4867 
 450   0.0000       3.629418        98.7615 
 451   0.0000       3.642629        99.1210 
 452   0.0000       3.656535        99.4994 
 453   0.0000       3.657655        99.5298 
 454   0.0000       3.666712        99.7763 
 455   0.0000       3.671783        99.9143 
 456   0.0000       3.684791       100.2683 
 457   0.0000       3.690472       100.4228 
 458   0.0000       3.696236       100.5797 
 459   0.0000       3.700944       100.7078 
 460   0.0000       3.708743       100.9200 
 461   0.0000       3.720535       101.2409 
 462   0.0000       3.725886       101.3865 
 463   0.0000       3.728321       101.4528 
 464   0.0000       3.732428       101.5645 
 465   0.0000       3.738213       101.7220 
 466   0.0000       3.746581       101.9496 
 467   0.0000       3.759999       102.3148 
 468   0.0000       3.763019       102.3969 
 469   0.0000       3.772819       102.6636 
 470   0.0000       3.780528       102.8734 
 471   0.0000       3.788172       103.0814 
 472   0.0000       3.791673       103.1767 
 473   0.0000       3.793921       103.2378 
 474   0.0000       3.800870       103.4269 
 475   0.0000       3.803199       103.4903 
 476   0.0000       3.805141       103.5431 
 477   0.0000       3.809682       103.6667 
 478   0.0000       3.818851       103.9162 
 479   0.0000       3.822620       104.0188 
 480   0.0000       3.832124       104.2774 
 481   0.0000       3.839183       104.4695 
 482   0.0000       3.849719       104.7562 
 483   0.0000       3.851617       104.8078 
 484   0.0000       3.853489       104.8588 
 485   0.0000       3.861141       105.0670 
 486   0.0000       3.863656       105.1354 
 487   0.0000       3.872847       105.3855 
 488   0.0000       3.874129       105.4204 
 489   0.0000       3.885242       105.7228 
 490   0.0000       3.894741       105.9813 
 491   0.0000       3.898421       106.0814 
 492   0.0000       3.901711       106.1709 
 493   0.0000       3.908278       106.3497 
 494   0.0000       3.911285       106.4315 
 495   0.0000       3.915695       106.5515 
 496   0.0000       3.923401       106.7612 
 497   0.0000       3.932820       107.0175 
 498   0.0000       3.936455       107.1164 
 499   0.0000       3.939420       107.1971 
 500   0.0000       3.948991       107.4575 
 501   0.0000       3.959627       107.7469 
 502   0.0000       3.962955       107.8375 
 503   0.0000       3.967266       107.9548 
 504   0.0000       3.976078       108.1946 
 505   0.0000       3.984926       108.4353 
 506   0.0000       3.994125       108.6857 
 507   0.0000       4.001404       108.8837 
 508   0.0000       4.007617       109.0528 
 509   0.0000       4.020065       109.3915 
 510   0.0000       4.027114       109.5833 
 511   0.0000       4.030003       109.6620 
 512   0.0000       4.036969       109.8515 
 513   0.0000       4.045142       110.0739 
 514   0.0000       4.050331       110.2151 
 515   0.0000       4.060959       110.5043 
 516   0.0000       4.067774       110.6898 
 517   0.0000       4.068670       110.7141 
 518   0.0000       4.075135       110.8901 
 519   0.0000       4.082377       111.0871 
 520   0.0000       4.093792       111.3977 
 521   0.0000       4.096874       111.4816 
 522   0.0000       4.104310       111.6839 
 523   0.0000       4.111672       111.8843 
 524   0.0000       4.118782       112.0778 
 525   0.0000       4.125399       112.2578 
 526   0.0000       4.132631       112.4546 
 527   0.0000       4.134692       112.5107 
 528   0.0000       4.146678       112.8368 
 529   0.0000       4.153397       113.0197 
 530   0.0000       4.159207       113.1778 
 531   0.0000       4.162253       113.2607 
 532   0.0000       4.173811       113.5752 
 533   0.0000       4.174418       113.5917 
 534   0.0000       4.177800       113.6837 
 535   0.0000       4.182991       113.8250 
 536   0.0000       4.199598       114.2769 
 537   0.0000       4.200222       114.2939 
 538   0.0000       4.209790       114.5542 
 539   0.0000       4.218372       114.7877 
 540   0.0000       4.221847       114.8823 
 541   0.0000       4.236018       115.2679 
 542   0.0000       4.238435       115.3337 
 543   0.0000       4.244752       115.5056 
 544   0.0000       4.254962       115.7834 
 545   0.0000       4.267042       116.1121 
 546   0.0000       4.269323       116.1742 
 547   0.0000       4.275909       116.3534 
 548   0.0000       4.289775       116.7307 
 549   0.0000       4.294237       116.8521 
 550   0.0000       4.296353       116.9097 
 551   0.0000       4.300157       117.0132 
 552   0.0000       4.311639       117.3257 
 553   0.0000       4.321494       117.5938 
 554   0.0000       4.323053       117.6362 
 555   0.0000       4.336352       117.9981 
 556   0.0000       4.345308       118.2418 
 557   0.0000       4.361294       118.6769 
 558   0.0000       4.363990       118.7502 
 559   0.0000       4.376593       119.0932 
 560   0.0000       4.379194       119.1639 
 561   0.0000       4.381557       119.2282 
 562   0.0000       4.397326       119.6573 
 563   0.0000       4.417291       120.2006 
 564   0.0000       4.422706       120.3480 
 565   0.0000       4.430621       120.5633 
 566   0.0000       4.443503       120.9139 
 567   0.0000       4.449982       121.0902 
 568   0.0000       4.454960       121.2256 
 569   0.0000       4.460091       121.3652 
 570   0.0000       4.470867       121.6585 
 571   0.0000       4.485298       122.0512 
 572   0.0000       4.491734       122.2263 
 573   0.0000       4.495855       122.3384 
 574   0.0000       4.518486       122.9543 
 575   0.0000       4.521100       123.0254 
 576   0.0000       4.531578       123.3105 
 577   0.0000       4.537443       123.4701 
 578   0.0000       4.540393       123.5504 
 579   0.0000       4.552783       123.8875 
 580   0.0000       4.560280       124.0915 
 581   0.0000       4.562218       124.1443 
 582   0.0000       4.573404       124.4487 
 583   0.0000       4.582493       124.6960 
 584   0.0000       4.584695       124.7559 
 585   0.0000       4.588174       124.8505 
 586   0.0000       4.599057       125.1467 
 587   0.0000       4.603435       125.2658 
 588   0.0000       4.607763       125.3836 
 589   0.0000       4.618641       125.6796 
 590   0.0000       4.627722       125.9267 
 591   0.0000       4.628295       125.9423 
 592   0.0000       4.636065       126.1537 
 593   0.0000       4.653729       126.6344 
 594   0.0000       4.655432       126.6807 
 595   0.0000       4.662016       126.8599 
 596   0.0000       4.667337       127.0047 
 597   0.0000       4.673957       127.1848 
 598   0.0000       4.680468       127.3620 
 599   0.0000       4.685982       127.5121 
 600   0.0000       4.692309       127.6842 
 601   0.0000       4.698440       127.8511 
 602   0.0000       4.715238       128.3082 
 603   0.0000       4.720512       128.4517 
 604   0.0000       4.726848       128.6241 
 605   0.0000       4.737777       128.9215 
 606   0.0000       4.739933       128.9801 
 607   0.0000       4.759728       129.5188 
 608   0.0000       4.766150       129.6935 
 609   0.0000       4.773711       129.8993 
 610   0.0000       4.783347       130.1615 
 611   0.0000       4.785473       130.2194 
 612   0.0000       4.796900       130.5303 
 613   0.0000       4.798323       130.5690 
 614   0.0000       4.808269       130.8397 
 615   0.0000       4.811679       130.9324 
 616   0.0000       4.813959       130.9945 
 617   0.0000       4.823768       131.2614 
 618   0.0000       4.829888       131.4279 
 619   0.0000       4.846211       131.8721 
 620   0.0000       4.850415       131.9865 
 621   0.0000       4.855180       132.1162 
 622   0.0000       4.858403       132.2039 
 623   0.0000       4.868782       132.4863 
 624   0.0000       4.874421       132.6397 
 625   0.0000       4.888087       133.0116 
 626   0.0000       4.897205       133.2597 
 627   0.0000       4.909400       133.5916 
 628   0.0000       4.919259       133.8598 
 629   0.0000       4.930733       134.1721 
 630   0.0000       4.933796       134.2554 
 631   0.0000       4.942385       134.4891 
 632   0.0000       4.951288       134.7314 
 633   0.0000       4.961330       135.0047 
 634   0.0000       4.966131       135.1353 
 635   0.0000       4.979301       135.4937 
 636   0.0000       4.982208       135.5728 
 637   0.0000       4.988245       135.7370 
 638   0.0000       4.999268       136.0370 
 639   0.0000       5.008091       136.2771 
 640   0.0000       5.014503       136.4516 
 641   0.0000       5.016706       136.5115 
 642   0.0000       5.033606       136.9714 
 643   0.0000       5.045194       137.2867 
 644   0.0000       5.048345       137.3725 
 645   0.0000       5.055396       137.5643 
 646   0.0000       5.067784       137.9014 
 647   0.0000       5.068683       137.9259 
 648   0.0000       5.080634       138.2511 
 649   0.0000       5.086299       138.4052 
 650   0.0000       5.099750       138.7712 
 651   0.0000       5.111548       139.0923 
 652   0.0000       5.129163       139.5716 
 653   0.0000       5.134254       139.7101 
 654   0.0000       5.139450       139.8515 
 655   0.0000       5.153082       140.2225 
 656   0.0000       5.158706       140.3755 
 657   0.0000       5.167339       140.6105 
 658   0.0000       5.174443       140.8038 
 659   0.0000       5.199211       141.4777 
 660   0.0000       5.200971       141.5256 
 661   0.0000       5.231053       142.3442 
 662   0.0000       5.234274       142.4318 
 663   0.0000       5.242204       142.6476 
 664   0.0000       5.249244       142.8392 
 665   0.0000       5.264719       143.2603 
 666   0.0000       5.276208       143.5729 
 667   0.0000       5.292772       144.0237 
 668   0.0000       5.302759       144.2954 
 669   0.0000       5.313701       144.5931 
 670   0.0000       5.320013       144.7649 
 671   0.0000       5.351305       145.6164 
 672   0.0000       5.375302       146.2694 
 673   0.0000       5.377005       146.3157 
 674   0.0000       5.411622       147.2577 
 675   0.0000       5.427557       147.6913 
 676   0.0000       5.433921       147.8645 
 677   0.0000       5.443063       148.1133 
 678   0.0000       5.463332       148.6648 
 679   0.0000       5.490930       149.4158 
 680   0.0000       5.493765       149.4929 
 681   0.0000       5.507532       149.8676 
 682   0.0000       5.518862       150.1759 
 683   0.0000       5.524798       150.3374 
 684   0.0000       5.535974       150.6415 
 685   0.0000       5.551010       151.0507 
 686   0.0000       5.564953       151.4301 
 687   0.0000       5.577481       151.7710 
 688   0.0000       5.590777       152.1328 
 689   0.0000       5.604233       152.4989 
 690   0.0000       5.606482       152.5601 
 691   0.0000       5.629468       153.1856 
 692   0.0000       5.635537       153.3507 
 693   0.0000       5.642207       153.5323 
 694   0.0000       5.647894       153.6870 
 695   0.0000       5.652208       153.8044 
 696   0.0000       5.661968       154.0700 
 697   0.0000       5.668355       154.2438 
 698   0.0000       5.684028       154.6703 
 699   0.0000       5.690097       154.8354 
 700   0.0000       5.698036       155.0515 
 701   0.0000       5.716858       155.5636 
 702   0.0000       5.740738       156.2134 
 703   0.0000       5.753575       156.5627 
 704   0.0000       5.756255       156.6357 
 705   0.0000       5.770512       157.0236 
 706   0.0000       5.782926       157.3614 
 707   0.0000       5.794279       157.6703 
 708   0.0000       5.805263       157.9693 
 709   0.0000       5.810439       158.1101 
 710   0.0000       5.831881       158.6936 
 711   0.0000       5.849756       159.1800 
 712   0.0000       5.868647       159.6940 
 713   0.0000       5.887150       160.1975 
 714   0.0000       5.889965       160.2741 
 715   0.0000       5.900606       160.5637 
 716   0.0000       5.915423       160.9668 
 717   0.0000       5.930026       161.3642 
 718   0.0000       5.951881       161.9589 
 719   0.0000       5.962703       162.2534 
 720   0.0000       5.969608       162.4413 
 721   0.0000       5.982670       162.7967 
 722   0.0000       6.008401       163.4969 
 723   0.0000       6.017161       163.7353 
 724   0.0000       6.026510       163.9897 
 725   0.0000       6.038923       164.3274 
 726   0.0000       6.040923       164.3819 
 727   0.0000       6.042219       164.4171 
 728   0.0000       6.068030       165.1195 
 729   0.0000       6.080151       165.4493 
 730   0.0000       6.090110       165.7203 
 731   0.0000       6.095604       165.8698 
 732   0.0000       6.107569       166.1954 
 733   0.0000       6.118592       166.4954 
 734   0.0000       6.133024       166.8881 
 735   0.0000       6.148293       167.3036 
 736   0.0000       6.158487       167.5809 
 737   0.0000       6.164354       167.7406 
 738   0.0000       6.181753       168.2140 
 739   0.0000       6.181900       168.2181 
 740   0.0000       6.188508       168.3979 
 741   0.0000       6.203430       168.8039 
 742   0.0000       6.213627       169.0814 
 743   0.0000       6.241330       169.8352 
 744   0.0000       6.249640       170.0613 
 745   0.0000       6.274852       170.7474 
 746   0.0000       6.308605       171.6659 
 747   0.0000       6.337623       172.4555 
 748   0.0000       6.364175       173.1780 
 749   0.0000       6.375087       173.4749 
 750   0.0000       6.394120       173.9929 
 751   0.0000       6.417578       174.6312 
 752   0.0000       6.422828       174.7740 
 753   0.0000       6.430038       174.9702 
 754   0.0000       6.452230       175.5741 
 755   0.0000       6.473472       176.1521 
 756   0.0000       6.481711       176.3763 
 757   0.0000       6.503120       176.9589 
 758   0.0000       6.514583       177.2708 
 759   0.0000       6.531944       177.7432 
 760   0.0000       6.555167       178.3752 
 761   0.0000       6.564778       178.6367 
 762   0.0000       6.621770       180.1875 
 763   0.0000       6.664597       181.3529 
 764   0.0000       6.678146       181.7216 
 765   0.0000       6.698214       182.2677 
 766   0.0000       6.712338       182.6520 
 767   0.0000       6.729624       183.1224 
 768   0.0000       6.738695       183.3692 
 769   0.0000       6.750995       183.7039 
 770   0.0000       6.773186       184.3078 
 771   0.0000       6.818028       185.5280 
 772   0.0000       6.844410       186.2459 
 773   0.0000       6.877908       187.1574 
 774   0.0000       6.894621       187.6122 
 775   0.0000       6.915768       188.1876 
 776   0.0000       6.968198       189.6143 
 777   0.0000       6.998961       190.4514 
 778   0.0000       7.011966       190.8053 
 779   0.0000       7.065379       192.2587 
 780   0.0000       7.107279       193.3989 
 781   0.0000       7.153902       194.6676 
 782   0.0000       7.169481       195.0915 
 783   0.0000       7.190438       195.6618 
 784   0.0000       7.225748       196.6226 
 785   0.0000       7.269956       197.8255 
 786   0.0000       7.312932       198.9950 
 787   0.0000       7.328178       199.4099 
 788   0.0000       7.352655       200.0759 
 789   0.0000       7.425470       202.0573 
 790   0.0000       7.430402       202.1915 
 791   0.0000       7.451008       202.7522 
 792   0.0000       7.523814       204.7334 
 793   0.0000       7.555755       205.6025 
 794   0.0000       7.661018       208.4669 
 795   0.0000       7.681670       209.0289 
 796   0.0000       7.707491       209.7315 
 797   0.0000       7.714580       209.9244 
 798   0.0000       7.771190       211.4648 
 799   0.0000       7.775869       211.5922 
 800   0.0000       7.892374       214.7624 
 801   0.0000       7.983146       217.2325 
 802   0.0000       7.986266       217.3173 
 803   0.0000       7.992871       217.4971 
 804   0.0000       8.093854       220.2450 
 805   0.0000       8.120268       220.9637 
 806   0.0000       8.335931       226.8322 
 807   0.0000       8.395266       228.4468 
 808   0.0000       8.425002       229.2560 
 809   0.0000       9.704193       264.0645 
 810   0.0000       9.904070       269.5034 
 811   0.0000      10.918195       297.0992 
 812   0.0000      11.799687       321.0858 
 813   0.0000      12.535979       341.1213 
 814   0.0000      12.692735       345.3869 
 815   0.0000      13.163185       358.1885 
 816   0.0000      13.277095       361.2881 
 817   0.0000      13.554168       368.8277 
 818   0.0000      13.731912       373.6643 
 819   0.0000      13.872620       377.4932 
 820   0.0000      13.998937       380.9304 
 821   0.0000      14.092499       383.4764 
 822   0.0000      14.177991       385.8027 
 823   0.0000      14.454942       393.3390 
 824   0.0000      14.551105       395.9557 
 825   0.0000      14.692281       399.7973 
 826   0.0000      15.079672       410.3387 
 827   0.0000      16.042500       436.5386 

                    ********************************
                    * MULLIKEN POPULATION ANALYSIS *
                    ********************************

-----------------------
MULLIKEN ATOMIC CHARGES
-----------------------
   0 C :   -0.280060
   1 C :   -0.000173
   2 O :   -0.303669
   3 C :    0.544567
   4 O :   -0.541660
   5 C :   -0.248098
   6 C :    0.171948
   7 C :   -0.263490
   8 N :   -0.178865
   9 C :    0.312680
  10 S :   -0.628351
  11 N :   -0.263190
  12 C :    0.122745
  13 C :    0.012762
  14 C :   -0.240247
  15 C :   -0.161714
  16 C :   -0.247727
  17 C :    0.233525
  18 O :   -0.447799
  19 C :   -0.246220
  20 H :    0.106964
  21 H :    0.100303
  22 H :    0.094700
  23 H :    0.092451
  24 H :    0.120235
  25 H :    0.122137
  26 H :    0.135502
  27 H :    0.121649
  28 H :    0.253098
  29 H :    0.248117
  30 H :    0.174061
  31 H :    0.194041
  32 H :    0.196113
  33 H :    0.177287
  34 H :    0.335535
  35 H :    0.180845
Sum of atomic charges:    0.0000000

--------------------------------
MULLIKEN REDUCED ORBITAL CHARGES
--------------------------------
  0 C s       :     3.262857  s :     3.262857
      pz      :     0.941745  p :     2.941981
      px      :     1.011765
      py      :     0.988471
      dz2     :     0.011882  d :     0.070629
      dxz     :     0.017489
      dyz     :     0.012695
      dx2y2   :     0.022839
      dxy     :     0.005723
      f0      :     0.000562  f :     0.004593
      f+1     :     0.000908
      f-1     :     0.001035
      f+2     :     0.000804
      f-2     :     0.000280
      f+3     :     0.000167
      f-3     :     0.000836
  1 C s       :     3.181599  s :     3.181599
      pz      :     0.800552  p :     2.647260
      px      :     0.824115
      py      :     1.022593
      dz2     :     0.039869  d :     0.158014
      dxz     :     0.038797
      dyz     :     0.022621
      dx2y2   :     0.036946
      dxy     :     0.019781
      f0      :     0.001999  f :     0.013300
      f+1     :     0.003079
      f-1     :     0.001297
      f+2     :     0.002396
      f-2     :     0.002211
      f+3     :     0.000873
      f-3     :     0.001445
  2 O s       :     3.693097  s :     3.693097
      pz      :     1.497926  p :     4.570022
      px      :     1.619961
      py      :     1.452134
      dz2     :     0.006254  d :     0.037973
      dxz     :     0.008779
      dyz     :     0.007219
      dx2y2   :     0.010825
      dxy     :     0.004895
      f0      :     0.000342  f :     0.002577
      f+1     :     0.000372
      f-1     :     0.000388
      f+2     :     0.000645
      f-2     :     0.000415
[...]
 15 C s       :     2.700962  s :     2.700962
      pz      :     0.904501  p :     2.807850
      px      :     0.925582
      py      :     0.977768
      dz2     :     0.074257  d :     0.424699
      dxz     :     0.052729
      dyz     :     0.098233
      dx2y2   :     0.084696
      dxy     :     0.114784
      f0      :     0.005566  f :     0.042845
      f+1     :     0.004309
      f-1     :     0.005386
      f+2     :     0.007830
      f-2     :     0.005519
      f+3     :     0.008337
      f-3     :     0.005898
 16 C s       :     2.699238  s :     2.699238
      pz      :     0.943546  p :     2.851627
      px      :     0.944349
      py      :     0.963732
      dz2     :     0.083975  d :     0.412113
      dxz     :     0.068209
      dyz     :     0.084062
      dx2y2   :     0.103587
      dxy     :     0.072280
      f0      :     0.004256  f :     0.042852
      f+1     :     0.005531
      f-1     :     0.006033
      f+2     :     0.007571
      f-2     :     0.007528
      f+3     :     0.005887
      f-3     :     0.006046
 17 C s       :     2.712513  s :     2.712513
      pz      :     0.831218  p :     2.703721
      px      :     0.863624
      py      :     1.008879
      dz2     :     0.106500  d :     0.670092
      dxz     :     0.111177
      dyz     :     0.129976
      dx2y2   :     0.176346
      dxy     :     0.146092
      f0      :     0.007417  f :     0.090833
      f+1     :     0.013355
      f-1     :     0.010257
      f+2     :     0.015966
      f-2     :     0.012615
      f+3     :     0.019658
      f-3     :     0.011565
 18 O s       :     3.184360  s :     3.184360
      pz      :     1.579973  p :     4.410324
      px      :     1.433865
      py      :     1.396486
      dz2     :     0.010599  d :     0.067955
      dxz     :     0.015377
      dyz     :     0.009870
      dx2y2   :     0.017674
      dxy     :     0.014435
      f0      :     0.000257  f :     0.004182
      f+1     :     0.000668
      f-1     :     0.000304
      f+2     :     0.001128
      f-2     :     0.000755
      f+3     :     0.000611
      f-3     :     0.000458
 19 C s       :     2.699386  s :     2.699386
      pz      :     0.931509  p :     2.849450
      px      :     0.942133
      py      :     0.975807
      dz2     :     0.063498  d :     0.402217
      dxz     :     0.049132
      dyz     :     0.102009
      dx2y2   :     0.080828
      dxy     :     0.106749
      f0      :     0.005438  f :     0.041315
      f+1     :     0.003850
      f-1     :     0.005148
      f+2     :     0.007133
      f-2     :     0.006034
      f+3     :     0.008210
      f-3     :     0.005501
 20 H s       :     0.843703  s :     0.843703
      pz      :     0.057204  p :     0.150164
      px      :     0.052005
      py      :     0.040956
      dz2     :     0.007738  d :     0.027317
      dxz     :     0.006359
      dyz     :     0.004892
      dx2y2   :     0.004720
      dxy     :     0.003608
 21 H s       :     0.848611  s :     0.848611
      pz      :     0.039875  p :     0.149626
      px      :     0.069131
      py      :     0.040621
      dz2     :     0.002984  d :     0.027518
      dxz     :     0.008683
      dyz     :     0.001021
      dx2y2   :     0.007479
      dxy     :     0.007351
 22 H s       :     0.850828  s :     0.850828
      pz      :     0.040136  p :     0.152701
      px      :     0.038563
      py      :     0.074002
      dz2     :     0.002500  d :     0.027617
      dxz     :     0.000271
      dyz     :     0.009171
      dx2y2   :     0.007078
      dxy     :     0.008597
 23 H s       :     0.857113  s :     0.857113
      pz      :     0.036763  p :     0.147090
      px      :     0.067157
      py      :     0.043170
      dz2     :     0.003556  d :     0.027540
      dxz     :     0.007523
      dyz     :     0.001601
      dx2y2   :     0.007696
      dxy     :     0.007164
 24 H s       :     0.846901  s :     0.846901
      pz      :     0.033566  p :     0.143609
      px      :     0.031382
      py      :     0.078661
      dz2     :     0.002667  d :     0.027124
      dxz     :     0.000504
      dyz     :     0.008522
      dx2y2   :     0.007492
      dxy     :     0.007939
 25 H s       :     0.830546  s :     0.830546
      pz      :     0.040567  p :     0.152140
      px      :     0.069106
      py      :     0.042467
      dz2     :     0.002507  d :     0.027786
      dxz     :     0.008046
      dyz     :     0.001643
      dx2y2   :     0.007930
      dxy     :     0.007659
 26 H s       :     0.823606  s :     0.823606
      pz      :     0.047606  p :     0.152500
      px      :     0.039518
      py      :     0.065376
      dz2     :     0.005791  d :     0.027681
      dxz     :     0.002320
      dyz     :     0.007034
      dx2y2   :     0.005307
      dxy     :     0.007229
 27 H s       :     0.826581  s :     0.826581
      pz      :     0.072129  p :     0.151953
      px      :     0.038637
      py      :     0.041186
      dz2     :     0.009490  d :     0.027972
      dxz     :     0.007916
      dyz     :     0.008862
      dx2y2   :     0.000661
      dxy     :     0.001043
 28 H s       :     0.718011  s :     0.718011
      pz      :     0.113650  p :     0.256093
      px      :     0.044536
      py      :     0.097906
      dz2     :     0.021293  d :     0.060993
      dxz     :     0.012050
      dyz     :     0.017193
      dx2y2   :     0.006129
      dxy     :     0.004329
 29 H s       :     0.725371  s :     0.725371
      pz      :     0.076008  p :     0.255117
      px      :     0.106490
      py      :     0.072620
      dz2     :     0.011717  d :     0.060824
      dxz     :     0.016727
      dyz     :     0.005215
      dx2y2   :     0.011650
      dxy     :     0.015513
 30 H s       :     0.818971  s :     0.818971
      pz      :     0.081911  p :     0.149614
      px      :     0.032770
      py      :     0.034933
      dz2     :     0.010750  d :     0.028773
      dxz     :     0.008513
      dyz     :     0.008770
      dx2y2   :     0.000442
      dxy     :     0.000297
 31 H s       :     0.834022  s :     0.834022
      pz      :     0.058387  p :     0.157752
      px      :     0.063615
      py      :     0.035749
      dz2     :     0.006148  d :     0.027425
      dxz     :     0.007253
      dyz     :     0.004452
      dx2y2   :     0.004917
      dxy     :     0.004655
 32 H s       :     0.828307  s :     0.828307
      pz      :     0.041563  p :     0.152308
      px      :     0.060855
      py      :     0.049889
      dz2     :     0.003638  d :     0.026966
      dxz     :     0.005253
      dyz     :     0.003369
      dx2y2   :     0.007557
      dxy     :     0.007150
 33 H s       :     0.832931  s :     0.832931
      pz      :     0.040533  p :     0.155647
      px      :     0.037672
      py      :     0.077442
      dz2     :     0.003237  d :     0.027626
      dxz     :     0.000631
      dyz     :     0.008325
      dx2y2   :     0.007214
      dxy     :     0.008219
 34 H s       :     0.668703  s :     0.668703
      pz      :     0.099626  p :     0.345085
      px      :     0.083272
      py      :     0.162187
      dz2     :     0.011467  d :     0.098260
      dxz     :     0.006512
      dyz     :     0.027987
      dx2y2   :     0.027713
      dxy     :     0.024581
 35 H s       :     0.832646  s :     0.832646
      pz      :     0.047401  p :     0.166816
      px      :     0.055922
      py      :     0.063493
      dz2     :     0.004083  d :     0.028498
      dxz     :     0.004388
      dyz     :     0.005356
      dx2y2   :     0.007885
      dxy     :     0.006785


                      *****************************
                      * MAYER POPULATION ANALYSIS *
                      *****************************

  NA   - Mulliken gross atomic population
  ZA   - Total nuclear charge
  QA   - Mulliken gross atomic charge
  VA   - Mayer's total valence
  BVA  - Mayer's bonded valence
  FA   - Mayer's free valence

  ATOM       NA         ZA         QA         VA         BVA        FA
  0 C      6.2801     6.0000    -0.2801     3.8743     3.8743    -0.0000
  1 C      6.0002     6.0000    -0.0002     3.8612     3.8612    -0.0000
  2 O      8.3037     8.0000    -0.3037     2.0869     2.0869    -0.0000
  3 C      5.4554     6.0000     0.5446     4.1955     4.1955    -0.0000
  4 O      8.5417     8.0000    -0.5417     1.9920     1.9920     0.0000
  5 C      6.2481     6.0000    -0.2481     3.7070     3.7070    -0.0000
  6 C      5.8281     6.0000     0.1719     3.8347     3.8347     0.0000
  7 C      6.2635     6.0000    -0.2635     3.8863     3.8863     0.0000
  8 N      7.1789     7.0000    -0.1789     3.3370     3.3370     0.0000
  9 C      5.6873     6.0000     0.3127     4.0523     4.0523     0.0000
 10 S     16.6284    16.0000    -0.6284     1.4624     1.4624     0.0000
 11 N      7.2632     7.0000    -0.2632     3.2803     3.2803     0.0000
 12 C      5.8773     6.0000     0.1227     3.8642     3.8642     0.0000
 13 C      5.9872     6.0000     0.0128     3.7088     3.7088    -0.0000
 14 C      6.2402     6.0000    -0.2402     3.8466     3.8466     0.0000
 15 C      6.1617     6.0000    -0.1617     3.7383     3.7383    -0.0000
 16 C      6.2477     6.0000    -0.2477     3.7462     3.7462     0.0000
 17 C      5.7665     6.0000     0.2335     3.9207     3.9207     0.0000
 18 O      8.4478     8.0000    -0.4478     2.0300     2.0300    -0.0000
 19 C      6.2462     6.0000    -0.2462     3.7369     3.7369     0.0000
 20 H      0.8930     1.0000     0.1070     0.9858     0.9858     0.0000
 21 H      0.8997     1.0000     0.1003     0.9859     0.9859     0.0000
 22 H      0.9053     1.0000     0.0947     0.9910     0.9910     0.0000
 23 H      0.9075     1.0000     0.0925     0.9901     0.9901     0.0000
 24 H      0.8798     1.0000     0.1202     0.9740     0.9740    -0.0000
 25 H      0.8779     1.0000     0.1221     0.9833     0.9833     0.0000
 26 H      0.8645     1.0000     0.1355     0.9782     0.9782    -0.0000
 27 H      0.8784     1.0000     0.1216     0.9846     0.9846    -0.0000
 28 H      0.7469     1.0000     0.2531     0.9714     0.9714    -0.0000
 29 H      0.7519     1.0000     0.2481     0.9704     0.9704     0.0000
 30 H      0.8259     1.0000     0.1741     0.9832     0.9832     0.0000
 31 H      0.8060     1.0000     0.1940     0.9704     0.9704     0.0000
 32 H      0.8039     1.0000     0.1961     0.9639     0.9639    -0.0000
 33 H      0.8227     1.0000     0.1773     0.9741     0.9741     0.0000
 34 H      0.6645     1.0000     0.3355     0.9302     0.9302    -0.0000
 35 H      0.8192     1.0000     0.1808     0.9842     0.9842     0.0000

  Mayer bond orders larger than 0.100000
B(  0-C ,  1-C ) :   0.9578 B(  0-C , 20-H ) :   0.9782 B(  0-C , 21-H ) :   0.9750 
B(  0-C , 22-H ) :   0.9789 B(  1-C ,  2-O ) :   0.9173 B(  1-C , 23-H ) :   0.9796 
B(  1-C , 24-H ) :   0.9806 B(  2-O ,  3-C ) :   1.1771 B(  3-C ,  4-O ) :   1.8953 
B(  3-C ,  5-C ) :   1.0779 B(  5-C ,  6-C ) :   1.6586 B(  5-C , 12-C ) :   0.9637 
B(  6-C ,  7-C ) :   0.9694 B(  6-C ,  8-N ) :   1.1053 B(  7-C , 25-H ) :   0.9668 
B(  7-C , 26-H ) :   0.9580 B(  7-C , 27-H ) :   0.9807 B(  8-N ,  9-C ) :   1.2652 
B(  8-N , 28-H ) :   0.9242 B(  9-C , 10-S ) :   1.3273 B(  9-C , 11-N ) :   1.3890 
B( 11-N , 12-C ) :   0.9048 B( 11-N , 29-H ) :   0.9287 B( 12-C , 13-C ) :   0.9649 
B( 12-C , 30-H ) :   0.9921 B( 13-C , 14-C ) :   1.3507 B( 13-C , 19-C ) :   1.3465 
B( 14-C , 15-C ) :   1.3860 B( 14-C , 31-H ) :   0.9598 B( 15-C , 16-C ) :   1.3337 
B( 15-C , 32-H ) :   0.9599 B( 16-C , 17-C ) :   1.3652 B( 16-C , 33-H ) :   0.9668 
B( 17-C , 18-O ) :   1.1036 B( 17-C , 19-C ) :   1.3499 B( 18-O , 34-H ) :   0.9057 
B( 19-C , 35-H ) :   0.9477 

-------
TIMINGS
-------

Total SCF time: 0 days 1 hours 49 min 7 sec 

Total time                  ....    6547.003 sec
Sum of individual times     ....    6543.380 sec  ( 99.9%)

Fock matrix formation       ....    6531.371 sec  ( 99.8%)
Diagonalization             ....       1.314 sec  (  0.0%)
Density matrix formation    ....       0.200 sec  (  0.0%)
Population analysis         ....       0.297 sec  (  0.0%)
Initial guess               ....       5.205 sec  (  0.1%)
Orbital Transformation      ....       0.000 sec  (  0.0%)
Orbital Orthonormalization  ....       0.000 sec  (  0.0%)
DIIS solution               ....       1.694 sec  (  0.0%)
SOSCF solution              ....       1.939 sec  (  0.0%)

Maximum memory used throughout the entire SCF-calculation: 721.5 MB

------------------------------------------------------------------------------
                                ORCA  MP2 
------------------------------------------------------------------------------

Freezing NCore=48 chemical core electrons

-------------
RI-MP2 ENERGY
-------------
Dimension of the basis                    ...  828
Memory devoted to MP2                     ...  256 MB   
Data format for buffers                   ... DOUBLE
Compression type for matrix containers    ... UNCOMPRESSED
Overall scaling of the MP2 energy         ...   1.000e+00
Calculating two index integrals           ... done (    0.045 sec)
Cholesky decomposition of V**-1           ... done (    0.571 sec)

-----------------
RI-TRANSFORMATION (AUX index driven)
-----------------

Dimension of the orbital-basis         ... 828
Dimension of the aux-basis             ... 2141
Transformation of internal/external MOs...   24-  76 to   77- 827
Number Format for Storage              ... Double (8 Byte)
Integral mode                          ... Direct

First Phase: integral generation and transformation of MO indices
  Aux angular momentum 0               ... done (    5.478 sec)
  Aux angular momentum 1               ... done (    8.963 sec)
  Aux angular momentum 2               ... done (   11.316 sec)
  Aux angular momentum 3               ... done (    9.005 sec)
  Aux angular momentum 4               ... done (    3.372 sec)
Closing buffer VIA ( 0.63 GB; CompressionRatio= 1.00)
  Phase 1 completed in    38.305 sec
Second Phase: sorting and transformation of aux index

IA-Transformation
Memory available                       ... 158 MB 
Max. # MO pairs treated in a batch     ... 11    
# of internal orbitals                 ... 53
# batches for internal orbitals        ... 5
Closing buffer IAV ( 0.63 GB; CompressionRatio= 1.00)
(ia|v) transformation done in    19.521 sec

  Phase 2 completed in    19.530 sec
RI-Integral transformation completed in    57.841 sec
Opening buffers                              ... done

Starting loop over batches of integrals:

Operator 0  - window                       ... ( 24- 76)x( 77-827)
Operator 0  - Memory available             ...   256 MB
Operator 0  - Memory needed per MO         ...  12.3 MB
Operator 0  - Number of orbitals per batch ... 13
Operator 0  - Number of batches            ... 5

OPERATOR  0   PASS   0:  MOs    24 ...   36
  Reading integrals       ... ok
  Internal MO  26
  Internal MO  29
  Internal MO  32
  Internal MO  35
OPERATOR  0   PASS   1:  MOs    37 ...   49
  Reading integrals       ... ok
  Internal MO  38
  Internal MO  41
  Internal MO  44
  Internal MO  47
OPERATOR  0   PASS   2:  MOs    50 ...   62
  Reading integrals       ... ok
  Internal MO  50
  Internal MO  53
  Internal MO  56
  Internal MO  59
  Internal MO  62
OPERATOR  0   PASS   3:  MOs    63 ...   75
  Reading integrals       ... ok
  Internal MO  65
  Internal MO  68
  Internal MO  71
  Internal MO  74
OPERATOR  0   PASS   4:  MOs    76 ...   76
  Reading integrals       ... ok
Time spent in pair loops =    97.296 sec
Deleting buffer (Ka|jb)[aa] ...done

-----------------------------------------------
 RI-MP2 CORRELATION ENERGY:     -3.524792870 Eh
-----------------------------------------------


-------
TIMINGS
-------

Total time                :  155.908 sec
Integral trafo            :   57.864 sec ( 37.1%)
I/O of integrals          :    1.048 sec (  0.7%)
K(i,j) Operators          :   67.650 sec ( 43.4%)
T(i,j) pair energies      :    9.916 sec (  6.4%)
V-calculation             :    0.045 sec (  0.0%)
V**(-1/2)                 :    0.571 sec (  0.4%)
Gamma(ia|P)               :    0.000 sec (  0.0%)
Gamma-Trafo               :    0.000 sec (  0.0%)
D(virtual)                :    0.000 sec (  0.0%)
D(internal)               :    0.000 sec (  0.0%)
W(virtual)                :    0.000 sec (  0.0%)
W(internal)               :    0.000 sec (  0.0%)
L(virtual)                :    0.000 sec (  0.0%)
L(internal)               :    0.000 sec (  0.0%)
G(D)                      :    0.000 sec (  0.0%)
G(Z)                      :    0.000 sec (  0.0%)
Z-Vector Solution         :    0.000 sec (  0.0%)
3-Index Derivative        :    0.000 sec (  0.0%)
2-Index Derivative        :    0.000 sec (  0.0%)
Separable Gradient        :    0.000 sec (  0.0%)


---------------------------------------
MP2 TOTAL ENERGY:    -1274.412755876 Eh
---------------------------------------

Maximum memory used throughout the entire MP2-calculation: 303.3 MB

-------------------------   --------------------
FINAL SINGLE POINT ENERGY     -1274.412755875641
-------------------------   --------------------


                            ***************************************
                            *     ORCA property calculations      *
                            ***************************************


  WARNING: The energy has been calculated at the MP2 level but the densities
           used in the property calculations are still SCF densities
           MP2 response densities have not been calculated 
           use %mp2 Density relaxed end
           or  %mp2 Density unrelaxed end

                                    ---------------------
                                    Active property flags
                                    ---------------------
   (+) Dipole Moment


------------------------------------------------------------------------------
                       ORCA ELECTRIC PROPERTIES CALCULATION
------------------------------------------------------------------------------

Dipole Moment Calculation                       ... on
Quadrupole Moment Calculation                   ... off
Polarizability Calculation                      ... off
GBWName                                         ... qm_input.solv.gbw
Electron density file                           ... qm_input.solv.scfp
The origin for moment calculation is the CENTER OF MASS  = (29.161689, -10.449980 -1.988663)

-------------
DIPOLE MOMENT
-------------
                                X             Y             Z
Electronic contribution:      9.94929      -1.80991      -9.91657
Nuclear contribution   :    -11.60631       3.69450      11.52691
                        -----------------------------------------
Total Dipole Moment    :     -1.65702       1.88460       1.61034
                        -----------------------------------------
Magnitude (a.u.)       :      2.98171
Magnitude (Debye)      :      7.57891



--------------------
Rotational spectrum 
--------------------
 
Rotational constants in cm-1:     0.010761     0.008446     0.006056 
Rotational constants in MHz :   322.612195   253.208604   181.554575 

 Dipole components along the rotational axes: 
x,y,z [a.u.] :     2.954379     0.304886     0.263252 
x,y,z [Debye]:     7.509435     0.774959     0.669133 

 

Timings for individual modules:

Sum of individual times         ...     6927.322 sec (= 115.455 min)
GTO integral calculation        ...      223.837 sec (=   3.731 min)   3.2 %
SCF iterations                  ...     6547.115 sec (= 109.119 min)  94.5 %
MP2 module                      ...      156.370 sec (=   2.606 min)   2.3 %
                             ****ORCA TERMINATED NORMALLY****
TOTAL RUN TIME: 0 days 1 hours 55 minutes 28 seconds 176 msec
