
                                        *****************
                                        * O   R   C   A *
                                        *****************

                                            #,                                       
                                            ###                                      
                                            ####                                     
                                            #####                                    
                                            ######                                   
                                           ########,                                 
                                     ,,################,,,,,                         
                               ,,#################################,,                 
                          ,,##########################################,,             
                       ,#########################################, ''#####,          
                    ,#############################################,,   '####,        
                  ,##################################################,,,,####,       
                ,###########''''           ''''###############################       
              ,#####''   ,,,,##########,,,,          '''####'''          '####       
            ,##' ,,,,###########################,,,                        '##       
           ' ,,###''''                  '''############,,,                           
         ,,##''                                '''############,,,,        ,,,,,,###''
      ,#''                                            '''#######################'''  
     '                                                          ''''####''''         
             ,#######,   #######,   ,#######,      ##                                
            ,#'     '#,  ##    ##  ,#'     '#,    #''#        ######   ,####,        
            ##       ##  ##   ,#'  ##            #'  '#       #        #'  '#        
            ##       ##  #######   ##           ,######,      #####,   #    #        
            '#,     ,#'  ##    ##  '#,     ,#' ,#      #,         ##   #,  ,#        
             '#######'   ##     ##  '#######'  #'      '#     #####' # '####'        



                  #######################################################
                  #                        -***-                        #
                  #          Department of theory and spectroscopy      #
                  #    Directorship and core code : Frank Neese         #
                  #        Max Planck Institute fuer Kohlenforschung    #
                  #                Kaiser Wilhelm Platz 1               #
                  #                 D-45470 Muelheim/Ruhr               #
                  #                      Germany                        #
                  #                                                     #
                  #                  All rights reserved                #
                  #                        -***-                        #
                  #######################################################


                         Program Version 5.0.0 -  RELEASE  -
                                (SVN: $Rev: 19529$)
                ($Date: 2021-06-28 11:36:33 +0200 (Mo, 28 Jun 2021) $)


 With contributions from (in alphabetic order):
   Daniel Aravena         : Magnetic Suceptibility
   Michael Atanasov       : Ab Initio Ligand Field Theory (pilot matlab implementation)
   Alexander A. Auer      : GIAO ZORA, VPT2 properties, NMR spectrum
   Ute Becker             : Parallelization
   Giovanni Bistoni       : ED, misc. LED, open-shell LED, HFLD
   Martin Brehm           : Molecular dynamics
   Dmytro Bykov           : SCF Hessian
   Vijay G. Chilkuri      : MRCI spin determinant printing, contributions to CSF-ICE
   Dipayan Datta          : RHF DLPNO-CCSD density
   Achintya Kumar Dutta   : EOM-CC, STEOM-CC
   Dmitry Ganyushin       : Spin-Orbit,Spin-Spin,Magnetic field MRCI
   Miquel Garcia          : C-PCM Hessian, Gaussian charge scheme
   Yang Guo               : DLPNO-NEVPT2, F12-NEVPT2, CIM, IAO-localization
   Andreas Hansen         : Spin unrestricted coupled pair/coupled cluster methods
   Benjamin Helmich-Paris : MC-RPA, TRAH-SCF, COSX integrals
   Lee Huntington         : MR-EOM, pCC
   Robert Izsak           : Overlap fitted RIJCOSX, COSX-SCS-MP3, EOM
   Marcus Kettner         : VPT2
   Christian Kollmar      : KDIIS, OOCD, Brueckner-CCSD(T), CCSD density, CASPT2, CASPT2-K
   Simone Kossmann        : Meta GGA functionals, TD-DFT gradient, OOMP2, MP2 Hessian
   Martin Krupicka        : Initial AUTO-CI
   Lucas Lang             : DCDCAS
   Marvin Lechner         : AUTO-CI (C++ implementation), FIC-MRCC
   Dagmar Lenk            : GEPOL surface, SMD
   Dimitrios Liakos       : Extrapolation schemes; Compound Job, initial MDCI parallelization
   Dimitrios Manganas     : Further ROCIS development; embedding schemes
   Dimitrios Pantazis     : SARC Basis sets
   Anastasios Papadopoulos: AUTO-CI, single reference methods and gradients
   Taras Petrenko         : DFT Hessian,TD-DFT gradient, ASA, ECA, R-Raman, ABS, FL, XAS/XES, NRVS
   Peter Pinski           : DLPNO-MP2, DLPNO-MP2 Gradient
   Christoph Reimann      : Effective Core Potentials
   Marius Retegan         : Local ZFS, SOC
   Christoph Riplinger    : Optimizer, TS searches, QM/MM, DLPNO-CCSD(T), (RO)-DLPNO pert. Triples
   Tobias Risthaus        : Range-separated hybrids, TD-DFT gradient, RPA, STAB
   Michael Roemelt        : Original ROCIS implementation
   Masaaki Saitow         : Open-shell DLPNO-CCSD energy and density
   Barbara Sandhoefer     : DKH picture change effects
   Avijit Sen             : IP-ROCIS
   Kantharuban Sivalingam : CASSCF convergence, NEVPT2, FIC-MRCI
   Bernardo de Souza      : ESD, SOC TD-DFT
   Georgi Stoychev        : AutoAux, RI-MP2 NMR
   Willem Van den Heuvel  : Paramagnetic NMR
   Boris Wezisla          : Elementary symmetry handling
   Frank Wennmohs         : Technical directorship


 We gratefully acknowledge several colleagues who have allowed us to
 interface, adapt or use parts of their codes:
   Stefan Grimme, W. Hujo, H. Kruse, P. Pracht,  : VdW corrections, initial TS optimization,
                  C. Bannwarth, S. Ehlert          DFT functionals, gCP, sTDA/sTD-DF
   Ed Valeev, F. Pavosevic, A. Kumar             : LibInt (2-el integral package), F12 methods
   Garnet Chan, S. Sharma, J. Yang, R. Olivares  : DMRG
   Ulf Ekstrom                                   : XCFun DFT Library
   Mihaly Kallay                                 : mrcc  (arbitrary order and MRCC methods)
   Jiri Pittner, Ondrej Demel                    : Mk-CCSD
   Frank Weinhold                                : gennbo (NPA and NBO analysis)
   Christopher J. Cramer and Donald G. Truhlar   : smd solvation model
   Lars Goerigk                                  : TD-DFT with DH, B97 family of functionals
   V. Asgeirsson, H. Jonsson                     : NEB implementation
   FAccTs GmbH                                   : IRC, NEB, NEB-TS, DLPNO-Multilevel, CI-OPT
                                                   MM, QMMM, 2- and 3-layer-ONIOM, Crystal-QMMM,
                                                   LR-CPCM, SF, NACMEs, symmetry and pop. for TD-DFT,
                                                   nearIR, NL-DFT gradient (VV10), updates on ESD,
                                                   ML-optimized integration grids
   S Lehtola, MJT Oliveira, MAL Marques          : LibXC Library
   Liviu Ungur et al                             : ANISO software


 Your calculation uses the libint2 library for the computation of 2-el integrals
 For citations please refer to: http://libint.valeyev.net

 Your ORCA version has been built with support for libXC version: 5.1.0
 For citations please refer to: https://tddft.org/programs/libxc/

 This ORCA versions uses:
   CBLAS   interface :  Fast vector & matrix operations
   LAPACKE interface :  Fast linear algebra routines
   SCALAPACK package :  Parallel linear algebra routines
   Shared memory     :  Shared parallel matrices
   BLAS/LAPACK       :  OpenBLAS 0.3.15  USE64BITINT DYNAMIC_ARCH NO_AFFINITY SkylakeX SINGLE_THREADED
        Core in use  :  SkylakeX
   Copyright (c) 2011-2014, The OpenBLAS Project


================================================================================

----- Orbital basis set information -----
Your calculation utilizes the basis: cc-pVTZ 
       H, B-Ne : Obtained from the ccRepo (grant-hill.group.shef.ac.uk/ccrepo) Feb. 2017
                 T. H. Dunning, Jr., J. Chem. Phys. 90, 1007 (1989)
            He : Obtained from the ccRepo (grant-hill.group.shef.ac.uk/ccrepo) Feb. 2017
                 D. E. Woon, T. H. Dunning, Jr., J. Chem. Phys. 100, 2975 (1994)
  Li-Be, Na-Mg : Obtained from the ccRepo (grant-hill.group.shef.ac.uk/ccrepo) Feb. 2017
                 B. P. Prascher, D. E. Woon, K. A. Peterson, T. H. Dunning, Jr., A. K. Wilson, Theor. Chem. Acc. 128, 69 (2011)
         Al-Ar : Obtained from the ccRepo (grant-hill.group.shef.ac.uk/ccrepo) Feb. 2017
                 D. E. Woon, T. H. Dunning, Jr., J. Chem. Phys. 98, 1358 (1993)
            Ca : Obtained from the Peterson Research Group Website (tyr0.chem.wsu.edu/~kipeters) Feb. 2017
                 J. Koput, K. A. Peterson, J. Phys. Chem. 106, 9595 (2002)
         Sc-Zn : Obtained from the ccRepo (grant-hill.group.shef.ac.uk/ccrepo) Feb. 2017
                 N. B. Balabanov, K. A. Peterson, J. Chem. Phys. 123, 064107 (2005)
                 N. B. Balabanov, K. A. Peterson, J. Chem. Phys. 125, 074110 (2006)
         Ga-Kr : Obtained from the ccRepo (grant-hill.group.shef.ac.uk/ccrepo) Feb. 2017
                 A. K. Wilson, D. E. Woon, K. A. Peterson, T. H. Dunning, Jr., J. Chem. Phys. 110, 7667 (1999)
             Y : Obtained from the ccRepo (grant-hill.group.shef.ac.uk/ccrepo) Feb. 2017
                 K. A. Peterson, D. Figgen, M. Dolg, H. Stoll, J. Chem. Phys. 126, 124101 (2007)
        Ag, Au : Obtained from the Peterson Research Group Website (tyr0.chem.wsu.edu/~kipeters) Feb. 2017
                 K. A. Peterson, C. Puzzarini, Theor. Chem. Acc. 114, 283 (2005)

----- AuxC basis set information -----
Your calculation utilizes the auxiliary basis: cc-pVTZ/C 
  Obtained from the EMSL Basis Set Exchange (bse.pnl.gov) Feb. 2017
  H-He, B-F, Al-Ar, Ga-Kr : F. Weigend, A. Kohn, C. Hattig, J. Chem. Phys. 116, 3175 (2002)
             Li-Be, Na-Mg : C. Haettig, Phys. Chem. Chem. Phys. 7, 59 (2005)
                       Ne : C. Haettig, Phys. Chem. Chem. Phys. 7, 59 (2005)
                            F. Weigend, A. Kohn, C. Hattig, J. Chem. Phys. 116, 3175 (2002)
                    Sc-Zn : J. G. Hill, J. A. Platts, J. Chem. Phys. 128, 044104 (2008)

================================================================================
                                        WARNINGS
                       Please study these warnings very carefully!
================================================================================


WARNING: No MP2 level density has been requested!
         To caclulate MP2 level properties use
         %mp2 Density relaxed end
         or
         %mp2 Density unrelaxed end

WARNING: Post HF methods need fully converged wavefunctions
  ===> : Setting SCFConvForced true
         You can overwrite this default with %scf ConvForced false 


INFO   : the flag for use of the SHARK integral package has been found!

================================================================================
                                       INPUT FILE
================================================================================
NAME = qm_input.solv
|  1> ! RI-MP2 cc-pVTZ cc-pVTZ/c TightSCF KeepDens NoKeepInts
|  2> 
|  3> %pointcharges "srfp_output"
|  4> 
|  5> *xyz  0  1
|  6>     C   -16.4367196   -2.1279441    7.3340740
|  7>     C   -16.3752573   -3.4075912    8.2338759
|  8>     O   -15.8220352   -3.0171988    9.5596505
|  9>     C   -15.7579959   -3.9722846   10.5300779
| 10>     O   -16.4199030   -5.0220209   10.6273166
| 11>     C   -14.8928977   -3.4830244   11.7232149
| 12>     C   -13.8986726   -2.5455074   11.5880732
| 13>     C   -13.3434038   -1.8986088   10.3093198
| 14>     N   -13.3865677   -2.0906947   12.8010511
| 15>     C   -13.7049561   -2.5938581   14.0279900
| 16>     S   -13.0881259   -2.0493889   15.5114444
| 17>     N   -14.6403251   -3.5223417   14.1366314
| 18>     C   -15.4520008   -3.9436502   13.0529995
| 19>     C   -16.8924228   -3.6415790   13.3390682
| 20>     C   -17.3442061   -2.3783662   13.5274584
| 21>     C   -18.6727741   -2.1398339   13.8453254
| 22>     C   -19.4829814   -3.2372558   13.9280649
| 23>     C   -19.0516971   -4.5475259   13.9097340
| 24>     O   -20.0036456   -5.5085316   14.0097280
| 25>     C   -17.7689533   -4.7337384   13.5271991
| 26>     H   -17.0524033   -1.3692166    7.8325315
| 27>     H   -16.9763943   -2.4555636    6.4370755
| 28>     H   -15.4126886   -1.7915864    7.1305540
| 29>     H   -17.4041474   -3.6936497    8.4843708
| 30>     H   -15.9036432   -4.2682805    7.7439944
| 31>     H   -13.0459742   -2.7112111    9.6352251
| 32>     H   -12.3881682   -1.3944330   10.5004250
| 33>     H   -14.1168748   -1.2903017    9.8246596
| 34>     H   -12.7862443   -1.2760772   12.8455087
| 35>     H   -14.8849315   -3.8071964   15.0773715
| 36>     H   -15.3877440   -5.0381556   13.0195521
| 37>     H   -16.6501430   -1.5491348   13.4271665
| 38>     H   -19.1139689   -1.1474916   13.8450564
| 39>     H   -20.5075122   -2.9489352   14.1439440
| 40>     H   -19.6351901   -6.3408304   13.6658555
| 41>     H   -17.3841648   -5.7486763   13.4920514
| 42> *
| 43> 
| 44>                          ****END OF INPUT****
================================================================================

                       ****************************
                       * Single Point Calculation *
                       ****************************

---------------------------------
CARTESIAN COORDINATES (ANGSTROEM)
---------------------------------
  C    -16.436720   -2.127944    7.334074
  C    -16.375257   -3.407591    8.233876
  O    -15.822035   -3.017199    9.559651
  C    -15.757996   -3.972285   10.530078
  O    -16.419903   -5.022021   10.627317
  C    -14.892898   -3.483024   11.723215
  C    -13.898673   -2.545507   11.588073
  C    -13.343404   -1.898609   10.309320
  N    -13.386568   -2.090695   12.801051
  C    -13.704956   -2.593858   14.027990
  S    -13.088126   -2.049389   15.511444
  N    -14.640325   -3.522342   14.136631
  C    -15.452001   -3.943650   13.053000
  C    -16.892423   -3.641579   13.339068
  C    -17.344206   -2.378366   13.527458
  C    -18.672774   -2.139834   13.845325
  C    -19.482981   -3.237256   13.928065
  C    -19.051697   -4.547526   13.909734
  O    -20.003646   -5.508532   14.009728
  C    -17.768953   -4.733738   13.527199
  H    -17.052403   -1.369217    7.832531
  H    -16.976394   -2.455564    6.437075
  H    -15.412689   -1.791586    7.130554
  H    -17.404147   -3.693650    8.484371
  H    -15.903643   -4.268280    7.743994
  H    -13.045974   -2.711211    9.635225
  H    -12.388168   -1.394433   10.500425
  H    -14.116875   -1.290302    9.824660
  H    -12.786244   -1.276077   12.845509
  H    -14.884932   -3.807196   15.077371
  H    -15.387744   -5.038156   13.019552
  H    -16.650143   -1.549135   13.427167
  H    -19.113969   -1.147492   13.845056
  H    -20.507512   -2.948935   14.143944
  H    -19.635190   -6.340830   13.665855
  H    -17.384165   -5.748676   13.492051

----------------------------
CARTESIAN COORDINATES (A.U.)
----------------------------
  NO LB      ZA    FRAG     MASS         X           Y           Z
   0 C     6.0000    0    12.011  -31.060899   -4.021232   13.859391
   1 C     6.0000    0    12.011  -30.944752   -6.439414   15.559770
   2 O     8.0000    0    15.999  -29.899313   -5.701679   18.065121
   3 C     6.0000    0    12.011  -29.778297   -7.506530   19.898963
   4 O     8.0000    0    15.999  -31.029120   -9.490244   20.082718
   5 C     6.0000    0    12.011  -28.143498   -6.581962   22.153666
   6 C     6.0000    0    12.011  -26.264685   -4.810312   21.898285
   7 C     6.0000    0    12.011  -25.215379   -3.587851   19.481791
   8 N     7.0000    0    14.007  -25.296947   -3.950840   24.190481
   9 C     6.0000    0    12.011  -25.898614   -4.901681   26.509059
  10 S    16.0000    0    32.060  -24.732974   -3.872784   29.312382
  11 N     7.0000    0    14.007  -27.666205   -6.656261   26.714362
  12 C     6.0000    0    12.011  -29.200050   -7.452419   24.666594
  13 C     6.0000    0    12.011  -31.922053   -6.881587   25.207186
  14 C     6.0000    0    12.011  -32.775800   -4.494461   25.563192
  15 C     6.0000    0    12.011  -35.286429   -4.043700   26.163873
  16 C     6.0000    0    12.011  -36.817499   -6.117527   26.320228
  17 C     6.0000    0    12.011  -36.002490   -8.593579   26.285588
  18 O     8.0000    0    15.999  -37.801412  -10.409616   26.474549
  19 C     6.0000    0    12.011  -33.578455   -8.945469   25.562702
  20 H     1.0000    0     1.008  -32.224372   -2.587444   14.801339
  21 H     1.0000    0     1.008  -32.080736   -4.640343   12.164310
  22 H     1.0000    0     1.008  -29.125760   -3.385608   13.474794
  23 H     1.0000    0     1.008  -32.889072   -6.979986   16.033137
  24 H     1.0000    0     1.008  -30.053530   -8.065881   14.634029
  25 H     1.0000    0     1.008  -24.653318   -5.123446   18.207937
  26 H     1.0000    0     1.008  -23.410245   -2.635096   19.842928
  27 H     1.0000    0     1.008  -26.677027   -2.438317   18.565916
  28 H     1.0000    0     1.008  -24.162500   -2.411436   24.274493
  29 H     1.0000    0     1.008  -28.128444   -7.194559   28.492103
  30 H     1.0000    0     1.008  -29.078622   -9.520734   24.603388
  31 H     1.0000    0     1.008  -31.464210   -2.927441   25.373667
  32 H     1.0000    0     1.008  -36.120167   -2.168445   26.163365
  33 H     1.0000    0     1.008  -38.753582   -5.572680   26.728181
  34 H     1.0000    0     1.008  -37.105132  -11.982433   25.824724
  35 H     1.0000    0     1.008  -32.851311  -10.863424   25.496282

--------------------------------
INTERNAL COORDINATES (ANGSTROEM)
--------------------------------
 C      0   0   0     0.000000000000     0.00000000     0.00000000
 C      1   0   0     1.565540728983     0.00000000     0.00000000
 O      2   1   0     1.488670281799   108.18583635     0.00000000
 C      3   2   1     1.363091800275   117.88777131   176.09796752
 O      4   3   2     1.244798246041   128.42653332   337.53772900
 C      4   3   2     1.552851035907   110.63563061   168.00286787
 C      6   4   3     1.373202444594   122.87746823   333.88716541
 C      7   6   4     1.536883696623   129.11197292   353.81955670
 N      7   6   4     1.392990095648   113.78997240   170.42374951
 C      9   7   6     1.363790176195   125.24730479     6.64929245
 S     10   9   7     1.696338162708   125.69287418   179.97666624
 N     10   9   7     1.322421988408   119.87289509   354.73869780
 C     12  10   9     1.417947949976   123.41634486   353.12118541
 C     13  12  10     1.499299119280   110.13735307   242.31001318
 C     14  13  12     1.354734511149   122.32938488    61.66462126
 C     15  14  13     1.386733578758   120.78127595   182.70793340
 C     16  15  14     1.366607668804   116.34289418   358.78540451
 C     17  16  15     1.379546992413   125.20837475     9.68672781
 O     18  17  16     1.356368940267   116.90684099   179.65840810
 C     18  17  16     1.351458360924   115.55391450   346.88511618
 H      1   2   3     1.096901872096   109.04064323   302.25747131
 H      1   2   3     1.096900008024   104.19315818   187.61998497
 H      1   2   3     1.096903086745   108.70126861    66.26723214
 H      2   1   3     1.096901088625   107.91422400   110.02763038
 H      2   1   3     1.096900093215   113.67548811   229.15481616
 H      8   7   6     1.096900419131   107.30590659   306.11524759
 H      8   7   6     1.096899943605   111.29325230   195.06855222
 H      8   7   6     1.096900371600   110.26096132    65.06363486
 H      9   7   6     1.012899962529   121.24453341   192.20496300
 H     12  10   9     1.012900008284   116.39536787   184.56284425
 H     13  12  10     1.096900057226   106.63340021   128.60346564
 H     15  14  13     1.086004957048   119.07840573     2.65078609
 H     16  15  14     1.086000075634   123.11598181   190.34434400
 H     17  16  15     1.085999960566   110.98627138   182.11988562
 H     19  18  17     0.973000022722   108.31451608   159.56890164
 H     20  18  17     1.086000226245   118.30943052   180.29500550

---------------------------
INTERNAL COORDINATES (A.U.)
---------------------------
 C      0   0   0     0.000000000000     0.00000000     0.00000000
 C      1   0   0     2.958443229277     0.00000000     0.00000000
 O      2   1   0     2.813179136307   108.18583635     0.00000000
 C      3   2   1     2.575870197913   117.88777131   176.09796752
 O      4   3   2     2.352327777002   128.42653332   337.53772900
 C      4   3   2     2.934463184639   110.63563061   168.00286787
 C      6   4   3     2.594976546713   122.87746823   333.88716541
 C      7   6   4     2.904289286307   129.11197292   353.81955670
 N      7   6   4     2.632369788040   113.78997240   170.42374951
 C      9   7   6     2.577189937142   125.24730479     6.64929245
 S     10   9   7     3.205614558038   125.69287418   179.97666624
 N     10   9   7     2.499015391566   119.87289509   354.73869780
 C     12  10   9     2.679533297609   123.41634486   353.12118541
 C     13  12  10     2.833264728268   110.13735307   242.31001318
 C     14  13  12     2.560077210244   122.32938488    61.66462126
 C     15  14  13     2.620546684566   120.78127595   182.70793340
 C     16  15  14     2.582514226556   116.34289418   358.78540451
 C     17  16  15     2.606966004535   125.20837475     9.68672781
 O     18  17  16     2.563165833661   116.90684099   179.65840810
 C     18  17  16     2.553886183545   115.55391450   346.88511618
 H      1   2   3     2.072844134047   109.04064323   302.25747131
 H      1   2   3     2.072840611461   104.19315818   187.61998497
 H      1   2   3     2.072846429401   108.70126861    66.26723214
 H      2   1   3     2.072842653501   107.91422400   110.02763038
 H      2   1   3     2.072840772449   113.67548811   229.15481616
 H      8   7   6     2.072841388341   107.30590659   306.11524759
 H      8   7   6     2.072840489727   111.29325230   195.06855222
 H      8   7   6     2.072841298520   110.26096132    65.06363486
 H      9   7   6     1.914103530239   121.24453341   192.20496300
 H     12  10   9     1.914103616703   116.39536787   184.56284425
 H     13  12  10     2.072840704439   106.63340021   128.60346564
 H     15  14  13     2.052251948902   119.07840573     2.65078609
 H     16  15  14     2.052242724366   123.11598181   190.34434400
 H     17  16  15     2.052242506919   110.98627138   182.11988562
 H     19  18  17     1.838703571245   108.31451608   159.56890164
 H     20  18  17     2.052243008979   118.30943052   180.29500550

---------------------
BASIS SET INFORMATION
---------------------
There are 5 groups of distinct atoms

 Group   1 Type C   : 18s5p2d1f contracted to 4s3p2d1f pattern {8811/311/11/1}
 Group   2 Type O   : 18s5p2d1f contracted to 4s3p2d1f pattern {8811/311/11/1}
 Group   3 Type N   : 18s5p2d1f contracted to 4s3p2d1f pattern {8811/311/11/1}
 Group   4 Type S   : 41s16p2d1f contracted to 5s4p2d1f pattern {13131311/7711/11/1}
 Group   5 Type H   : 5s2p1d contracted to 3s2p1d pattern {311/11/1}

Atom   0C    basis set group =>   1
Atom   1C    basis set group =>   1
Atom   2O    basis set group =>   2
Atom   3C    basis set group =>   1
Atom   4O    basis set group =>   2
Atom   5C    basis set group =>   1
Atom   6C    basis set group =>   1
Atom   7C    basis set group =>   1
Atom   8N    basis set group =>   3
Atom   9C    basis set group =>   1
Atom  10S    basis set group =>   4
Atom  11N    basis set group =>   3
Atom  12C    basis set group =>   1
Atom  13C    basis set group =>   1
Atom  14C    basis set group =>   1
Atom  15C    basis set group =>   1
Atom  16C    basis set group =>   1
Atom  17C    basis set group =>   1
Atom  18O    basis set group =>   2
Atom  19C    basis set group =>   1
Atom  20H    basis set group =>   5
Atom  21H    basis set group =>   5
Atom  22H    basis set group =>   5
Atom  23H    basis set group =>   5
Atom  24H    basis set group =>   5
Atom  25H    basis set group =>   5
Atom  26H    basis set group =>   5
Atom  27H    basis set group =>   5
Atom  28H    basis set group =>   5
Atom  29H    basis set group =>   5
Atom  30H    basis set group =>   5
Atom  31H    basis set group =>   5
Atom  32H    basis set group =>   5
Atom  33H    basis set group =>   5
Atom  34H    basis set group =>   5
Atom  35H    basis set group =>   5
---------------------------------
AUXILIARY/C BASIS SET INFORMATION
---------------------------------
There are 5 groups of distinct atoms

 Group   1 Type C   : 8s6p5d3f1g contracted to 8s6p5d3f1g pattern {11111111/111111/11111/111/1}
 Group   2 Type O   : 8s6p5d3f1g contracted to 8s6p5d3f1g pattern {11111111/111111/11111/111/1}
 Group   3 Type N   : 8s6p5d3f1g contracted to 8s6p5d3f1g pattern {11111111/111111/11111/111/1}
 Group   4 Type S   : 10s8p7d5f2g contracted to 10s8p7d5f2g pattern {1111111111/11111111/1111111/11111/11}
 Group   5 Type H   : 4s3p2d1f contracted to 4s3p2d1f pattern {1111/111/11/1}

Atom   0C    basis set group =>   1
Atom   1C    basis set group =>   1
Atom   2O    basis set group =>   2
Atom   3C    basis set group =>   1
Atom   4O    basis set group =>   2
Atom   5C    basis set group =>   1
Atom   6C    basis set group =>   1
Atom   7C    basis set group =>   1
Atom   8N    basis set group =>   3
Atom   9C    basis set group =>   1
Atom  10S    basis set group =>   4
Atom  11N    basis set group =>   3
Atom  12C    basis set group =>   1
Atom  13C    basis set group =>   1
Atom  14C    basis set group =>   1
Atom  15C    basis set group =>   1
Atom  16C    basis set group =>   1
Atom  17C    basis set group =>   1
Atom  18O    basis set group =>   2
Atom  19C    basis set group =>   1
Atom  20H    basis set group =>   5
Atom  21H    basis set group =>   5
Atom  22H    basis set group =>   5
Atom  23H    basis set group =>   5
Atom  24H    basis set group =>   5
Atom  25H    basis set group =>   5
Atom  26H    basis set group =>   5
Atom  27H    basis set group =>   5
Atom  28H    basis set group =>   5
Atom  29H    basis set group =>   5
Atom  30H    basis set group =>   5
Atom  31H    basis set group =>   5
Atom  32H    basis set group =>   5
Atom  33H    basis set group =>   5
Atom  34H    basis set group =>   5
Atom  35H    basis set group =>   5
------------------------------------------------------------------------------
                           ORCA GTO INTEGRAL CALCULATION
------------------------------------------------------------------------------
------------------------------------------------------------------------------
                   ___                                                        
                  /   \      - P O W E R E D   B Y -                         
                 /     \                                                     
                 |  |  |   _    _      __       _____    __    __             
                 |  |  |  | |  | |    /  \     |  _  \  |  |  /  |          
                  \  \/   | |  | |   /    \    | | | |  |  | /  /          
                 / \  \   | |__| |  /  /\  \   | |_| |  |  |/  /          
                |  |  |   |  __  | /  /__\  \  |    /   |      \           
                |  |  |   | |  | | |   __   |  |    \   |  |\   \          
                \     /   | |  | | |  |  |  |  | |\  \  |  | \   \       
                 \___/    |_|  |_| |__|  |__|  |_| \__\ |__|  \__/        
                                                                              
                      - O R C A' S   B I G   F R I E N D -                    
                                      &                                       
                       - I N T E G R A L  F E E D E R -                       
                                                                              
 v1 FN, 2020, v2 2021                                                         
------------------------------------------------------------------------------


Reading SHARK input file qm_input.solv.SHARKINP.tmp ... ok
----------------------
SHARK INTEGRAL PACKAGE
----------------------

Number of atoms                             ...     36
Number of basis functions                   ...    828
Number of shells                            ...    298
Maximum angular momentum                    ...      3
Integral batch strategy                     ... SHARK/LIBINT Hybrid
RI-J (if used) integral strategy            ... SPLIT-RIJ (Revised 2003 algorithm where possible)
Printlevel                                  ...      1
Contraction scheme used                     ... SEGMENTED contraction
Coulomb Range Separation                    ... NOT USED
Exchange Range Separation                   ... NOT USED
Finite Nucleus Model                        ... NOT USED
Auxiliary Coulomb fitting basis             ... NOT available
Auxiliary J/K fitting basis                 ... NOT available
Auxiliary Correlation fitting basis         ... AVAILABLE
   # of basis functions in Aux-C            ...   2141
   # of shells in Aux-C                     ...    629
   Maximum angular momentum in Aux-C        ...      4
Auxiliary 'external' fitting basis          ... NOT available
Integral threshold                          ...     2.500000e-11
Primitive cut-off                           ...     2.500000e-12
Primitive pair pre-selection threshold      ...     2.500000e-12

Calculating pre-screening integrals         ... done (  0.6 sec) Dimension = 298
Organizing shell pair data                  ... done (  0.4 sec)
Shell pair information
Total number of shell pairs                 ...     44551
Shell pairs after pre-screening             ...     32230
Total number of primitive shell pairs       ...    234348
Primitive shell pairs kept                  ...     93210
          la=0 lb=0:   6466 shell pairs
          la=1 lb=0:   8974 shell pairs
          la=1 lb=1:   3169 shell pairs
          la=2 lb=0:   5138 shell pairs
          la=2 lb=1:   3518 shell pairs
          la=2 lb=2:    993 shell pairs
          la=3 lb=0:   1855 shell pairs
          la=3 lb=1:   1265 shell pairs
          la=3 lb=2:    709 shell pairs
          la=3 lb=3:    143 shell pairs

Reading point charge file                   ... ok (45295 point charges)
Calculating one electron integrals          ... done (225.8 sec)
Calculating RI/C V-Matrix + Cholesky decomp.... done (  0.5 sec)
Calculating Nuclear repulsion               ... (+Point charges) done (  0.0 sec) ENN=   1491.036610919552 Eh

SHARK setup successfully completed in 227.4 seconds

Maximum memory used throughout the entire GTOINT-calculation: 476.4 MB
ENUC WAS=  0.000000000
ENUC IS =  0.000000000
-------------------------------------------------------------------------------
                                 ORCA SCF
-------------------------------------------------------------------------------

------------
SCF SETTINGS
------------
Hamiltonian:
 Ab initio Hamiltonian  Method          .... Hartree-Fock(GTOs)


General Settings:
 Integral files         IntName         .... qm_input.solv
 Hartree-Fock type      HFTyp           .... RHF
 Total Charge           Charge          ....    0
 Multiplicity           Mult            ....    1
 Number of Electrons    NEL             ....  154
 Basis Dimension        Dim             ....  828
 Nuclear Repulsion      ENuc            ....   1491.0366109196 Eh

Convergence Acceleration:
 DIIS                   CNVDIIS         .... on
   Start iteration      DIISMaxIt       ....    12
   Startup error        DIISStart       ....  0.200000
   # of expansion vecs  DIISMaxEq       ....     5
   Bias factor          DIISBfac        ....   1.050
   Max. coefficient     DIISMaxC        ....  10.000
 Trust-Rad. Augm. Hess. CNVTRAH         .... auto
   Auto Start mean grad. ratio tolernc. ....  1.125000
   Auto Start start iteration           ....    20
   Auto Start num. interpolation iter.  ....    10
   Max. Number of Micro iterations      ....    16
   Max. Number of Macro iterations      .... Maxiter - #DIIS iter
   Number of Davidson start vectors     ....     2
   Converg. threshold I  (grad. norm)   ....   1.000e-05
   Converg. threshold II (energy diff.) ....   1.000e-08
   Grad. Scal. Fac. for Micro threshold ....   0.100
   Minimum threshold for Micro iter.    ....   0.010
   NR start threshold (gradient norm)   ....   0.001
   Initial trust radius                 ....   0.400
   Minimum AH scaling param. (alpha)    ....   1.000
   Maximum AH scaling param. (alpha)    .... 1000.000
   Orbital update algorithm             .... Taylor
   White noise on init. David. guess    .... on
   Maximum white noise                  ....   0.010
   Quad. conv. algorithm                .... NR
 SOSCF                  CNVSOSCF        .... on
   Start iteration      SOSCFMaxIt      ....   150
   Startup grad/error   SOSCFStart      ....  0.003300
 Level Shifting         CNVShift        .... on
   Level shift para.    LevelShift      ....    0.2500
   Turn off err/grad.   ShiftErr        ....    0.0010
 Zerner damping         CNVZerner       .... off
 Static damping         CNVDamp         .... on
   Fraction old density DampFac         ....    0.7000
   Max. Damping (<1)    DampMax         ....    0.9800
   Min. Damping (>=0)   DampMin         ....    0.0000
   Turn off err/grad.   DampErr         ....    0.1000
 Fernandez-Rico         CNVRico         .... off

SCF Procedure:
 Maximum # iterations   MaxIter         ....   125
 SCF integral mode      SCFMode         .... Direct
   Integral package                     .... SHARK and LIBINT hybrid scheme
 Reset frequency        DirectResetFreq ....    20
 Integral Threshold     Thresh          ....  2.500e-11 Eh
 Primitive CutOff       TCut            ....  2.500e-12 Eh

Convergence Tolerance:
 Convergence Check Mode ConvCheckMode   .... Total+1el-Energy
 Convergence forced     ConvForced      .... 1
 Energy Change          TolE            ....  1.000e-08 Eh
 1-El. energy change                    ....  1.000e-05 Eh
 Orbital Gradient       TolG            ....  1.000e-05
 Orbital Rotation angle TolX            ....  1.000e-05
 DIIS Error             TolErr          ....  5.000e-07


Diagonalization of the overlap matrix:
Smallest eigenvalue                        ... 4.301e-05
Time for diagonalization                   ...    0.133 sec
Threshold for overlap eigenvalues          ... 1.000e-08
Number of eigenvalues below threshold      ... 0
Time for construction of square roots      ...    0.062 sec
Total time needed                          ...    0.199 sec

Time for model grid setup =    1.413 sec

------------------------------
INITIAL GUESS: MODEL POTENTIAL
------------------------------
Loading Hartree-Fock densities                     ... done
Calculating cut-offs                               ... done
Initializing the effective Hamiltonian             ... done
Setting up the integral package (SHARK)            ... done
Starting the Coulomb interaction                   ... done (   3.8 sec)
Reading the grid                                   ... done
Mapping shells                                     ... done
Starting the XC term evaluation                    ... done (   1.4 sec)
Transforming the Hamiltonian                       ... done (   0.1 sec)
Diagonalizing the Hamiltonian                      ... done (   0.1 sec)
Back transforming the eigenvectors                 ... done (   0.0 sec)
Now organizing SCF variables                       ... done
                      ------------------
                      INITIAL GUESS DONE (   6.9 sec)
                      ------------------
--------------
SCF ITERATIONS
--------------
ITER       Energy         Delta-E        Max-DP      RMS-DP      [F,P]     Damp
               ***  Starting incremental Fock matrix formation  ***
  0  -1270.0344252764   0.000000000000 0.05468215  0.00050122  0.3557471 0.7000
  1  -1270.3334874570  -0.299062180602 0.05026788  0.00041123  0.2023934 0.7000
                               ***Turning on DIIS***
  2  -1270.5177930938  -0.184305636797 0.02783803  0.00026992  0.1110352 0.7000
  3  -1272.5830565639  -2.065263470029 0.06470184  0.00055755  0.0846650 0.0000
  4  -1270.8660381143   1.717018449539 0.01656461  0.00011575  0.0068774 0.0000
  5  -1270.9208021805  -0.054764066225 0.00500686  0.00005889  0.0048158 0.0000
  6  -1270.8967288807   0.024073299833 0.00317621  0.00002941  0.0034650 0.0000
                      *** Initiating the SOSCF procedure ***
                           *** Shutting down DIIS ***
                      *** Re-Reading the Fockian *** 
                      *** Removing any level shift *** 
ITER      Energy       Delta-E        Grad      Rot      Max-DP    RMS-DP
  7  -1270.91341717  -0.0166882919  0.001235  0.001235  0.001899  0.000016
               *** Restarting incremental Fock matrix formation ***
  8  -1270.91556604  -0.0021488647  0.000553  0.001149  0.000830  0.000009
  9  -1270.91558148  -0.0000154474  0.000232  0.001210  0.001508  0.000011
 10  -1270.91558752  -0.0000060350  0.000073  0.000141  0.000178  0.000002
 11  -1270.91558813  -0.0000006057  0.000042  0.000089  0.000083  0.000001
 12  -1270.91558824  -0.0000001112  0.000020  0.000062  0.000065  0.000000
 13  -1270.91558826  -0.0000000225  0.000008  0.000044  0.000019  0.000000
                  ***Gradient check signals convergence***
              ***Rediagonalizing the Fockian in SOSCF/NRSCF***

               *****************************************************
               *                     SUCCESS                       *
               *           SCF CONVERGED AFTER  14 CYCLES          *
               *****************************************************


----------------
TOTAL SCF ENERGY
----------------

Total Energy       :        -1270.91558826 Eh          -34583.37134 eV

Components:
Nuclear Repulsion  :         1491.03661092 Eh           40573.16888 eV
Electronic Energy  :        -2761.95219918 Eh          -75156.54022 eV
One Electron Energy:        -4898.82903486 Eh         -133303.91508 eV
Two Electron Energy:         2136.87683568 Eh           58147.37485 eV

Virial components:
Potential Energy   :        -2540.30087958 Eh          -69125.10119 eV
Kinetic Energy     :         1269.38529132 Eh           34541.72984 eV
Virial Ratio       :            2.00120554


---------------
SCF CONVERGENCE
---------------

  Last Energy change         ...   -3.3897e-09  Tolerance :   1.0000e-08
  Last MAX-Density change    ...    1.0349e-05  Tolerance :   1.0000e-07
  Last RMS-Density change    ...    6.5230e-08  Tolerance :   5.0000e-09
  Last Orbital Gradient      ...    2.4998e-06  Tolerance :   1.0000e-05
  Last Orbital Rotation      ...    6.1568e-06  Tolerance :   1.0000e-05

             **** THE GBW FILE WAS UPDATED (qm_input.solv.gbw) ****
             **** DENSITY qm_input.solv.scfp WAS UPDATED ****
             **** ENERGY FILE WAS UPDATED (qm_input.solv.en.tmp) ****
             **** THE GBW FILE WAS UPDATED (qm_input.solv.gbw) ****
             **** DENSITY qm_input.solv.scfp WAS UPDATED ****
----------------
ORBITAL ENERGIES
----------------

  NO   OCC          E(Eh)            E(eV) 
   0   2.0000     -90.643571     -2466.5370 
   1   2.0000     -19.341796      -526.3170 
   2   2.0000     -19.318001      -525.6695 
   3   2.0000     -19.295457      -525.0561 
   4   2.0000     -14.356092      -390.6491 
   5   2.0000     -14.345235      -390.3537 
   6   2.0000     -10.144939      -276.0578 
   7   2.0000     -10.127209      -275.5754 
   8   2.0000     -10.060593      -273.7627 
   9   2.0000     -10.028495      -272.8892 
  10   2.0000     -10.022783      -272.7338 
  11   2.0000     -10.022550      -272.7274 
  12   2.0000      -9.985831      -271.7283 
  13   2.0000      -9.974851      -271.4295 
  14   2.0000      -9.970947      -271.3233 
  15   2.0000      -9.966972      -271.2151 
  16   2.0000      -9.960716      -271.0449 
  17   2.0000      -9.957149      -270.9478 
  18   2.0000      -9.955335      -270.8984 
  19   2.0000      -9.951980      -270.8072 
  20   2.0000      -7.649365      -208.1498 
  21   2.0000      -5.331291      -145.0718 
  22   2.0000      -5.329321      -145.0182 
  23   2.0000      -5.329001      -145.0095 
  24   2.0000      -0.176081        -4.7914 
  25   2.0000      -0.137454        -3.7403 
  26   2.0000      -0.092289        -2.5113 
  27   2.0000      -0.086951        -2.3661 
  28   2.0000       0.013581         0.3696 
  29   2.0000       0.096688         2.6310 
  30   2.0000       0.151896         4.1333 
  31   2.0000       0.224130         6.0989 
  32   2.0000       0.244154         6.6438 
  33   2.0000       0.245776         6.6879 
  34   2.0000       0.275633         7.5003 
  35   2.0000       0.288035         7.8378 
  36   2.0000       0.347456         9.4548 
  37   2.0000       0.393422        10.7056 
  38   2.0000       0.411537        11.1985 
  39   2.0000       0.415877        11.3166 
  40   2.0000       0.450988        12.2720 
  41   2.0000       0.459921        12.5151 
  42   2.0000       0.512414        13.9435 
  43   2.0000       0.525104        14.2888 
  44   2.0000       0.534051        14.5323 
  45   2.0000       0.564923        15.3723 
  46   2.0000       0.577785        15.7223 
  47   2.0000       0.598154        16.2766 
  48   2.0000       0.599141        16.3035 
  49   2.0000       0.611516        16.6402 
  50   2.0000       0.621921        16.9233 
  51   2.0000       0.626924        17.0595 
  52   2.0000       0.636369        17.3165 
  53   2.0000       0.659248        17.9390 
  54   2.0000       0.665926        18.1208 
  55   2.0000       0.674277        18.3480 
  56   2.0000       0.682368        18.5682 
  57   2.0000       0.697547        18.9812 
  58   2.0000       0.703473        19.1425 
  59   2.0000       0.711169        19.3519 
  60   2.0000       0.720825        19.6146 
  61   2.0000       0.729464        19.8497 
  62   2.0000       0.738361        20.0918 
  63   2.0000       0.746760        20.3204 
  64   2.0000       0.752473        20.4758 
  65   2.0000       0.759095        20.6560 
  66   2.0000       0.769788        20.9470 
  67   2.0000       0.771914        21.0048 
  68   2.0000       0.775167        21.0934 
  69   2.0000       0.800057        21.7707 
  70   2.0000       0.803739        21.8709 
  71   2.0000       0.811575        22.0841 
  72   2.0000       0.905788        24.6477 
  73   2.0000       0.913919        24.8690 
  74   2.0000       0.925572        25.1861 
  75   2.0000       0.934569        25.4309 
  76   2.0000       0.944144        25.6915 
  77   0.0000       1.342406        36.5287 
  78   0.0000       1.395156        37.9641 
  79   0.0000       1.405672        38.2503 
  80   0.0000       1.416868        38.5549 
  81   0.0000       1.425634        38.7935 
  82   0.0000       1.437043        39.1039 
  83   0.0000       1.446654        39.3655 
  84   0.0000       1.450355        39.4662 
  85   0.0000       1.453888        39.5623 
  86   0.0000       1.467108        39.9220 
  87   0.0000       1.471667        40.0461 
  88   0.0000       1.479777        40.2668 
  89   0.0000       1.488978        40.5171 
  90   0.0000       1.490040        40.5461 
  91   0.0000       1.491078        40.5743 
  92   0.0000       1.499447        40.8020 
  93   0.0000       1.506040        40.9814 
  94   0.0000       1.518383        41.3173 
  95   0.0000       1.520645        41.3788 
  96   0.0000       1.526987        41.5514 
  97   0.0000       1.534387        41.7528 
  98   0.0000       1.536732        41.8166 
  99   0.0000       1.547575        42.1117 
 100   0.0000       1.581541        43.0359 
 101   0.0000       1.585631        43.1472 
 102   0.0000       1.596269        43.4367 
 103   0.0000       1.604040        43.6481 
 104   0.0000       1.606886        43.7256 
 105   0.0000       1.613244        43.8986 
 106   0.0000       1.616687        43.9923 
 107   0.0000       1.629976        44.3539 
 108   0.0000       1.637653        44.5628 
 109   0.0000       1.643752        44.7288 
 110   0.0000       1.650106        44.9017 
 111   0.0000       1.658142        45.1203 
 112   0.0000       1.666005        45.3343 
 113   0.0000       1.669970        45.4422 
 114   0.0000       1.681195        45.7476 
 115   0.0000       1.683863        45.8202 
 116   0.0000       1.685551        45.8662 
 117   0.0000       1.689459        45.9725 
 118   0.0000       1.694842        46.1190 
 119   0.0000       1.699081        46.2343 
 120   0.0000       1.702804        46.3357 
 121   0.0000       1.716343        46.7041 
 122   0.0000       1.717844        46.7449 
 123   0.0000       1.729726        47.0682 
 124   0.0000       1.732376        47.1404 
 125   0.0000       1.739465        47.3333 
 126   0.0000       1.747492        47.5517 
 127   0.0000       1.752825        47.6968 
 128   0.0000       1.763826        47.9961 
 129   0.0000       1.764670        48.0191 
 130   0.0000       1.768966        48.1360 
 131   0.0000       1.773446        48.2579 
 132   0.0000       1.780715        48.4557 
 133   0.0000       1.787501        48.6404 
 134   0.0000       1.793680        48.8085 
 135   0.0000       1.797163        48.9033 
 136   0.0000       1.801501        49.0213 
 137   0.0000       1.802907        49.0596 
 138   0.0000       1.808301        49.2064 
 139   0.0000       1.817298        49.4512 
 140   0.0000       1.824338        49.6428 
 141   0.0000       1.834573        49.9213 
 142   0.0000       1.835673        49.9512 
 143   0.0000       1.841932        50.1215 
 144   0.0000       1.848307        50.2950 
 145   0.0000       1.856891        50.5286 
 146   0.0000       1.864321        50.7307 
 147   0.0000       1.869148        50.8621 
 148   0.0000       1.872194        50.9450 
 149   0.0000       1.876108        51.0515 
 150   0.0000       1.878985        51.1298 
 151   0.0000       1.885582        51.3093 
 152   0.0000       1.887981        51.3746 
 153   0.0000       1.890698        51.4485 
 154   0.0000       1.898202        51.6527 
 155   0.0000       1.902074        51.7581 
 156   0.0000       1.903907        51.8079 
 157   0.0000       1.909308        51.9549 
 158   0.0000       1.914716        52.1021 
 159   0.0000       1.918726        52.2112 
 160   0.0000       1.927545        52.4512 
 161   0.0000       1.931378        52.5555 
 162   0.0000       1.932158        52.5767 
 163   0.0000       1.938387        52.7462 
 164   0.0000       1.940436        52.8019 
 165   0.0000       1.949013        53.0353 
 166   0.0000       1.952095        53.1192 
 167   0.0000       1.955522        53.2125 
 168   0.0000       1.959311        53.3156 
 169   0.0000       1.964493        53.4566 
 170   0.0000       1.973014        53.6884 
 171   0.0000       1.973339        53.6973 
 172   0.0000       1.983050        53.9615 
 173   0.0000       1.992822        54.2274 
 174   0.0000       1.999461        54.4081 
 175   0.0000       2.006247        54.5928 
 176   0.0000       2.010988        54.7218 
 177   0.0000       2.018369        54.9226 
 178   0.0000       2.024154        55.0800 
 179   0.0000       2.030053        55.2406 
 180   0.0000       2.047361        55.7115 
 181   0.0000       2.047833        55.7244 
 182   0.0000       2.053663        55.8830 
 183   0.0000       2.058643        56.0185 
 184   0.0000       2.062115        56.1130 
 185   0.0000       2.073727        56.4290 
 186   0.0000       2.079039        56.5735 
 187   0.0000       2.093230        56.9597 
 188   0.0000       2.097035        57.0632 
 189   0.0000       2.103848        57.2486 
 190   0.0000       2.111091        57.4457 
 191   0.0000       2.123626        57.7868 
 192   0.0000       2.127178        57.8835 
 193   0.0000       2.133383        58.0523 
 194   0.0000       2.140848        58.2554 
 195   0.0000       2.144536        58.3558 
 196   0.0000       2.156553        58.6828 
 197   0.0000       2.169431        59.0332 
 198   0.0000       2.177369        59.2492 
 199   0.0000       2.180574        59.3364 
 200   0.0000       2.189861        59.5891 
 201   0.0000       2.195657        59.7469 
 202   0.0000       2.207007        60.0557 
 203   0.0000       2.210107        60.1401 
 204   0.0000       2.219138        60.3858 
 205   0.0000       2.224261        60.5252 
 206   0.0000       2.231875        60.7324 
 207   0.0000       2.235330        60.8264 
 208   0.0000       2.244259        61.0694 
 209   0.0000       2.248464        61.1838 
 210   0.0000       2.251875        61.2766 
 211   0.0000       2.257186        61.4211 
 212   0.0000       2.269105        61.7455 
 213   0.0000       2.270942        61.7955 
 214   0.0000       2.275237        61.9124 
 215   0.0000       2.291231        62.3476 
 216   0.0000       2.299381        62.5693 
 217   0.0000       2.302990        62.6676 
 218   0.0000       2.313573        62.9555 
 219   0.0000       2.317448        63.0610 
 220   0.0000       2.327623        63.3378 
 221   0.0000       2.332781        63.4782 
 222   0.0000       2.335445        63.5507 
 223   0.0000       2.347191        63.8703 
 224   0.0000       2.358692        64.1833 
 225   0.0000       2.363113        64.3036 
 226   0.0000       2.376192        64.6595 
 227   0.0000       2.377452        64.6937 
 228   0.0000       2.383722        64.8644 
 229   0.0000       2.395714        65.1907 
 230   0.0000       2.401920        65.3596 
 231   0.0000       2.403419        65.4004 
 232   0.0000       2.409033        65.5531 
 233   0.0000       2.425030        65.9884 
 234   0.0000       2.433324        66.2141 
 235   0.0000       2.436788        66.3084 
 236   0.0000       2.443255        66.4843 
 237   0.0000       2.456165        66.8357 
 238   0.0000       2.461165        66.9717 
 239   0.0000       2.468680        67.1762 
 240   0.0000       2.473292        67.3017 
 241   0.0000       2.478470        67.4426 
 242   0.0000       2.485578        67.6360 
 243   0.0000       2.491859        67.8069 
 244   0.0000       2.493663        67.8560 
 245   0.0000       2.501810        68.0777 
 246   0.0000       2.509452        68.2856 
 247   0.0000       2.516242        68.4704 
 248   0.0000       2.520249        68.5795 
 249   0.0000       2.523463        68.6669 
 250   0.0000       2.531946        68.8978 
 251   0.0000       2.538387        69.0730 
 252   0.0000       2.553264        69.4778 
 253   0.0000       2.558269        69.6140 
 254   0.0000       2.566475        69.8373 
 255   0.0000       2.571724        69.9802 
 256   0.0000       2.579108        70.1811 
 257   0.0000       2.594854        70.6096 
 258   0.0000       2.599690        70.7412 
 259   0.0000       2.603984        70.8580 
 260   0.0000       2.606230        70.9191 
 261   0.0000       2.624228        71.4089 
 262   0.0000       2.626549        71.4720 
 263   0.0000       2.635525        71.7163 
 264   0.0000       2.639663        71.8289 
 265   0.0000       2.651732        72.1573 
 266   0.0000       2.655673        72.2645 
 267   0.0000       2.661572        72.4250 
 268   0.0000       2.673847        72.7591 
 269   0.0000       2.678374        72.8823 
 270   0.0000       2.693881        73.3042 
 271   0.0000       2.708934        73.7138 
 272   0.0000       2.714427        73.8633 
 273   0.0000       2.722721        74.0890 
 274   0.0000       2.727903        74.2300 
 275   0.0000       2.744662        74.6861 
 276   0.0000       2.749536        74.8187 
 277   0.0000       2.755467        74.9801 
 278   0.0000       2.762139        75.1616 
 279   0.0000       2.773507        75.4710 
 280   0.0000       2.776283        75.5465 
 281   0.0000       2.781688        75.6936 
 282   0.0000       2.782464        75.7147 
 283   0.0000       2.794421        76.0401 
 284   0.0000       2.797070        76.1121 
 285   0.0000       2.807958        76.4084 
 286   0.0000       2.814692        76.5917 
 287   0.0000       2.817259        76.6615 
 288   0.0000       2.822724        76.8102 
 289   0.0000       2.829808        77.0030 
 290   0.0000       2.836548        77.1864 
 291   0.0000       2.842152        77.3389 
 292   0.0000       2.847399        77.4817 
 293   0.0000       2.859064        77.7991 
 294   0.0000       2.868318        78.0509 
 295   0.0000       2.871854        78.1471 
 296   0.0000       2.875506        78.2465 
 297   0.0000       2.897360        78.8412 
 298   0.0000       2.905380        79.0594 
 299   0.0000       2.909797        79.1796 
 300   0.0000       2.910798        79.2068 
 301   0.0000       2.919664        79.4481 
 302   0.0000       2.923698        79.5579 
 303   0.0000       2.929626        79.7192 
 304   0.0000       2.935735        79.8854 
 305   0.0000       2.942693        80.0747 
 306   0.0000       2.952842        80.3509 
 307   0.0000       2.955554        80.4247 
 308   0.0000       2.962666        80.6183 
 309   0.0000       2.974097        80.9293 
 310   0.0000       2.984449        81.2110 
 311   0.0000       2.997370        81.5626 
 312   0.0000       3.002801        81.7104 
 313   0.0000       3.009582        81.8949 
 314   0.0000       3.021857        82.2289 
 315   0.0000       3.033197        82.5375 
 316   0.0000       3.039688        82.7141 
 317   0.0000       3.048405        82.9513 
 318   0.0000       3.066807        83.4521 
 319   0.0000       3.069288        83.5196 
 320   0.0000       3.082489        83.8788 
 321   0.0000       3.087965        84.0278 
 322   0.0000       3.091097        84.1130 
 323   0.0000       3.107364        84.5557 
 324   0.0000       3.117487        84.8311 
 325   0.0000       3.119039        84.8734 
 326   0.0000       3.135819        85.3300 
 327   0.0000       3.152145        85.7742 
 328   0.0000       3.162000        86.0424 
 329   0.0000       3.183671        86.6321 
 330   0.0000       3.190547        86.8192 
 331   0.0000       3.198718        87.0415 
 332   0.0000       3.201354        87.1133 
 333   0.0000       3.212269        87.4103 
 334   0.0000       3.221948        87.6737 
 335   0.0000       3.230105        87.8956 
 336   0.0000       3.246765        88.3490 
 337   0.0000       3.256739        88.6204 
 338   0.0000       3.257034        88.6284 
 339   0.0000       3.266308        88.8808 
 340   0.0000       3.269069        88.9559 
 341   0.0000       3.287775        89.4649 
 342   0.0000       3.298355        89.7528 
 343   0.0000       3.326063        90.5068 
 344   0.0000       3.337001        90.8044 
 345   0.0000       3.360447        91.4424 
 346   0.0000       3.371303        91.7378 
 347   0.0000       3.381316        92.0103 
 348   0.0000       3.404623        92.6445 
 349   0.0000       3.431006        93.3624 
 350   0.0000       3.447762        93.8184 
 351   0.0000       3.465284        94.2952 
 352   0.0000       3.469934        94.4217 
 353   0.0000       3.480570        94.7111 
 354   0.0000       3.489538        94.9552 
 355   0.0000       3.514906        95.6454 
 356   0.0000       3.528626        96.0188 
 357   0.0000       3.553412        96.6933 
 358   0.0000       3.561550        96.9147 
 359   0.0000       3.563913        96.9790 
 360   0.0000       3.573486        97.2395 
 361   0.0000       3.581225        97.4501 
 362   0.0000       3.600139        97.9648 
 363   0.0000       3.606889        98.1484 
 364   0.0000       3.628488        98.7362 
 365   0.0000       3.639207        99.0278 
 366   0.0000       3.650557        99.3367 
 367   0.0000       3.658514        99.5532 
 368   0.0000       3.668473        99.8242 
 369   0.0000       3.696852       100.5965 
 370   0.0000       3.722268       101.2881 
 371   0.0000       3.724896       101.3596 
 372   0.0000       3.735047       101.6358 
 373   0.0000       3.755768       102.1997 
 374   0.0000       3.767406       102.5163 
 375   0.0000       3.772314       102.6499 
 376   0.0000       3.785198       103.0005 
 377   0.0000       3.789429       103.1156 
 378   0.0000       3.813201       103.7625 
 379   0.0000       3.829225       104.1985 
 380   0.0000       3.839495       104.4780 
 381   0.0000       3.851493       104.8044 
 382   0.0000       3.862083       105.0926 
 383   0.0000       3.869342       105.2901 
 384   0.0000       3.887984       105.7974 
 385   0.0000       3.892362       105.9165 
 386   0.0000       3.902804       106.2007 
 387   0.0000       3.920426       106.6802 
 388   0.0000       3.928381       106.8967 
 389   0.0000       3.942021       107.2678 
 390   0.0000       3.955066       107.6228 
 391   0.0000       3.961617       107.8011 
 392   0.0000       3.977751       108.2401 
 393   0.0000       3.979856       108.2974 
 394   0.0000       3.992259       108.6349 
 395   0.0000       4.003586       108.9431 
 396   0.0000       4.016168       109.2855 
 397   0.0000       4.024440       109.5106 
 398   0.0000       4.025512       109.5398 
 399   0.0000       4.029607       109.6512 
 400   0.0000       4.041793       109.9828 
 401   0.0000       4.057748       110.4169 
 402   0.0000       4.070879       110.7742 
 403   0.0000       4.074244       110.8658 
 404   0.0000       4.089014       111.2677 
 405   0.0000       4.094633       111.4206 
 406   0.0000       4.103692       111.6671 
 407   0.0000       4.108879       111.8083 
 408   0.0000       4.121452       112.1504 
 409   0.0000       4.129649       112.3734 
 410   0.0000       4.136264       112.5535 
 411   0.0000       4.139337       112.6371 
 412   0.0000       4.158061       113.1466 
 413   0.0000       4.163104       113.2838 
 414   0.0000       4.176649       113.6524 
 415   0.0000       4.183542       113.8400 
 416   0.0000       4.185516       113.8937 
 417   0.0000       4.199012       114.2609 
 418   0.0000       4.205440       114.4358 
 419   0.0000       4.227297       115.0306 
 420   0.0000       4.230096       115.1068 
 421   0.0000       4.245419       115.5237 
 422   0.0000       4.255911       115.8092 
 423   0.0000       4.260979       115.9471 
 424   0.0000       4.269842       116.1883 
 425   0.0000       4.275270       116.3360 
 426   0.0000       4.281095       116.4945 
 427   0.0000       4.296726       116.9198 
 428   0.0000       4.305547       117.1599 
 429   0.0000       4.311903       117.3329 
 430   0.0000       4.314131       117.3935 
 431   0.0000       4.331195       117.8578 
 432   0.0000       4.340232       118.1037 
 433   0.0000       4.343953       118.2050 
 434   0.0000       4.347299       118.2960 
 435   0.0000       4.357694       118.5789 
 436   0.0000       4.371614       118.9577 
 437   0.0000       4.379290       119.1666 
 438   0.0000       4.385387       119.3324 
 439   0.0000       4.388575       119.4192 
 440   0.0000       4.393659       119.5575 
 441   0.0000       4.403951       119.8376 
 442   0.0000       4.411370       120.0395 
 443   0.0000       4.413458       120.0963 
 444   0.0000       4.419252       120.2540 
 445   0.0000       4.429140       120.5230 
 446   0.0000       4.431755       120.5942 
 447   0.0000       4.446614       120.9985 
 448   0.0000       4.451963       121.1441 
 449   0.0000       4.462941       121.4428 
 450   0.0000       4.465425       121.5104 
 451   0.0000       4.479764       121.9006 
 452   0.0000       4.491713       122.2257 
 453   0.0000       4.499147       122.4280 
 454   0.0000       4.502238       122.5121 
 455   0.0000       4.505402       122.5982 
 456   0.0000       4.514236       122.8386 
 457   0.0000       4.526602       123.1751 
 458   0.0000       4.529490       123.2537 
 459   0.0000       4.538100       123.4880 
 460   0.0000       4.544498       123.6621 
 461   0.0000       4.550212       123.8176 
 462   0.0000       4.558542       124.0442 
 463   0.0000       4.567766       124.2952 
 464   0.0000       4.570929       124.3813 
 465   0.0000       4.578970       124.6001 
 466   0.0000       4.585194       124.7695 
 467   0.0000       4.588686       124.8645 
 468   0.0000       4.601896       125.2240 
 469   0.0000       4.604039       125.2823 
 470   0.0000       4.608140       125.3939 
 471   0.0000       4.612107       125.5018 
 472   0.0000       4.624393       125.8361 
 473   0.0000       4.632104       126.0460 
 474   0.0000       4.635850       126.1479 
 475   0.0000       4.639595       126.2498 
 476   0.0000       4.646442       126.4361 
 477   0.0000       4.652358       126.5971 
 478   0.0000       4.663053       126.8881 
 479   0.0000       4.664158       126.9182 
 480   0.0000       4.672285       127.1394 
 481   0.0000       4.674978       127.2126 
 482   0.0000       4.681446       127.3886 
 483   0.0000       4.690136       127.6251 
 484   0.0000       4.698311       127.8475 
 485   0.0000       4.701467       127.9334 
 486   0.0000       4.704521       128.0165 
 487   0.0000       4.708348       128.1207 
 488   0.0000       4.713004       128.2474 
 489   0.0000       4.723392       128.5300 
 490   0.0000       4.729282       128.6903 
 491   0.0000       4.733502       128.8051 
 492   0.0000       4.738870       128.9512 
 493   0.0000       4.746868       129.1689 
 494   0.0000       4.754335       129.3720 
 495   0.0000       4.755993       129.4171 
 496   0.0000       4.762759       129.6013 
 497   0.0000       4.764233       129.6414 
 498   0.0000       4.778730       130.0359 
 499   0.0000       4.781272       130.1050 
 500   0.0000       4.785330       130.2154 
 501   0.0000       4.788513       130.3021 
 502   0.0000       4.797397       130.5438 
 503   0.0000       4.803908       130.7210 
 504   0.0000       4.809207       130.8652 
 505   0.0000       4.816233       131.0564 
 506   0.0000       4.821857       131.2094 
 507   0.0000       4.839628       131.6930 
 508   0.0000       4.845538       131.8538 
 509   0.0000       4.847954       131.9195 
 510   0.0000       4.852347       132.0391 
 511   0.0000       4.865101       132.3861 
 512   0.0000       4.868854       132.4883 
 513   0.0000       4.873713       132.6205 
 514   0.0000       4.878098       132.7398 
 515   0.0000       4.889665       133.0546 
 516   0.0000       4.894994       133.1996 
 517   0.0000       4.906101       133.5018 
 518   0.0000       4.906574       133.5147 
 519   0.0000       4.912980       133.6890 
 520   0.0000       4.920485       133.8932 
 521   0.0000       4.933923       134.2589 
 522   0.0000       4.940881       134.4482 
 523   0.0000       4.945079       134.5624 
 524   0.0000       4.946166       134.5920 
 525   0.0000       4.959951       134.9671 
 526   0.0000       4.963360       135.0599 
 527   0.0000       4.980114       135.5158 
 528   0.0000       4.985320       135.6575 
 529   0.0000       4.990103       135.7876 
 530   0.0000       4.994174       135.8984 
 531   0.0000       5.003465       136.1512 
 532   0.0000       5.008588       136.2906 
 533   0.0000       5.015652       136.4828 
 534   0.0000       5.019566       136.5893 
 535   0.0000       5.026179       136.7693 
 536   0.0000       5.033333       136.9640 
 537   0.0000       5.040476       137.1583 
 538   0.0000       5.047861       137.3593 
 539   0.0000       5.056075       137.5828 
 540   0.0000       5.057494       137.6214 
 541   0.0000       5.061236       137.7232 
 542   0.0000       5.064662       137.8165 
 543   0.0000       5.078589       138.1954 
 544   0.0000       5.085060       138.3715 
 545   0.0000       5.089777       138.4999 
 546   0.0000       5.097981       138.7231 
 547   0.0000       5.109169       139.0276 
 548   0.0000       5.120608       139.3388 
 549   0.0000       5.124313       139.4396 
 550   0.0000       5.126138       139.4893 
 551   0.0000       5.134545       139.7181 
 552   0.0000       5.139113       139.8424 
 553   0.0000       5.150224       140.1447 
 554   0.0000       5.159372       140.3936 
 555   0.0000       5.164057       140.5211 
 556   0.0000       5.174871       140.8154 
 557   0.0000       5.185242       141.0976 
 558   0.0000       5.202074       141.5556 
 559   0.0000       5.210300       141.7795 
 560   0.0000       5.216362       141.9444 
 561   0.0000       5.220525       142.0577 
 562   0.0000       5.239432       142.5722 
 563   0.0000       5.243704       142.6884 
 564   0.0000       5.253561       142.9567 
 565   0.0000       5.264161       143.2451 
 566   0.0000       5.270501       143.4176 
 567   0.0000       5.285222       143.8182 
 568   0.0000       5.293680       144.0484 
 569   0.0000       5.297953       144.1646 
 570   0.0000       5.305700       144.3754 
 571   0.0000       5.314966       144.6276 
 572   0.0000       5.325577       144.9163 
 573   0.0000       5.338036       145.2553 
 574   0.0000       5.354691       145.7085 
 575   0.0000       5.355051       145.7184 
 576   0.0000       5.363825       145.9571 
 577   0.0000       5.372292       146.1875 
 578   0.0000       5.381116       146.4276 
 579   0.0000       5.393727       146.7708 
 580   0.0000       5.396722       146.8523 
 581   0.0000       5.410803       147.2354 
 582   0.0000       5.415346       147.3590 
 583   0.0000       5.423664       147.5854 
 584   0.0000       5.433687       147.8581 
 585   0.0000       5.439709       148.0220 
 586   0.0000       5.442119       148.0876 
 587   0.0000       5.450086       148.3044 
 588   0.0000       5.456351       148.4749 
 589   0.0000       5.465147       148.7142 
 590   0.0000       5.466484       148.7506 
 591   0.0000       5.471304       148.8818 
 592   0.0000       5.482245       149.1795 
 593   0.0000       5.483644       149.2175 
 594   0.0000       5.492909       149.4696 
 595   0.0000       5.499477       149.6484 
 596   0.0000       5.501732       149.7097 
 597   0.0000       5.514300       150.0517 
 598   0.0000       5.524794       150.3373 
 599   0.0000       5.533859       150.5840 
 600   0.0000       5.535715       150.6345 
 601   0.0000       5.542480       150.8185 
 602   0.0000       5.551456       151.0628 
 603   0.0000       5.552220       151.0836 
 604   0.0000       5.560649       151.3130 
 605   0.0000       5.569727       151.5600 
 606   0.0000       5.583975       151.9477 
 607   0.0000       5.598187       152.3344 
 608   0.0000       5.605590       152.5358 
 609   0.0000       5.612754       152.7308 
 610   0.0000       5.618033       152.8745 
 611   0.0000       5.619298       152.9089 
 612   0.0000       5.624820       153.0591 
 613   0.0000       5.632273       153.2619 
 614   0.0000       5.644866       153.6046 
 615   0.0000       5.651918       153.7965 
 616   0.0000       5.656849       153.9307 
 617   0.0000       5.661058       154.0452 
 618   0.0000       5.666785       154.2011 
 619   0.0000       5.682541       154.6298 
 620   0.0000       5.685573       154.7123 
 621   0.0000       5.696977       155.0226 
 622   0.0000       5.702106       155.1622 
 623   0.0000       5.711896       155.4286 
 624   0.0000       5.717127       155.5709 
 625   0.0000       5.728634       155.8840 
 626   0.0000       5.738627       156.1560 
 627   0.0000       5.748838       156.4338 
 628   0.0000       5.758507       156.6970 
 629   0.0000       5.760897       156.7620 
 630   0.0000       5.769581       156.9983 
 631   0.0000       5.784167       157.3952 
 632   0.0000       5.799067       157.8006 
 633   0.0000       5.803205       157.9132 
 634   0.0000       5.808859       158.0671 
 635   0.0000       5.821601       158.4138 
 636   0.0000       5.827683       158.5793 
 637   0.0000       5.836717       158.8251 
 638   0.0000       5.841935       158.9671 
 639   0.0000       5.853966       159.2945 
 640   0.0000       5.863136       159.5440 
 641   0.0000       5.867343       159.6585 
 642   0.0000       5.873249       159.8192 
 643   0.0000       5.885368       160.1490 
 644   0.0000       5.891568       160.3177 
 645   0.0000       5.895218       160.4170 
 646   0.0000       5.913414       160.9122 
 647   0.0000       5.921477       161.1316 
 648   0.0000       5.934503       161.4860 
 649   0.0000       5.945668       161.7899 
 650   0.0000       5.950260       161.9148 
 651   0.0000       5.967815       162.3925 
 652   0.0000       5.968598       162.4138 
 653   0.0000       5.979284       162.7046 
 654   0.0000       5.991440       163.0354 
 655   0.0000       6.006512       163.4455 
 656   0.0000       6.012701       163.6139 
 657   0.0000       6.021255       163.8467 
 658   0.0000       6.027583       164.0189 
 659   0.0000       6.036676       164.2663 
 660   0.0000       6.046862       164.5435 
 661   0.0000       6.062049       164.9567 
 662   0.0000       6.066965       165.0905 
 663   0.0000       6.068995       165.1457 
 664   0.0000       6.079086       165.4203 
 665   0.0000       6.088699       165.6819 
 666   0.0000       6.113052       166.3446 
 667   0.0000       6.140333       167.0869 
 668   0.0000       6.143442       167.1716 
 669   0.0000       6.182530       168.2352 
 670   0.0000       6.195530       168.5889 
 671   0.0000       6.221847       169.3051 
 672   0.0000       6.234311       169.6442 
 673   0.0000       6.253380       170.1631 
 674   0.0000       6.269133       170.5918 
 675   0.0000       6.285471       171.0364 
 676   0.0000       6.299512       171.4184 
 677   0.0000       6.319608       171.9653 
 678   0.0000       6.342329       172.5835 
 679   0.0000       6.346465       172.6961 
 680   0.0000       6.351206       172.8251 
 681   0.0000       6.359722       173.0568 
 682   0.0000       6.367906       173.2795 
 683   0.0000       6.377450       173.5392 
 684   0.0000       6.389663       173.8716 
 685   0.0000       6.397391       174.0819 
 686   0.0000       6.406786       174.3375 
 687   0.0000       6.419847       174.6929 
 688   0.0000       6.433710       175.0702 
 689   0.0000       6.439845       175.2371 
 690   0.0000       6.448590       175.4751 
 691   0.0000       6.457057       175.7055 
 692   0.0000       6.469576       176.0461 
 693   0.0000       6.476985       176.2477 
 694   0.0000       6.485739       176.4859 
 695   0.0000       6.500009       176.8742 
 696   0.0000       6.520810       177.4403 
 697   0.0000       6.538575       177.9237 
 698   0.0000       6.547789       178.1744 
 699   0.0000       6.557463       178.4376 
 700   0.0000       6.567454       178.7095 
 701   0.0000       6.579945       179.0494 
 702   0.0000       6.597069       179.5154 
 703   0.0000       6.599451       179.5802 
 704   0.0000       6.610363       179.8771 
 705   0.0000       6.619216       180.1180 
 706   0.0000       6.640940       180.7092 
 707   0.0000       6.657424       181.1577 
 708   0.0000       6.680340       181.7813 
 709   0.0000       6.687893       181.9868 
 710   0.0000       6.700199       182.3217 
 711   0.0000       6.703647       182.4155 
 712   0.0000       6.731219       183.1658 
 713   0.0000       6.732099       183.1897 
 714   0.0000       6.752453       183.7436 
 715   0.0000       6.752574       183.7469 
 716   0.0000       6.763835       184.0533 
 717   0.0000       6.789769       184.7590 
 718   0.0000       6.824677       185.7089 
 719   0.0000       6.837826       186.0667 
 720   0.0000       6.845559       186.2771 
 721   0.0000       6.851305       186.4335 
 722   0.0000       6.876318       187.1141 
 723   0.0000       6.879264       187.1943 
 724   0.0000       6.885342       187.3597 
 725   0.0000       6.893133       187.5717 
 726   0.0000       6.899568       187.7468 
 727   0.0000       6.904160       187.8717 
 728   0.0000       6.907175       187.9538 
 729   0.0000       6.921520       188.3441 
 730   0.0000       6.928495       188.5339 
 731   0.0000       6.943328       188.9376 
 732   0.0000       6.945619       188.9999 
 733   0.0000       6.969010       189.6364 
 734   0.0000       6.970438       189.6753 
 735   0.0000       6.988094       190.1557 
 736   0.0000       7.008550       190.7123 
 737   0.0000       7.021143       191.0550 
 738   0.0000       7.035288       191.4399 
 739   0.0000       7.050706       191.8595 
 740   0.0000       7.069631       192.3744 
 741   0.0000       7.077358       192.5847 
 742   0.0000       7.080813       192.6787 
 743   0.0000       7.101280       193.2357 
 744   0.0000       7.106773       193.3851 
 745   0.0000       7.127372       193.9457 
 746   0.0000       7.135414       194.1645 
 747   0.0000       7.156750       194.7451 
 748   0.0000       7.171544       195.1476 
 749   0.0000       7.186073       195.5430 
 750   0.0000       7.206474       196.0981 
 751   0.0000       7.216303       196.3656 
 752   0.0000       7.240516       197.0245 
 753   0.0000       7.271481       197.8670 
 754   0.0000       7.277145       198.0212 
 755   0.0000       7.287817       198.3116 
 756   0.0000       7.332484       199.5270 
 757   0.0000       7.371781       200.5964 
 758   0.0000       7.385495       200.9695 
 759   0.0000       7.391767       201.1402 
 760   0.0000       7.430800       202.2024 
 761   0.0000       7.443596       202.5506 
 762   0.0000       7.455421       202.8723 
 763   0.0000       7.469150       203.2459 
 764   0.0000       7.493196       203.9002 
 765   0.0000       7.502260       204.1469 
 766   0.0000       7.530126       204.9051 
 767   0.0000       7.574123       206.1024 
 768   0.0000       7.610629       207.0957 
 769   0.0000       7.638587       207.8565 
 770   0.0000       7.661405       208.4774 
 771   0.0000       7.681998       209.0378 
 772   0.0000       7.716373       209.9732 
 773   0.0000       7.750288       210.8961 
 774   0.0000       7.764517       211.2832 
 775   0.0000       7.773716       211.5336 
 776   0.0000       7.803629       212.3475 
 777   0.0000       7.825114       212.9322 
 778   0.0000       7.843011       213.4192 
 779   0.0000       7.922533       215.5831 
 780   0.0000       7.931563       215.8288 
 781   0.0000       7.938279       216.0116 
 782   0.0000       7.954925       216.4645 
 783   0.0000       8.018143       218.1848 
 784   0.0000       8.043951       218.8870 
 785   0.0000       8.089027       220.1136 
 786   0.0000       8.149651       221.7633 
 787   0.0000       8.197944       223.0774 
 788   0.0000       8.239497       224.2081 
 789   0.0000       8.250551       224.5089 
 790   0.0000       8.355387       227.3616 
 791   0.0000       8.397317       228.5026 
 792   0.0000       8.403658       228.6752 
 793   0.0000       8.445344       229.8095 
 794   0.0000       8.454892       230.0693 
 795   0.0000       8.494457       231.1459 
 796   0.0000       8.504818       231.4279 
 797   0.0000       8.568187       233.1522 
 798   0.0000       8.591711       233.7923 
 799   0.0000       8.604102       234.1295 
 800   0.0000       8.606227       234.1873 
 801   0.0000       8.749498       238.0860 
 802   0.0000       8.796752       239.3718 
 803   0.0000       8.842186       240.6081 
 804   0.0000       8.904766       242.3110 
 805   0.0000       9.051698       246.3092 
 806   0.0000       9.063189       246.6219 
 807   0.0000       9.194973       250.2079 
 808   0.0000       9.231337       251.1974 
 809   0.0000      10.652321       289.8644 
 810   0.0000      10.797036       293.8023 
 811   0.0000      12.036516       327.5303 
 812   0.0000      12.192100       331.7639 
 813   0.0000      12.928782       351.8100 
 814   0.0000      14.035338       381.9210 
 815   0.0000      14.174020       385.6947 
 816   0.0000      14.341509       390.2523 
 817   0.0000      14.598237       397.2382 
 818   0.0000      14.780943       402.2099 
 819   0.0000      14.871082       404.6627 
 820   0.0000      15.159535       412.5119 
 821   0.0000      15.211359       413.9221 
 822   0.0000      15.304346       416.4524 
 823   0.0000      15.447658       420.3521 
 824   0.0000      15.737581       428.2413 
 825   0.0000      15.830172       430.7609 
 826   0.0000      16.225136       441.5084 
 827   0.0000      17.689409       481.3533 

                    ********************************
                    * MULLIKEN POPULATION ANALYSIS *
                    ********************************

-----------------------
MULLIKEN ATOMIC CHARGES
-----------------------
   0 C :   -0.262319
   1 C :    0.022300
   2 O :   -0.339815
   3 C :    0.513368
   4 O :   -0.573221
   5 C :   -0.188942
   6 C :    0.148067
   7 C :   -0.290870
   8 N :   -0.146262
   9 C :    0.336015
  10 S :   -0.763004
  11 N :   -0.137080
  12 C :    0.042842
  13 C :   -0.014717
  14 C :   -0.242874
  15 C :   -0.182969
  16 C :   -0.243534
  17 C :    0.331818
  18 O :   -0.449689
  19 C :   -0.275289
  20 H :    0.105891
  21 H :    0.113185
  22 H :    0.107827
  23 H :    0.103041
  24 H :    0.125623
  25 H :    0.136609
  26 H :    0.136721
  27 H :    0.144740
  28 H :    0.257525
  29 H :    0.252248
  30 H :    0.164167
  31 H :    0.189613
  32 H :    0.195287
  33 H :    0.171999
  34 H :    0.331181
  35 H :    0.180520
Sum of atomic charges:   -0.0000000

--------------------------------
MULLIKEN REDUCED ORBITAL CHARGES
--------------------------------
  0 C s       :     3.262294  s :     3.262294
      pz      :     0.978933  p :     2.922794
      px      :     1.015998
      py      :     0.927863
      dz2     :     0.006784  d :     0.072956
      dxz     :     0.011857
      dyz     :     0.020389
      dx2y2   :     0.014160
      dxy     :     0.019766
      f0      :     0.000335  f :     0.004274
      f+1     :     0.000534
      f-1     :     0.000515
      f+2     :     0.000928
      f-2     :     0.000940
      f+3     :     0.000529
      f-3     :     0.000494
  1 C s       :     3.188389  s :     3.188389
      pz      :     0.688728  p :     2.636700
      px      :     0.954886
      py      :     0.993086
      dz2     :     0.038919  d :     0.142200
      dxz     :     0.029473
      dyz     :     0.032039
      dx2y2   :     0.020078
      dxy     :     0.021691
      f0      :     0.002133  f :     0.010411
      f+1     :     0.001926
      f-1     :     0.001900
      f+2     :     0.001785
      f-2     :     0.001360
      f+3     :     0.000771
      f-3     :     0.000535
  2 O s       :     3.732529  s :     3.732529
      pz      :     1.272871  p :     4.570380
      px      :     1.755818
      py      :     1.541691
      dz2     :     0.006106  d :     0.034831
      dxz     :     0.005229
      dyz     :     0.014546
      dx2y2   :     0.005023
      dxy     :     0.003927
      f0      :     0.000365  f :     0.002076
      f+1     :     0.000341
      f-1     :     0.000469
      f+2     :     0.000440
      f-2     :     0.000254
[...]
 15 C s       :     2.692172  s :     2.692172
      pz      :     0.827622  p :     2.801375
      px      :     0.992024
      py      :     0.981729
      dz2     :     0.032840  d :     0.430581
      dxz     :     0.079030
      dyz     :     0.033511
      dx2y2   :     0.142826
      dxy     :     0.142374
      f0      :     0.002227  f :     0.045928
      f+1     :     0.003884
      f-1     :     0.003087
      f+2     :     0.004896
      f-2     :     0.006576
      f+3     :     0.010564
      f-3     :     0.014694
 16 C s       :     2.688489  s :     2.688489
      pz      :     0.865144  p :     2.838463
      px      :     0.964925
      py      :     1.008394
      dz2     :     0.030435  d :     0.422610
      dxz     :     0.024496
      dyz     :     0.084102
      dx2y2   :     0.158998
      dxy     :     0.124579
      f0      :     0.002739  f :     0.045918
      f+1     :     0.002285
      f-1     :     0.004195
      f+2     :     0.003186
      f-2     :     0.007200
      f+3     :     0.010709
      f-3     :     0.015603
 17 C s       :     2.683501  s :     2.683501
      pz      :     0.823392  p :     2.703525
      px      :     0.970030
      py      :     0.910103
      dz2     :     0.055708  d :     0.727132
      dxz     :     0.120474
      dyz     :     0.117161
      dx2y2   :     0.207871
      dxy     :     0.225919
      f0      :     0.008322  f :     0.104602
      f+1     :     0.007779
      f-1     :     0.006352
      f+2     :     0.008417
      f-2     :     0.018878
      f+3     :     0.022086
      f-3     :     0.032767
 18 O s       :     3.172653  s :     3.172653
      pz      :     1.621904  p :     4.388771
      px      :     1.515343
      py      :     1.251524
      dz2     :     0.006985  d :     0.072261
      dxz     :     0.007335
      dyz     :     0.010840
      dx2y2   :     0.020197
      dxy     :     0.026905
      f0      :     0.000469  f :     0.004857
      f+1     :     0.000322
      f-1     :     0.000426
      f+2     :     0.000239
      f-2     :     0.000862
      f+3     :     0.001099
      f-3     :     0.001440
 19 C s       :     2.686565  s :     2.686565
      pz      :     0.882056  p :     2.830150
      px      :     0.987973
      py      :     0.960121
      dz2     :     0.039066  d :     0.411697
      dxz     :     0.074595
      dyz     :     0.031327
      dx2y2   :     0.136745
      dxy     :     0.129963
      f0      :     0.002586  f :     0.044875
      f+1     :     0.004259
      f-1     :     0.003097
      f+2     :     0.005525
      f-2     :     0.005926
      f+3     :     0.010116
      f-3     :     0.013365
 20 H s       :     0.846367  s :     0.846367
      pz      :     0.046176  p :     0.150359
      px      :     0.048810
      py      :     0.055373
      dz2     :     0.004783  d :     0.027378
      dxz     :     0.003783
      dyz     :     0.005742
      dx2y2   :     0.007101
      dxy     :     0.005969
 21 H s       :     0.837247  s :     0.837247
      pz      :     0.063402  p :     0.151793
      px      :     0.045950
      py      :     0.042441
      dz2     :     0.008139  d :     0.027644
      dxz     :     0.006835
      dyz     :     0.007052
      dx2y2   :     0.002905
      dxy     :     0.002714
 22 H s       :     0.849855  s :     0.849855
      pz      :     0.039791  p :     0.150843
      px      :     0.069182
      py      :     0.041870
      dz2     :     0.002439  d :     0.027109
      dxz     :     0.007926
      dyz     :     0.001564
      dx2y2   :     0.007274
      dxy     :     0.007905
 23 H s       :     0.851916  s :     0.851916
      pz      :     0.031137  p :     0.150756
      px      :     0.076342
      py      :     0.043277
      dz2     :     0.002604  d :     0.027850
      dxz     :     0.006763
      dyz     :     0.001586
      dx2y2   :     0.007978
      dxy     :     0.008920
 24 H s       :     0.850326  s :     0.850326
      pz      :     0.037122  p :     0.147618
      px      :     0.042681
      py      :     0.067815
      dz2     :     0.003586  d :     0.026585
      dxz     :     0.003412
      dyz     :     0.006267
      dx2y2   :     0.008111
      dxy     :     0.005209
 25 H s       :     0.821311  s :     0.821311
      pz      :     0.051923  p :     0.153619
      px      :     0.042270
      py      :     0.059426
      dz2     :     0.006383  d :     0.028128
      dxz     :     0.004188
      dyz     :     0.006830
      dx2y2   :     0.004444
      dxy     :     0.006284
 26 H s       :     0.831196  s :     0.831196
      pz      :     0.036265  p :     0.151089
      px      :     0.066578
      py      :     0.048246
      dz2     :     0.002576  d :     0.027649
      dxz     :     0.006326
      dyz     :     0.002709
      dx2y2   :     0.008500
      dxy     :     0.007538
 27 H s       :     0.830001  s :     0.830001
      pz      :     0.045416  p :     0.153713
      px      :     0.058052
      py      :     0.050245
      dz2     :     0.004466  d :     0.027550
      dxz     :     0.005570
      dyz     :     0.004309
      dx2y2   :     0.006505
      dxy     :     0.006700
 28 H s       :     0.710984  s :     0.710984
      pz      :     0.039041  p :     0.249895
      px      :     0.099486
      py      :     0.111368
      dz2     :     0.005842  d :     0.060272
      dxz     :     0.005551
      dyz     :     0.009960
      dx2y2   :     0.023000
      dxy     :     0.015919
 29 H s       :     0.717509  s :     0.717509
      pz      :     0.117065  p :     0.245298
      px      :     0.059408
      py      :     0.068825
      dz2     :     0.019093  d :     0.060498
      dxz     :     0.017188
      dyz     :     0.018530
      dx2y2   :     0.003577
      dxy     :     0.002111
 30 H s       :     0.816445  s :     0.816445
      pz      :     0.035069  p :     0.151918
      px      :     0.033657
      py      :     0.083191
      dz2     :     0.002699  d :     0.029640
      dxz     :     0.000251
      dyz     :     0.009001
      dx2y2   :     0.008305
      dxy     :     0.009385
 31 H s       :     0.832927  s :     0.832927
      pz      :     0.042499  p :     0.153471
      px      :     0.052070
      py      :     0.058902
      dz2     :     0.002455  d :     0.027405
      dxz     :     0.003381
      dyz     :     0.004811
      dx2y2   :     0.009024
      dxy     :     0.007734
 32 H s       :     0.828879  s :     0.828879
      pz      :     0.039416  p :     0.149574
      px      :     0.039567
      py      :     0.070591
      dz2     :     0.002412  d :     0.026604
      dxz     :     0.001226
      dyz     :     0.006300
      dx2y2   :     0.008303
      dxy     :     0.008364
 33 H s       :     0.830701  s :     0.830701
      pz      :     0.045986  p :     0.157022
      px      :     0.075029
      py      :     0.036007
      dz2     :     0.002704  d :     0.028066
      dxz     :     0.007666
      dyz     :     0.000866
      dx2y2   :     0.007839
      dxy     :     0.008991
 34 H s       :     0.666405  s :     0.666405
      pz      :     0.108657  p :     0.340780
      px      :     0.097936
      py      :     0.134187
      dz2     :     0.014885  d :     0.098181
      dxz     :     0.008025
      dyz     :     0.026703
      dx2y2   :     0.021478
      dxy     :     0.027090
 35 H s       :     0.828283  s :     0.828283
      pz      :     0.043621  p :     0.156318
      px      :     0.039156
      py      :     0.073541
      dz2     :     0.002468  d :     0.028078
      dxz     :     0.001180
      dyz     :     0.007290
      dx2y2   :     0.008615
      dxy     :     0.008525


                      *****************************
                      * MAYER POPULATION ANALYSIS *
                      *****************************

  NA   - Mulliken gross atomic population
  ZA   - Total nuclear charge
  QA   - Mulliken gross atomic charge
  VA   - Mayer's total valence
  BVA  - Mayer's bonded valence
  FA   - Mayer's free valence

  ATOM       NA         ZA         QA         VA         BVA        FA
  0 C      6.2623     6.0000    -0.2623     3.8913     3.8913     0.0000
  1 C      5.9777     6.0000     0.0223     3.8059     3.8059     0.0000
  2 O      8.3398     8.0000    -0.3398     2.0959     2.0959    -0.0000
  3 C      5.4866     6.0000     0.5134     4.2192     4.2192     0.0000
  4 O      8.5732     8.0000    -0.5732     1.9654     1.9654     0.0000
  5 C      6.1889     6.0000    -0.1889     3.6275     3.6275    -0.0000
  6 C      5.8519     6.0000     0.1481     3.8216     3.8216    -0.0000
  7 C      6.2909     6.0000    -0.2909     3.8730     3.8730    -0.0000
  8 N      7.1463     7.0000    -0.1463     3.4032     3.4032     0.0000
  9 C      5.6640     6.0000     0.3360     4.0216     4.0216    -0.0000
 10 S     16.7630    16.0000    -0.7630     1.3200     1.3200     0.0000
 11 N      7.1371     7.0000    -0.1371     3.4000     3.4000    -0.0000
 12 C      5.9572     6.0000     0.0428     3.9425     3.9425    -0.0000
 13 C      6.0147     6.0000    -0.0147     3.6314     3.6314     0.0000
 14 C      6.2429     6.0000    -0.2429     3.8140     3.8140     0.0000
 15 C      6.1830     6.0000    -0.1830     3.7661     3.7661    -0.0000
 16 C      6.2435     6.0000    -0.2435     3.7183     3.7183    -0.0000
 17 C      5.6682     6.0000     0.3318     3.8845     3.8845    -0.0000
 18 O      8.4497     8.0000    -0.4497     2.0498     2.0498    -0.0000
 19 C      6.2753     6.0000    -0.2753     3.7958     3.7958    -0.0000
 20 H      0.8941     1.0000     0.1059     0.9826     0.9826     0.0000
 21 H      0.8868     1.0000     0.1132     0.9834     0.9834     0.0000
 22 H      0.8922     1.0000     0.1078     0.9843     0.9843     0.0000
 23 H      0.8970     1.0000     0.1030     0.9834     0.9834     0.0000
 24 H      0.8744     1.0000     0.1256     0.9752     0.9752    -0.0000
 25 H      0.8634     1.0000     0.1366     0.9721     0.9721    -0.0000
 26 H      0.8633     1.0000     0.1367     0.9850     0.9850    -0.0000
 27 H      0.8553     1.0000     0.1447     0.9783     0.9783     0.0000
 28 H      0.7425     1.0000     0.2575     0.9659     0.9659    -0.0000
 29 H      0.7478     1.0000     0.2522     0.9687     0.9687     0.0000
 30 H      0.8358     1.0000     0.1642     0.9911     0.9911    -0.0000
 31 H      0.8104     1.0000     0.1896     0.9684     0.9684     0.0000
 32 H      0.8047     1.0000     0.1953     0.9635     0.9635     0.0000
 33 H      0.8280     1.0000     0.1720     0.9753     0.9753    -0.0000
 34 H      0.6688     1.0000     0.3312     0.9299     0.9299    -0.0000
 35 H      0.8195     1.0000     0.1805     0.9764     0.9764    -0.0000

  Mayer bond orders larger than 0.100000
B(  0-C ,  1-C ) :   0.9720 B(  0-C , 20-H ) :   0.9745 B(  0-C , 21-H ) :   0.9747 
B(  0-C , 22-H ) :   0.9772 B(  1-C ,  2-O ) :   0.8507 B(  1-C , 23-H ) :   0.9819 
B(  1-C , 24-H ) :   0.9685 B(  2-O ,  3-C ) :   1.2462 B(  3-C ,  4-O ) :   1.8767 
B(  3-C ,  5-C ) :   1.0627 B(  5-C ,  6-C ) :   1.6468 B(  5-C , 12-C ) :   0.9776 
B(  6-C ,  7-C ) :   0.9430 B(  6-C ,  8-N ) :   1.1321 B(  7-C , 25-H ) :   0.9656 
B(  7-C , 26-H ) :   0.9791 B(  7-C , 27-H ) :   0.9598 B(  8-N ,  9-C ) :   1.2970 
B(  8-N , 28-H ) :   0.9219 B(  9-C , 10-S ) :   1.1924 B(  9-C , 11-N ) :   1.4503 
B( 11-N , 12-C ) :   0.9879 B( 11-N , 29-H ) :   0.9226 B( 12-C , 13-C ) :   0.9300 
B( 12-C , 30-H ) :   1.0080 B( 13-C , 14-C ) :   1.4272 B( 13-C , 19-C ) :   1.2371 
B( 14-C , 15-C ) :   1.3218 B( 14-C , 31-H ) :   0.9609 B( 15-C , 16-C ) :   1.4198 
B( 15-C , 32-H ) :   0.9670 B( 16-C , 17-C ) :   1.2472 B( 16-C , 33-H ) :   0.9669 
B( 17-C , 18-O ) :   1.1199 B( 17-C , 19-C ) :   1.4501 B( 18-O , 34-H ) :   0.9091 
B( 19-C , 35-H ) :   0.9590 

-------
TIMINGS
-------

Total SCF time: 0 days 1 hours 49 min 8 sec 

Total time                  ....    6548.251 sec
Sum of individual times     ....    6544.491 sec  ( 99.9%)

Fock matrix formation       ....    6532.173 sec  ( 99.8%)
Diagonalization             ....       1.573 sec  (  0.0%)
Density matrix formation    ....       0.203 sec  (  0.0%)
Population analysis         ....       0.201 sec  (  0.0%)
Initial guess               ....       5.440 sec  (  0.1%)
Orbital Transformation      ....       0.000 sec  (  0.0%)
Orbital Orthonormalization  ....       0.000 sec  (  0.0%)
DIIS solution               ....       1.822 sec  (  0.0%)
SOSCF solution              ....       1.666 sec  (  0.0%)

Maximum memory used throughout the entire SCF-calculation: 718.8 MB

------------------------------------------------------------------------------
                                ORCA  MP2 
------------------------------------------------------------------------------

Freezing NCore=48 chemical core electrons

-------------
RI-MP2 ENERGY
-------------
Dimension of the basis                    ...  828
Memory devoted to MP2                     ...  256 MB   
Data format for buffers                   ... DOUBLE
Compression type for matrix containers    ... UNCOMPRESSED
Overall scaling of the MP2 energy         ...   1.000e+00
Calculating two index integrals           ... done (    0.046 sec)
Cholesky decomposition of V**-1           ... done (    0.571 sec)

-----------------
RI-TRANSFORMATION (AUX index driven)
-----------------

Dimension of the orbital-basis         ... 828
Dimension of the aux-basis             ... 2141
Transformation of internal/external MOs...   24-  76 to   77- 827
Number Format for Storage              ... Double (8 Byte)
Integral mode                          ... Direct

First Phase: integral generation and transformation of MO indices
  Aux angular momentum 0               ... done (    4.993 sec)
  Aux angular momentum 1               ... done (    8.357 sec)
  Aux angular momentum 2               ... done (   10.642 sec)
  Aux angular momentum 3               ... done (    8.250 sec)
  Aux angular momentum 4               ... done (    2.855 sec)
Closing buffer VIA ( 0.63 GB; CompressionRatio= 1.00)
  Phase 1 completed in    35.274 sec
Second Phase: sorting and transformation of aux index

IA-Transformation
Memory available                       ... 158 MB 
Max. # MO pairs treated in a batch     ... 11    
# of internal orbitals                 ... 53
# batches for internal orbitals        ... 5
Closing buffer IAV ( 0.63 GB; CompressionRatio= 1.00)
(ia|v) transformation done in    18.781 sec

  Phase 2 completed in    18.802 sec
RI-Integral transformation completed in    54.087 sec
Opening buffers                              ... done

Starting loop over batches of integrals:

Operator 0  - window                       ... ( 24- 76)x( 77-827)
Operator 0  - Memory available             ...   256 MB
Operator 0  - Memory needed per MO         ...  12.3 MB
Operator 0  - Number of orbitals per batch ... 13
Operator 0  - Number of batches            ... 5

OPERATOR  0   PASS   0:  MOs    24 ...   36
  Reading integrals       ... ok
  Internal MO  26
  Internal MO  29
  Internal MO  32
  Internal MO  35
OPERATOR  0   PASS   1:  MOs    37 ...   49
  Reading integrals       ... ok
  Internal MO  38
  Internal MO  41
  Internal MO  44
  Internal MO  47
OPERATOR  0   PASS   2:  MOs    50 ...   62
  Reading integrals       ... ok
  Internal MO  50
  Internal MO  53
  Internal MO  56
  Internal MO  59
  Internal MO  62
OPERATOR  0   PASS   3:  MOs    63 ...   75
  Reading integrals       ... ok
  Internal MO  65
  Internal MO  68
  Internal MO  71
  Internal MO  74
OPERATOR  0   PASS   4:  MOs    76 ...   76
  Reading integrals       ... ok
Time spent in pair loops =    88.966 sec
Deleting buffer (Ka|jb)[aa] ...done

-----------------------------------------------
 RI-MP2 CORRELATION ENERGY:     -3.521309680 Eh
-----------------------------------------------


-------
TIMINGS
-------

Total time                :  143.776 sec
Integral trafo            :   54.113 sec ( 37.6%)
I/O of integrals          :    0.881 sec (  0.6%)
K(i,j) Operators          :   61.328 sec ( 42.7%)
T(i,j) pair energies      :    9.086 sec (  6.3%)
V-calculation             :    0.046 sec (  0.0%)
V**(-1/2)                 :    0.571 sec (  0.4%)
Gamma(ia|P)               :    0.000 sec (  0.0%)
Gamma-Trafo               :    0.000 sec (  0.0%)
D(virtual)                :    0.000 sec (  0.0%)
D(internal)               :    0.000 sec (  0.0%)
W(virtual)                :    0.000 sec (  0.0%)
W(internal)               :    0.000 sec (  0.0%)
L(virtual)                :    0.000 sec (  0.0%)
L(internal)               :    0.000 sec (  0.0%)
G(D)                      :    0.000 sec (  0.0%)
G(Z)                      :    0.000 sec (  0.0%)
Z-Vector Solution         :    0.000 sec (  0.0%)
3-Index Derivative        :    0.000 sec (  0.0%)
2-Index Derivative        :    0.000 sec (  0.0%)
Separable Gradient        :    0.000 sec (  0.0%)


---------------------------------------
MP2 TOTAL ENERGY:    -1274.436897943 Eh
---------------------------------------

Maximum memory used throughout the entire MP2-calculation: 303.1 MB

-------------------------   --------------------
FINAL SINGLE POINT ENERGY     -1274.436897942738
-------------------------   --------------------


                            ***************************************
                            *     ORCA property calculations      *
                            ***************************************


  WARNING: The energy has been calculated at the MP2 level but the densities
           used in the property calculations are still SCF densities
           MP2 response densities have not been calculated 
           use %mp2 Density relaxed end
           or  %mp2 Density unrelaxed end

                                    ---------------------
                                    Active property flags
                                    ---------------------
   (+) Dipole Moment


------------------------------------------------------------------------------
                       ORCA ELECTRIC PROPERTIES CALCULATION
------------------------------------------------------------------------------

Dipole Moment Calculation                       ... on
Quadrupole Moment Calculation                   ... off
Polarizability Calculation                      ... off
GBWName                                         ... qm_input.solv.gbw
Electron density file                           ... qm_input.solv.scfp
The origin for moment calculation is the CENTER OF MASS  = (-30.122795, -6.105633 23.454880)

-------------
DIPOLE MOMENT
-------------
                                X             Y             Z
Electronic contribution:      3.60506      -4.35288      16.15067
Nuclear contribution   :     -3.50933       4.47736     -20.27813
                        -----------------------------------------
Total Dipole Moment    :      0.09573       0.12448      -4.12746
                        -----------------------------------------
Magnitude (a.u.)       :      4.13045
Magnitude (Debye)      :     10.49876



--------------------
Rotational spectrum 
--------------------
 
Rotational constants in cm-1:     0.009744     0.009563     0.005530 
Rotational constants in MHz :   292.126158   286.696507   165.778066 

 Dipole components along the rotational axes: 
x,y,z [a.u.] :     2.181525    -3.507176     0.035255 
x,y,z [Debye]:     5.544996    -8.914533     0.089612 

 

Timings for individual modules:

Sum of individual times         ...     6920.104 sec (= 115.335 min)
GTO integral calculation        ...      227.508 sec (=   3.792 min)   3.3 %
SCF iterations                  ...     6548.349 sec (= 109.139 min)  94.6 %
MP2 module                      ...      144.246 sec (=   2.404 min)   2.1 %
                             ****ORCA TERMINATED NORMALLY****
TOTAL RUN TIME: 0 days 1 hours 55 minutes 21 seconds 76 msec
