
                                        *****************
                                        * O   R   C   A *
                                        *****************

                                            #,                                       
                                            ###                                      
                                            ####                                     
                                            #####                                    
                                            ######                                   
                                           ########,                                 
                                     ,,################,,,,,                         
                               ,,#################################,,                 
                          ,,##########################################,,             
                       ,#########################################, ''#####,          
                    ,#############################################,,   '####,        
                  ,##################################################,,,,####,       
                ,###########''''           ''''###############################       
              ,#####''   ,,,,##########,,,,          '''####'''          '####       
            ,##' ,,,,###########################,,,                        '##       
           ' ,,###''''                  '''############,,,                           
         ,,##''                                '''############,,,,        ,,,,,,###''
      ,#''                                            '''#######################'''  
     '                                                          ''''####''''         
             ,#######,   #######,   ,#######,      ##                                
            ,#'     '#,  ##    ##  ,#'     '#,    #''#        ######   ,####,        
            ##       ##  ##   ,#'  ##            #'  '#       #        #'  '#        
            ##       ##  #######   ##           ,######,      #####,   #    #        
            '#,     ,#'  ##    ##  '#,     ,#' ,#      #,         ##   #,  ,#        
             '#######'   ##     ##  '#######'  #'      '#     #####' # '####'        



                  #######################################################
                  #                        -***-                        #
                  #          Department of theory and spectroscopy      #
                  #    Directorship and core code : Frank Neese         #
                  #        Max Planck Institute fuer Kohlenforschung    #
                  #                Kaiser Wilhelm Platz 1               #
                  #                 D-45470 Muelheim/Ruhr               #
                  #                      Germany                        #
                  #                                                     #
                  #                  All rights reserved                #
                  #                        -***-                        #
                  #######################################################


                         Program Version 5.0.0 -  RELEASE  -
                                (SVN: $Rev: 19529$)
                ($Date: 2021-06-28 11:36:33 +0200 (Mo, 28 Jun 2021) $)


 With contributions from (in alphabetic order):
   Daniel Aravena         : Magnetic Suceptibility
   Michael Atanasov       : Ab Initio Ligand Field Theory (pilot matlab implementation)
   Alexander A. Auer      : GIAO ZORA, VPT2 properties, NMR spectrum
   Ute Becker             : Parallelization
   Giovanni Bistoni       : ED, misc. LED, open-shell LED, HFLD
   Martin Brehm           : Molecular dynamics
   Dmytro Bykov           : SCF Hessian
   Vijay G. Chilkuri      : MRCI spin determinant printing, contributions to CSF-ICE
   Dipayan Datta          : RHF DLPNO-CCSD density
   Achintya Kumar Dutta   : EOM-CC, STEOM-CC
   Dmitry Ganyushin       : Spin-Orbit,Spin-Spin,Magnetic field MRCI
   Miquel Garcia          : C-PCM Hessian, Gaussian charge scheme
   Yang Guo               : DLPNO-NEVPT2, F12-NEVPT2, CIM, IAO-localization
   Andreas Hansen         : Spin unrestricted coupled pair/coupled cluster methods
   Benjamin Helmich-Paris : MC-RPA, TRAH-SCF, COSX integrals
   Lee Huntington         : MR-EOM, pCC
   Robert Izsak           : Overlap fitted RIJCOSX, COSX-SCS-MP3, EOM
   Marcus Kettner         : VPT2
   Christian Kollmar      : KDIIS, OOCD, Brueckner-CCSD(T), CCSD density, CASPT2, CASPT2-K
   Simone Kossmann        : Meta GGA functionals, TD-DFT gradient, OOMP2, MP2 Hessian
   Martin Krupicka        : Initial AUTO-CI
   Lucas Lang             : DCDCAS
   Marvin Lechner         : AUTO-CI (C++ implementation), FIC-MRCC
   Dagmar Lenk            : GEPOL surface, SMD
   Dimitrios Liakos       : Extrapolation schemes; Compound Job, initial MDCI parallelization
   Dimitrios Manganas     : Further ROCIS development; embedding schemes
   Dimitrios Pantazis     : SARC Basis sets
   Anastasios Papadopoulos: AUTO-CI, single reference methods and gradients
   Taras Petrenko         : DFT Hessian,TD-DFT gradient, ASA, ECA, R-Raman, ABS, FL, XAS/XES, NRVS
   Peter Pinski           : DLPNO-MP2, DLPNO-MP2 Gradient
   Christoph Reimann      : Effective Core Potentials
   Marius Retegan         : Local ZFS, SOC
   Christoph Riplinger    : Optimizer, TS searches, QM/MM, DLPNO-CCSD(T), (RO)-DLPNO pert. Triples
   Tobias Risthaus        : Range-separated hybrids, TD-DFT gradient, RPA, STAB
   Michael Roemelt        : Original ROCIS implementation
   Masaaki Saitow         : Open-shell DLPNO-CCSD energy and density
   Barbara Sandhoefer     : DKH picture change effects
   Avijit Sen             : IP-ROCIS
   Kantharuban Sivalingam : CASSCF convergence, NEVPT2, FIC-MRCI
   Bernardo de Souza      : ESD, SOC TD-DFT
   Georgi Stoychev        : AutoAux, RI-MP2 NMR
   Willem Van den Heuvel  : Paramagnetic NMR
   Boris Wezisla          : Elementary symmetry handling
   Frank Wennmohs         : Technical directorship


 We gratefully acknowledge several colleagues who have allowed us to
 interface, adapt or use parts of their codes:
   Stefan Grimme, W. Hujo, H. Kruse, P. Pracht,  : VdW corrections, initial TS optimization,
                  C. Bannwarth, S. Ehlert          DFT functionals, gCP, sTDA/sTD-DF
   Ed Valeev, F. Pavosevic, A. Kumar             : LibInt (2-el integral package), F12 methods
   Garnet Chan, S. Sharma, J. Yang, R. Olivares  : DMRG
   Ulf Ekstrom                                   : XCFun DFT Library
   Mihaly Kallay                                 : mrcc  (arbitrary order and MRCC methods)
   Jiri Pittner, Ondrej Demel                    : Mk-CCSD
   Frank Weinhold                                : gennbo (NPA and NBO analysis)
   Christopher J. Cramer and Donald G. Truhlar   : smd solvation model
   Lars Goerigk                                  : TD-DFT with DH, B97 family of functionals
   V. Asgeirsson, H. Jonsson                     : NEB implementation
   FAccTs GmbH                                   : IRC, NEB, NEB-TS, DLPNO-Multilevel, CI-OPT
                                                   MM, QMMM, 2- and 3-layer-ONIOM, Crystal-QMMM,
                                                   LR-CPCM, SF, NACMEs, symmetry and pop. for TD-DFT,
                                                   nearIR, NL-DFT gradient (VV10), updates on ESD,
                                                   ML-optimized integration grids
   S Lehtola, MJT Oliveira, MAL Marques          : LibXC Library
   Liviu Ungur et al                             : ANISO software


 Your calculation uses the libint2 library for the computation of 2-el integrals
 For citations please refer to: http://libint.valeyev.net

 Your ORCA version has been built with support for libXC version: 5.1.0
 For citations please refer to: https://tddft.org/programs/libxc/

 This ORCA versions uses:
   CBLAS   interface :  Fast vector & matrix operations
   LAPACKE interface :  Fast linear algebra routines
   SCALAPACK package :  Parallel linear algebra routines
   Shared memory     :  Shared parallel matrices
   BLAS/LAPACK       :  OpenBLAS 0.3.15  USE64BITINT DYNAMIC_ARCH NO_AFFINITY SkylakeX SINGLE_THREADED
        Core in use  :  SkylakeX
   Copyright (c) 2011-2014, The OpenBLAS Project


================================================================================

----- Orbital basis set information -----
Your calculation utilizes the basis: cc-pVTZ 
       H, B-Ne : Obtained from the ccRepo (grant-hill.group.shef.ac.uk/ccrepo) Feb. 2017
                 T. H. Dunning, Jr., J. Chem. Phys. 90, 1007 (1989)
            He : Obtained from the ccRepo (grant-hill.group.shef.ac.uk/ccrepo) Feb. 2017
                 D. E. Woon, T. H. Dunning, Jr., J. Chem. Phys. 100, 2975 (1994)
  Li-Be, Na-Mg : Obtained from the ccRepo (grant-hill.group.shef.ac.uk/ccrepo) Feb. 2017
                 B. P. Prascher, D. E. Woon, K. A. Peterson, T. H. Dunning, Jr., A. K. Wilson, Theor. Chem. Acc. 128, 69 (2011)
         Al-Ar : Obtained from the ccRepo (grant-hill.group.shef.ac.uk/ccrepo) Feb. 2017
                 D. E. Woon, T. H. Dunning, Jr., J. Chem. Phys. 98, 1358 (1993)
            Ca : Obtained from the Peterson Research Group Website (tyr0.chem.wsu.edu/~kipeters) Feb. 2017
                 J. Koput, K. A. Peterson, J. Phys. Chem. 106, 9595 (2002)
         Sc-Zn : Obtained from the ccRepo (grant-hill.group.shef.ac.uk/ccrepo) Feb. 2017
                 N. B. Balabanov, K. A. Peterson, J. Chem. Phys. 123, 064107 (2005)
                 N. B. Balabanov, K. A. Peterson, J. Chem. Phys. 125, 074110 (2006)
         Ga-Kr : Obtained from the ccRepo (grant-hill.group.shef.ac.uk/ccrepo) Feb. 2017
                 A. K. Wilson, D. E. Woon, K. A. Peterson, T. H. Dunning, Jr., J. Chem. Phys. 110, 7667 (1999)
             Y : Obtained from the ccRepo (grant-hill.group.shef.ac.uk/ccrepo) Feb. 2017
                 K. A. Peterson, D. Figgen, M. Dolg, H. Stoll, J. Chem. Phys. 126, 124101 (2007)
        Ag, Au : Obtained from the Peterson Research Group Website (tyr0.chem.wsu.edu/~kipeters) Feb. 2017
                 K. A. Peterson, C. Puzzarini, Theor. Chem. Acc. 114, 283 (2005)

----- AuxC basis set information -----
Your calculation utilizes the auxiliary basis: cc-pVTZ/C 
  Obtained from the EMSL Basis Set Exchange (bse.pnl.gov) Feb. 2017
  H-He, B-F, Al-Ar, Ga-Kr : F. Weigend, A. Kohn, C. Hattig, J. Chem. Phys. 116, 3175 (2002)
             Li-Be, Na-Mg : C. Haettig, Phys. Chem. Chem. Phys. 7, 59 (2005)
                       Ne : C. Haettig, Phys. Chem. Chem. Phys. 7, 59 (2005)
                            F. Weigend, A. Kohn, C. Hattig, J. Chem. Phys. 116, 3175 (2002)
                    Sc-Zn : J. G. Hill, J. A. Platts, J. Chem. Phys. 128, 044104 (2008)

================================================================================
                                        WARNINGS
                       Please study these warnings very carefully!
================================================================================


WARNING: No MP2 level density has been requested!
         To caclulate MP2 level properties use
         %mp2 Density relaxed end
         or
         %mp2 Density unrelaxed end

WARNING: Post HF methods need fully converged wavefunctions
  ===> : Setting SCFConvForced true
         You can overwrite this default with %scf ConvForced false 


INFO   : the flag for use of the SHARK integral package has been found!

================================================================================
                                       INPUT FILE
================================================================================
NAME = qm_input.vacu
|  1> ! RI-MP2 cc-pVTZ cc-pVTZ/c TightSCF KeepDens NoKeepInts
|  2> 
|  3> *xyz  0  1
|  4>     C   -16.4367196   -2.1279441    7.3340740
|  5>     C   -16.3752573   -3.4075912    8.2338759
|  6>     O   -15.8220352   -3.0171988    9.5596505
|  7>     C   -15.7579959   -3.9722846   10.5300779
|  8>     O   -16.4199030   -5.0220209   10.6273166
|  9>     C   -14.8928977   -3.4830244   11.7232149
| 10>     C   -13.8986726   -2.5455074   11.5880732
| 11>     C   -13.3434038   -1.8986088   10.3093198
| 12>     N   -13.3865677   -2.0906947   12.8010511
| 13>     C   -13.7049561   -2.5938581   14.0279900
| 14>     S   -13.0881259   -2.0493889   15.5114444
| 15>     N   -14.6403251   -3.5223417   14.1366314
| 16>     C   -15.4520008   -3.9436502   13.0529995
| 17>     C   -16.8924228   -3.6415790   13.3390682
| 18>     C   -17.3442061   -2.3783662   13.5274584
| 19>     C   -18.6727741   -2.1398339   13.8453254
| 20>     C   -19.4829814   -3.2372558   13.9280649
| 21>     C   -19.0516971   -4.5475259   13.9097340
| 22>     O   -20.0036456   -5.5085316   14.0097280
| 23>     C   -17.7689533   -4.7337384   13.5271991
| 24>     H   -17.0524033   -1.3692166    7.8325315
| 25>     H   -16.9763943   -2.4555636    6.4370755
| 26>     H   -15.4126886   -1.7915864    7.1305540
| 27>     H   -17.4041474   -3.6936497    8.4843708
| 28>     H   -15.9036432   -4.2682805    7.7439944
| 29>     H   -13.0459742   -2.7112111    9.6352251
| 30>     H   -12.3881682   -1.3944330   10.5004250
| 31>     H   -14.1168748   -1.2903017    9.8246596
| 32>     H   -12.7862443   -1.2760772   12.8455087
| 33>     H   -14.8849315   -3.8071964   15.0773715
| 34>     H   -15.3877440   -5.0381556   13.0195521
| 35>     H   -16.6501430   -1.5491348   13.4271665
| 36>     H   -19.1139689   -1.1474916   13.8450564
| 37>     H   -20.5075122   -2.9489352   14.1439440
| 38>     H   -19.6351901   -6.3408304   13.6658555
| 39>     H   -17.3841648   -5.7486763   13.4920514
| 40> *
| 41> 
| 42>                          ****END OF INPUT****
================================================================================

                       ****************************
                       * Single Point Calculation *
                       ****************************

---------------------------------
CARTESIAN COORDINATES (ANGSTROEM)
---------------------------------
  C    -16.436720   -2.127944    7.334074
  C    -16.375257   -3.407591    8.233876
  O    -15.822035   -3.017199    9.559651
  C    -15.757996   -3.972285   10.530078
  O    -16.419903   -5.022021   10.627317
  C    -14.892898   -3.483024   11.723215
  C    -13.898673   -2.545507   11.588073
  C    -13.343404   -1.898609   10.309320
  N    -13.386568   -2.090695   12.801051
  C    -13.704956   -2.593858   14.027990
  S    -13.088126   -2.049389   15.511444
  N    -14.640325   -3.522342   14.136631
  C    -15.452001   -3.943650   13.053000
  C    -16.892423   -3.641579   13.339068
  C    -17.344206   -2.378366   13.527458
  C    -18.672774   -2.139834   13.845325
  C    -19.482981   -3.237256   13.928065
  C    -19.051697   -4.547526   13.909734
  O    -20.003646   -5.508532   14.009728
  C    -17.768953   -4.733738   13.527199
  H    -17.052403   -1.369217    7.832531
  H    -16.976394   -2.455564    6.437075
  H    -15.412689   -1.791586    7.130554
  H    -17.404147   -3.693650    8.484371
  H    -15.903643   -4.268280    7.743994
  H    -13.045974   -2.711211    9.635225
  H    -12.388168   -1.394433   10.500425
  H    -14.116875   -1.290302    9.824660
  H    -12.786244   -1.276077   12.845509
  H    -14.884932   -3.807196   15.077371
  H    -15.387744   -5.038156   13.019552
  H    -16.650143   -1.549135   13.427167
  H    -19.113969   -1.147492   13.845056
  H    -20.507512   -2.948935   14.143944
  H    -19.635190   -6.340830   13.665855
  H    -17.384165   -5.748676   13.492051

----------------------------
CARTESIAN COORDINATES (A.U.)
----------------------------
  NO LB      ZA    FRAG     MASS         X           Y           Z
   0 C     6.0000    0    12.011  -31.060899   -4.021232   13.859391
   1 C     6.0000    0    12.011  -30.944752   -6.439414   15.559770
   2 O     8.0000    0    15.999  -29.899313   -5.701679   18.065121
   3 C     6.0000    0    12.011  -29.778297   -7.506530   19.898963
   4 O     8.0000    0    15.999  -31.029120   -9.490244   20.082718
   5 C     6.0000    0    12.011  -28.143498   -6.581962   22.153666
   6 C     6.0000    0    12.011  -26.264685   -4.810312   21.898285
   7 C     6.0000    0    12.011  -25.215379   -3.587851   19.481791
   8 N     7.0000    0    14.007  -25.296947   -3.950840   24.190481
   9 C     6.0000    0    12.011  -25.898614   -4.901681   26.509059
  10 S    16.0000    0    32.060  -24.732974   -3.872784   29.312382
  11 N     7.0000    0    14.007  -27.666205   -6.656261   26.714362
  12 C     6.0000    0    12.011  -29.200050   -7.452419   24.666594
  13 C     6.0000    0    12.011  -31.922053   -6.881587   25.207186
  14 C     6.0000    0    12.011  -32.775800   -4.494461   25.563192
  15 C     6.0000    0    12.011  -35.286429   -4.043700   26.163873
  16 C     6.0000    0    12.011  -36.817499   -6.117527   26.320228
  17 C     6.0000    0    12.011  -36.002490   -8.593579   26.285588
  18 O     8.0000    0    15.999  -37.801412  -10.409616   26.474549
  19 C     6.0000    0    12.011  -33.578455   -8.945469   25.562702
  20 H     1.0000    0     1.008  -32.224372   -2.587444   14.801339
  21 H     1.0000    0     1.008  -32.080736   -4.640343   12.164310
  22 H     1.0000    0     1.008  -29.125760   -3.385608   13.474794
  23 H     1.0000    0     1.008  -32.889072   -6.979986   16.033137
  24 H     1.0000    0     1.008  -30.053530   -8.065881   14.634029
  25 H     1.0000    0     1.008  -24.653318   -5.123446   18.207937
  26 H     1.0000    0     1.008  -23.410245   -2.635096   19.842928
  27 H     1.0000    0     1.008  -26.677027   -2.438317   18.565916
  28 H     1.0000    0     1.008  -24.162500   -2.411436   24.274493
  29 H     1.0000    0     1.008  -28.128444   -7.194559   28.492103
  30 H     1.0000    0     1.008  -29.078622   -9.520734   24.603388
  31 H     1.0000    0     1.008  -31.464210   -2.927441   25.373667
  32 H     1.0000    0     1.008  -36.120167   -2.168445   26.163365
  33 H     1.0000    0     1.008  -38.753582   -5.572680   26.728181
  34 H     1.0000    0     1.008  -37.105132  -11.982433   25.824724
  35 H     1.0000    0     1.008  -32.851311  -10.863424   25.496282

--------------------------------
INTERNAL COORDINATES (ANGSTROEM)
--------------------------------
 C      0   0   0     0.000000000000     0.00000000     0.00000000
 C      1   0   0     1.565540728983     0.00000000     0.00000000
 O      2   1   0     1.488670281799   108.18583635     0.00000000
 C      3   2   1     1.363091800275   117.88777131   176.09796752
 O      4   3   2     1.244798246041   128.42653332   337.53772900
 C      4   3   2     1.552851035907   110.63563061   168.00286787
 C      6   4   3     1.373202444594   122.87746823   333.88716541
 C      7   6   4     1.536883696623   129.11197292   353.81955670
 N      7   6   4     1.392990095648   113.78997240   170.42374951
 C      9   7   6     1.363790176195   125.24730479     6.64929245
 S     10   9   7     1.696338162708   125.69287418   179.97666624
 N     10   9   7     1.322421988408   119.87289509   354.73869780
 C     12  10   9     1.417947949976   123.41634486   353.12118541
 C     13  12  10     1.499299119280   110.13735307   242.31001318
 C     14  13  12     1.354734511149   122.32938488    61.66462126
 C     15  14  13     1.386733578758   120.78127595   182.70793340
 C     16  15  14     1.366607668804   116.34289418   358.78540451
 C     17  16  15     1.379546992413   125.20837475     9.68672781
 O     18  17  16     1.356368940267   116.90684099   179.65840810
 C     18  17  16     1.351458360924   115.55391450   346.88511618
 H      1   2   3     1.096901872096   109.04064323   302.25747131
 H      1   2   3     1.096900008024   104.19315818   187.61998497
 H      1   2   3     1.096903086745   108.70126861    66.26723214
 H      2   1   3     1.096901088625   107.91422400   110.02763038
 H      2   1   3     1.096900093215   113.67548811   229.15481616
 H      8   7   6     1.096900419131   107.30590659   306.11524759
 H      8   7   6     1.096899943605   111.29325230   195.06855222
 H      8   7   6     1.096900371600   110.26096132    65.06363486
 H      9   7   6     1.012899962529   121.24453341   192.20496300
 H     12  10   9     1.012900008284   116.39536787   184.56284425
 H     13  12  10     1.096900057226   106.63340021   128.60346564
 H     15  14  13     1.086004957048   119.07840573     2.65078609
 H     16  15  14     1.086000075634   123.11598181   190.34434400
 H     17  16  15     1.085999960566   110.98627138   182.11988562
 H     19  18  17     0.973000022722   108.31451608   159.56890164
 H     20  18  17     1.086000226245   118.30943052   180.29500550

---------------------------
INTERNAL COORDINATES (A.U.)
---------------------------
 C      0   0   0     0.000000000000     0.00000000     0.00000000
 C      1   0   0     2.958443229277     0.00000000     0.00000000
 O      2   1   0     2.813179136307   108.18583635     0.00000000
 C      3   2   1     2.575870197913   117.88777131   176.09796752
 O      4   3   2     2.352327777002   128.42653332   337.53772900
 C      4   3   2     2.934463184639   110.63563061   168.00286787
 C      6   4   3     2.594976546713   122.87746823   333.88716541
 C      7   6   4     2.904289286307   129.11197292   353.81955670
 N      7   6   4     2.632369788040   113.78997240   170.42374951
 C      9   7   6     2.577189937142   125.24730479     6.64929245
 S     10   9   7     3.205614558038   125.69287418   179.97666624
 N     10   9   7     2.499015391566   119.87289509   354.73869780
 C     12  10   9     2.679533297609   123.41634486   353.12118541
 C     13  12  10     2.833264728268   110.13735307   242.31001318
 C     14  13  12     2.560077210244   122.32938488    61.66462126
 C     15  14  13     2.620546684566   120.78127595   182.70793340
 C     16  15  14     2.582514226556   116.34289418   358.78540451
 C     17  16  15     2.606966004535   125.20837475     9.68672781
 O     18  17  16     2.563165833661   116.90684099   179.65840810
 C     18  17  16     2.553886183545   115.55391450   346.88511618
 H      1   2   3     2.072844134047   109.04064323   302.25747131
 H      1   2   3     2.072840611461   104.19315818   187.61998497
 H      1   2   3     2.072846429401   108.70126861    66.26723214
 H      2   1   3     2.072842653501   107.91422400   110.02763038
 H      2   1   3     2.072840772449   113.67548811   229.15481616
 H      8   7   6     2.072841388341   107.30590659   306.11524759
 H      8   7   6     2.072840489727   111.29325230   195.06855222
 H      8   7   6     2.072841298520   110.26096132    65.06363486
 H      9   7   6     1.914103530239   121.24453341   192.20496300
 H     12  10   9     1.914103616703   116.39536787   184.56284425
 H     13  12  10     2.072840704439   106.63340021   128.60346564
 H     15  14  13     2.052251948902   119.07840573     2.65078609
 H     16  15  14     2.052242724366   123.11598181   190.34434400
 H     17  16  15     2.052242506919   110.98627138   182.11988562
 H     19  18  17     1.838703571245   108.31451608   159.56890164
 H     20  18  17     2.052243008979   118.30943052   180.29500550

---------------------
BASIS SET INFORMATION
---------------------
There are 5 groups of distinct atoms

 Group   1 Type C   : 18s5p2d1f contracted to 4s3p2d1f pattern {8811/311/11/1}
 Group   2 Type O   : 18s5p2d1f contracted to 4s3p2d1f pattern {8811/311/11/1}
 Group   3 Type N   : 18s5p2d1f contracted to 4s3p2d1f pattern {8811/311/11/1}
 Group   4 Type S   : 41s16p2d1f contracted to 5s4p2d1f pattern {13131311/7711/11/1}
 Group   5 Type H   : 5s2p1d contracted to 3s2p1d pattern {311/11/1}

Atom   0C    basis set group =>   1
Atom   1C    basis set group =>   1
Atom   2O    basis set group =>   2
Atom   3C    basis set group =>   1
Atom   4O    basis set group =>   2
Atom   5C    basis set group =>   1
Atom   6C    basis set group =>   1
Atom   7C    basis set group =>   1
Atom   8N    basis set group =>   3
Atom   9C    basis set group =>   1
Atom  10S    basis set group =>   4
Atom  11N    basis set group =>   3
Atom  12C    basis set group =>   1
Atom  13C    basis set group =>   1
Atom  14C    basis set group =>   1
Atom  15C    basis set group =>   1
Atom  16C    basis set group =>   1
Atom  17C    basis set group =>   1
Atom  18O    basis set group =>   2
Atom  19C    basis set group =>   1
Atom  20H    basis set group =>   5
Atom  21H    basis set group =>   5
Atom  22H    basis set group =>   5
Atom  23H    basis set group =>   5
Atom  24H    basis set group =>   5
Atom  25H    basis set group =>   5
Atom  26H    basis set group =>   5
Atom  27H    basis set group =>   5
Atom  28H    basis set group =>   5
Atom  29H    basis set group =>   5
Atom  30H    basis set group =>   5
Atom  31H    basis set group =>   5
Atom  32H    basis set group =>   5
Atom  33H    basis set group =>   5
Atom  34H    basis set group =>   5
Atom  35H    basis set group =>   5
---------------------------------
AUXILIARY/C BASIS SET INFORMATION
---------------------------------
There are 5 groups of distinct atoms

 Group   1 Type C   : 8s6p5d3f1g contracted to 8s6p5d3f1g pattern {11111111/111111/11111/111/1}
 Group   2 Type O   : 8s6p5d3f1g contracted to 8s6p5d3f1g pattern {11111111/111111/11111/111/1}
 Group   3 Type N   : 8s6p5d3f1g contracted to 8s6p5d3f1g pattern {11111111/111111/11111/111/1}
 Group   4 Type S   : 10s8p7d5f2g contracted to 10s8p7d5f2g pattern {1111111111/11111111/1111111/11111/11}
 Group   5 Type H   : 4s3p2d1f contracted to 4s3p2d1f pattern {1111/111/11/1}

Atom   0C    basis set group =>   1
Atom   1C    basis set group =>   1
Atom   2O    basis set group =>   2
Atom   3C    basis set group =>   1
Atom   4O    basis set group =>   2
Atom   5C    basis set group =>   1
Atom   6C    basis set group =>   1
Atom   7C    basis set group =>   1
Atom   8N    basis set group =>   3
Atom   9C    basis set group =>   1
Atom  10S    basis set group =>   4
Atom  11N    basis set group =>   3
Atom  12C    basis set group =>   1
Atom  13C    basis set group =>   1
Atom  14C    basis set group =>   1
Atom  15C    basis set group =>   1
Atom  16C    basis set group =>   1
Atom  17C    basis set group =>   1
Atom  18O    basis set group =>   2
Atom  19C    basis set group =>   1
Atom  20H    basis set group =>   5
Atom  21H    basis set group =>   5
Atom  22H    basis set group =>   5
Atom  23H    basis set group =>   5
Atom  24H    basis set group =>   5
Atom  25H    basis set group =>   5
Atom  26H    basis set group =>   5
Atom  27H    basis set group =>   5
Atom  28H    basis set group =>   5
Atom  29H    basis set group =>   5
Atom  30H    basis set group =>   5
Atom  31H    basis set group =>   5
Atom  32H    basis set group =>   5
Atom  33H    basis set group =>   5
Atom  34H    basis set group =>   5
Atom  35H    basis set group =>   5
------------------------------------------------------------------------------
                           ORCA GTO INTEGRAL CALCULATION
------------------------------------------------------------------------------
------------------------------------------------------------------------------
                   ___                                                        
                  /   \      - P O W E R E D   B Y -                         
                 /     \                                                     
                 |  |  |   _    _      __       _____    __    __             
                 |  |  |  | |  | |    /  \     |  _  \  |  |  /  |          
                  \  \/   | |  | |   /    \    | | | |  |  | /  /          
                 / \  \   | |__| |  /  /\  \   | |_| |  |  |/  /          
                |  |  |   |  __  | /  /__\  \  |    /   |      \           
                |  |  |   | |  | | |   __   |  |    \   |  |\   \          
                \     /   | |  | | |  |  |  |  | |\  \  |  | \   \       
                 \___/    |_|  |_| |__|  |__|  |_| \__\ |__|  \__/        
                                                                              
                      - O R C A' S   B I G   F R I E N D -                    
                                      &                                       
                       - I N T E G R A L  F E E D E R -                       
                                                                              
 v1 FN, 2020, v2 2021                                                         
------------------------------------------------------------------------------


Reading SHARK input file qm_input.vacu.SHARKINP.tmp ... ok
----------------------
SHARK INTEGRAL PACKAGE
----------------------

Number of atoms                             ...     36
Number of basis functions                   ...    828
Number of shells                            ...    298
Maximum angular momentum                    ...      3
Integral batch strategy                     ... SHARK/LIBINT Hybrid
RI-J (if used) integral strategy            ... SPLIT-RIJ (Revised 2003 algorithm where possible)
Printlevel                                  ...      1
Contraction scheme used                     ... SEGMENTED contraction
Coulomb Range Separation                    ... NOT USED
Exchange Range Separation                   ... NOT USED
Finite Nucleus Model                        ... NOT USED
Auxiliary Coulomb fitting basis             ... NOT available
Auxiliary J/K fitting basis                 ... NOT available
Auxiliary Correlation fitting basis         ... AVAILABLE
   # of basis functions in Aux-C            ...   2141
   # of shells in Aux-C                     ...    629
   Maximum angular momentum in Aux-C        ...      4
Auxiliary 'external' fitting basis          ... NOT available
Integral threshold                          ...     2.500000e-11
Primitive cut-off                           ...     2.500000e-12
Primitive pair pre-selection threshold      ...     2.500000e-12

Calculating pre-screening integrals         ... done (  0.6 sec) Dimension = 298
Organizing shell pair data                  ... done (  0.4 sec)
Shell pair information
Total number of shell pairs                 ...     44551
Shell pairs after pre-screening             ...     32230
Total number of primitive shell pairs       ...    234348
Primitive shell pairs kept                  ...     93210
          la=0 lb=0:   6466 shell pairs
          la=1 lb=0:   8974 shell pairs
          la=1 lb=1:   3169 shell pairs
          la=2 lb=0:   5138 shell pairs
          la=2 lb=1:   3518 shell pairs
          la=2 lb=2:    993 shell pairs
          la=3 lb=0:   1855 shell pairs
          la=3 lb=1:   1265 shell pairs
          la=3 lb=2:    709 shell pairs
          la=3 lb=3:    143 shell pairs

Calculating one electron integrals          ... done (  0.4 sec)
Calculating RI/C V-Matrix + Cholesky decomp.... done (  0.4 sec)
Calculating Nuclear repulsion               ... done (  0.0 sec) ENN=   1686.608010504613 Eh

SHARK setup successfully completed in   1.9 seconds

Maximum memory used throughout the entire GTOINT-calculation: 476.4 MB
-------------------------------------------------------------------------------
                                 ORCA SCF
-------------------------------------------------------------------------------

------------
SCF SETTINGS
------------
Hamiltonian:
 Ab initio Hamiltonian  Method          .... Hartree-Fock(GTOs)


General Settings:
 Integral files         IntName         .... qm_input.vacu
 Hartree-Fock type      HFTyp           .... RHF
 Total Charge           Charge          ....    0
 Multiplicity           Mult            ....    1
 Number of Electrons    NEL             ....  154
 Basis Dimension        Dim             ....  828
 Nuclear Repulsion      ENuc            ....   1686.6080105046 Eh

Convergence Acceleration:
 DIIS                   CNVDIIS         .... on
   Start iteration      DIISMaxIt       ....    12
   Startup error        DIISStart       ....  0.200000
   # of expansion vecs  DIISMaxEq       ....     5
   Bias factor          DIISBfac        ....   1.050
   Max. coefficient     DIISMaxC        ....  10.000
 Trust-Rad. Augm. Hess. CNVTRAH         .... auto
   Auto Start mean grad. ratio tolernc. ....  1.125000
   Auto Start start iteration           ....    20
   Auto Start num. interpolation iter.  ....    10
   Max. Number of Micro iterations      ....    16
   Max. Number of Macro iterations      .... Maxiter - #DIIS iter
   Number of Davidson start vectors     ....     2
   Converg. threshold I  (grad. norm)   ....   1.000e-05
   Converg. threshold II (energy diff.) ....   1.000e-08
   Grad. Scal. Fac. for Micro threshold ....   0.100
   Minimum threshold for Micro iter.    ....   0.010
   NR start threshold (gradient norm)   ....   0.001
   Initial trust radius                 ....   0.400
   Minimum AH scaling param. (alpha)    ....   1.000
   Maximum AH scaling param. (alpha)    .... 1000.000
   Orbital update algorithm             .... Taylor
   White noise on init. David. guess    .... on
   Maximum white noise                  ....   0.010
   Quad. conv. algorithm                .... NR
 SOSCF                  CNVSOSCF        .... on
   Start iteration      SOSCFMaxIt      ....   150
   Startup grad/error   SOSCFStart      ....  0.003300
 Level Shifting         CNVShift        .... on
   Level shift para.    LevelShift      ....    0.2500
   Turn off err/grad.   ShiftErr        ....    0.0010
 Zerner damping         CNVZerner       .... off
 Static damping         CNVDamp         .... on
   Fraction old density DampFac         ....    0.7000
   Max. Damping (<1)    DampMax         ....    0.9800
   Min. Damping (>=0)   DampMin         ....    0.0000
   Turn off err/grad.   DampErr         ....    0.1000
 Fernandez-Rico         CNVRico         .... off

SCF Procedure:
 Maximum # iterations   MaxIter         ....   125
 SCF integral mode      SCFMode         .... Direct
   Integral package                     .... SHARK and LIBINT hybrid scheme
 Reset frequency        DirectResetFreq ....    20
 Integral Threshold     Thresh          ....  2.500e-11 Eh
 Primitive CutOff       TCut            ....  2.500e-12 Eh

Convergence Tolerance:
 Convergence Check Mode ConvCheckMode   .... Total+1el-Energy
 Convergence forced     ConvForced      .... 1
 Energy Change          TolE            ....  1.000e-08 Eh
 1-El. energy change                    ....  1.000e-05 Eh
 Orbital Gradient       TolG            ....  1.000e-05
 Orbital Rotation angle TolX            ....  1.000e-05
 DIIS Error             TolErr          ....  5.000e-07


Diagonalization of the overlap matrix:
Smallest eigenvalue                        ... 4.301e-05
Time for diagonalization                   ...    0.157 sec
Threshold for overlap eigenvalues          ... 1.000e-08
Number of eigenvalues below threshold      ... 0
Time for construction of square roots      ...    0.066 sec
Total time needed                          ...    0.226 sec

Time for model grid setup =    1.656 sec

------------------------------
INITIAL GUESS: MODEL POTENTIAL
------------------------------
Loading Hartree-Fock densities                     ... done
Calculating cut-offs                               ... done
Initializing the effective Hamiltonian             ... done
Setting up the integral package (SHARK)            ... done
Starting the Coulomb interaction                   ... done (   4.5 sec)
Reading the grid                                   ... done
Mapping shells                                     ... done
Starting the XC term evaluation                    ... done (   1.7 sec)
Transforming the Hamiltonian                       ... done (   0.1 sec)
Diagonalizing the Hamiltonian                      ... done (   0.2 sec)
Back transforming the eigenvectors                 ... done (   0.0 sec)
Now organizing SCF variables                       ... done
                      ------------------
                      INITIAL GUESS DONE (   8.1 sec)
                      ------------------
--------------
SCF ITERATIONS
--------------
ITER       Energy         Delta-E        Max-DP      RMS-DP      [F,P]     Damp
               ***  Starting incremental Fock matrix formation  ***
  0  -1269.9543712761   0.000000000000 0.04900517  0.00046124  0.3071003 0.7000
  1  -1270.2302750403  -0.275903764238 0.03971936  0.00038014  0.1783872 0.7000
                               ***Turning on DIIS***
  2  -1270.4016176502  -0.171342609914 0.02580129  0.00025275  0.1102362 0.7000
  3  -1272.5550565245  -2.153438874245 0.06327617  0.00053438  0.0832460 0.0000
  4  -1270.7140996646   1.840956859872 0.01256111  0.00011411  0.0068993 0.0000
  5  -1270.7808968106  -0.066797146013 0.00476101  0.00005697  0.0046388 0.0000
                      *** Initiating the SOSCF procedure ***
                           *** Shutting down DIIS ***
                      *** Re-Reading the Fockian *** 
                      *** Removing any level shift *** 
ITER      Energy       Delta-E        Grad      Rot      Max-DP    RMS-DP
  6  -1270.75709056   0.0238062480  0.001837  0.001837  0.001753  0.000028
               *** Restarting incremental Fock matrix formation ***
  7  -1270.77308090  -0.0159903415  0.001073  0.002809  0.001487  0.000018
  8  -1270.77313616  -0.0000552528  0.000505  0.003477  0.001764  0.000020
  9  -1270.77315851  -0.0000223559  0.000187  0.000345  0.000415  0.000005
 10  -1270.77316141  -0.0000029014  0.000047  0.000134  0.000136  0.000002
 11  -1270.77316172  -0.0000003058  0.000020  0.000118  0.000072  0.000001
 12  -1270.77316180  -0.0000000829  0.000011  0.000043  0.000033  0.000000
 13  -1270.77316181  -0.0000000080  0.000004  0.000008  0.000012  0.000000
                  ***Gradient check signals convergence***
              ***Rediagonalizing the Fockian in SOSCF/NRSCF***

               *****************************************************
               *                     SUCCESS                       *
               *           SCF CONVERGED AFTER  14 CYCLES          *
               *****************************************************


----------------
TOTAL SCF ENERGY
----------------

Total Energy       :        -1270.77316181 Eh          -34579.49572 eV

Components:
Nuclear Repulsion  :         1686.60801050 Eh           45894.93722 eV
Electronic Energy  :        -2957.38117231 Eh          -80474.43294 eV
One Electron Energy:        -5094.43889224 Eh         -138626.72990 eV
Two Electron Energy:         2137.05771993 Eh           58152.29696 eV

Virial components:
Potential Energy   :        -2540.16130045 Eh          -69121.30304 eV
Kinetic Energy     :         1269.38813864 Eh           34541.80732 eV
Virial Ratio       :            2.00109110


---------------
SCF CONVERGENCE
---------------

  Last Energy change         ...    2.7162e-09  Tolerance :   1.0000e-08
  Last MAX-Density change    ...    6.3346e-06  Tolerance :   1.0000e-07
  Last RMS-Density change    ...    5.7995e-08  Tolerance :   5.0000e-09
  Last Orbital Gradient      ...    1.3163e-06  Tolerance :   1.0000e-05
  Last Orbital Rotation      ...    4.1053e-06  Tolerance :   1.0000e-05

             **** THE GBW FILE WAS UPDATED (qm_input.vacu.gbw) ****
             **** DENSITY qm_input.vacu.scfp WAS UPDATED ****
             **** ENERGY FILE WAS UPDATED (qm_input.vacu.en.tmp) ****
             **** THE GBW FILE WAS UPDATED (qm_input.vacu.gbw) ****
             **** DENSITY qm_input.vacu.scfp WAS UPDATED ****
----------------
ORBITAL ENERGIES
----------------

  NO   OCC          E(Eh)            E(eV) 
   0   2.0000     -91.877761     -2500.1210 
   1   2.0000     -20.617345      -561.0265 
   2   2.0000     -20.590561      -560.2977 
   3   2.0000     -20.553017      -559.2760 
   4   2.0000     -15.629022      -425.2873 
   5   2.0000     -15.604749      -424.6268 
   6   2.0000     -11.404557      -310.3338 
   7   2.0000     -11.376660      -309.5746 
   8   2.0000     -11.336928      -308.4935 
   9   2.0000     -11.312902      -307.8397 
  10   2.0000     -11.295096      -307.3552 
  11   2.0000     -11.292868      -307.2946 
  12   2.0000     -11.267912      -306.6155 
  13   2.0000     -11.261625      -306.4444 
  14   2.0000     -11.249649      -306.1185 
  15   2.0000     -11.241746      -305.9035 
  16   2.0000     -11.234649      -305.7104 
  17   2.0000     -11.230613      -305.6005 
  18   2.0000     -11.224900      -305.4451 
  19   2.0000     -11.222208      -305.3718 
  20   2.0000      -8.881940      -241.6899 
  21   2.0000      -6.563451      -178.6006 
  22   2.0000      -6.561436      -178.5458 
  23   2.0000      -6.560974      -178.5332 
  24   2.0000      -1.445834       -39.3431 
  25   2.0000      -1.408233       -38.3200 
  26   2.0000      -1.354357       -36.8539 
  27   2.0000      -1.351496       -36.7761 
  28   2.0000      -1.256079       -34.1797 
  29   2.0000      -1.168659       -31.8008 
  30   2.0000      -1.117577       -30.4108 
  31   2.0000      -1.050695       -28.5909 
  32   2.0000      -1.042131       -28.3578 
  33   2.0000      -1.022179       -27.8149 
  34   2.0000      -1.001627       -27.2557 
  35   2.0000      -0.971721       -26.4419 
  36   2.0000      -0.921202       -25.0672 
  37   2.0000      -0.888238       -24.1702 
  38   2.0000      -0.855061       -23.2674 
  39   2.0000      -0.853398       -23.2221 
  40   2.0000      -0.823421       -22.4064 
  41   2.0000      -0.810114       -22.0443 
  42   2.0000      -0.758871       -20.6499 
  43   2.0000      -0.742865       -20.2144 
  44   2.0000      -0.736901       -20.0521 
  45   2.0000      -0.703669       -19.1478 
  46   2.0000      -0.685867       -18.6634 
  47   2.0000      -0.681593       -18.5471 
  48   2.0000      -0.669041       -18.2055 
  49   2.0000      -0.659547       -17.9472 
  50   2.0000      -0.648988       -17.6599 
  51   2.0000      -0.641683       -17.4611 
  52   2.0000      -0.640391       -17.4259 
  53   2.0000      -0.618949       -16.8425 
  54   2.0000      -0.605434       -16.4747 
  55   2.0000      -0.600101       -16.3296 
  56   2.0000      -0.596743       -16.2382 
  57   2.0000      -0.583253       -15.8711 
  58   2.0000      -0.574276       -15.6269 
  59   2.0000      -0.569683       -15.5019 
  60   2.0000      -0.560946       -15.2641 
  61   2.0000      -0.548848       -14.9349 
  62   2.0000      -0.540514       -14.7081 
  63   2.0000      -0.527853       -14.3636 
  64   2.0000      -0.515672       -14.0322 
  65   2.0000      -0.510805       -13.8997 
  66   2.0000      -0.501758       -13.6535 
  67   2.0000      -0.492119       -13.3912 
  68   2.0000      -0.488557       -13.2943 
  69   2.0000      -0.472365       -12.8537 
  70   2.0000      -0.463326       -12.6077 
  71   2.0000      -0.451967       -12.2986 
  72   2.0000      -0.345777        -9.4091 
  73   2.0000      -0.339136        -9.2283 
  74   2.0000      -0.328089        -8.9277 
  75   2.0000      -0.315775        -8.5927 
  76   2.0000      -0.305730        -8.3193 
  77   0.0000       0.076957         2.0941 
  78   0.0000       0.112397         3.0585 
  79   0.0000       0.128660         3.5010 
  80   0.0000       0.132471         3.6047 
  81   0.0000       0.135856         3.6968 
  82   0.0000       0.141263         3.8440 
  83   0.0000       0.154780         4.2118 
  84   0.0000       0.159702         4.3457 
  85   0.0000       0.162420         4.4197 
  86   0.0000       0.168039         4.5726 
  87   0.0000       0.172315         4.6889 
  88   0.0000       0.183936         5.0051 
  89   0.0000       0.190777         5.1913 
  90   0.0000       0.195016         5.3066 
  91   0.0000       0.206062         5.6072 
  92   0.0000       0.208075         5.6620 
  93   0.0000       0.210637         5.7317 
  94   0.0000       0.220766         6.0073 
  95   0.0000       0.227444         6.1891 
  96   0.0000       0.237908         6.4738 
  97   0.0000       0.241992         6.5849 
  98   0.0000       0.247542         6.7360 
  99   0.0000       0.258803         7.0424 
 100   0.0000       0.290220         7.8973 
 101   0.0000       0.304750         8.2927 
 102   0.0000       0.311237         8.4692 
 103   0.0000       0.321822         8.7572 
 104   0.0000       0.332748         9.0545 
 105   0.0000       0.338866         9.2210 
 106   0.0000       0.347212         9.4481 
 107   0.0000       0.350651         9.5417 
 108   0.0000       0.356716         9.7067 
 109   0.0000       0.365941         9.9578 
 110   0.0000       0.370538        10.0828 
 111   0.0000       0.381340        10.3768 
 112   0.0000       0.381626        10.3846 
 113   0.0000       0.390768        10.6333 
 114   0.0000       0.391287        10.6475 
 115   0.0000       0.406106        11.0507 
 116   0.0000       0.417494        11.3606 
 117   0.0000       0.424096        11.5403 
 118   0.0000       0.426933        11.6174 
 119   0.0000       0.430096        11.7035 
 120   0.0000       0.436097        11.8668 
 121   0.0000       0.442069        12.0293 
 122   0.0000       0.454507        12.3678 
 123   0.0000       0.460263        12.5244 
 124   0.0000       0.466102        12.6833 
 125   0.0000       0.475248        12.9322 
 126   0.0000       0.482907        13.1406 
 127   0.0000       0.485123        13.2009 
 128   0.0000       0.488894        13.3035 
 129   0.0000       0.493248        13.4220 
 130   0.0000       0.499736        13.5985 
 131   0.0000       0.507133        13.7998 
 132   0.0000       0.511477        13.9180 
 133   0.0000       0.517380        14.0786 
 134   0.0000       0.519928        14.1480 
 135   0.0000       0.521765        14.1980 
 136   0.0000       0.526536        14.3278 
 137   0.0000       0.537150        14.6166 
 138   0.0000       0.544246        14.8097 
 139   0.0000       0.549259        14.9461 
 140   0.0000       0.551521        15.0076 
 141   0.0000       0.561214        15.2714 
 142   0.0000       0.565099        15.3771 
 143   0.0000       0.570250        15.5173 
 144   0.0000       0.572319        15.5736 
 145   0.0000       0.577418        15.7123 
 146   0.0000       0.586525        15.9602 
 147   0.0000       0.589286        16.0353 
 148   0.0000       0.593040        16.1374 
 149   0.0000       0.597995        16.2723 
 150   0.0000       0.599257        16.3066 
 151   0.0000       0.606080        16.4923 
 152   0.0000       0.608701        16.5636 
 153   0.0000       0.611631        16.6433 
 154   0.0000       0.614347        16.7172 
 155   0.0000       0.618163        16.8211 
 156   0.0000       0.623910        16.9774 
 157   0.0000       0.628900        17.1132 
 158   0.0000       0.637792        17.3552 
 159   0.0000       0.640003        17.4154 
 160   0.0000       0.641258        17.4495 
 161   0.0000       0.643683        17.5155 
 162   0.0000       0.646091        17.5810 
 163   0.0000       0.654008        17.7965 
 164   0.0000       0.655343        17.8328 
 165   0.0000       0.659042        17.9334 
 166   0.0000       0.671376        18.2691 
 167   0.0000       0.674390        18.3511 
 168   0.0000       0.675726        18.3874 
 169   0.0000       0.682322        18.5669 
 170   0.0000       0.690328        18.7848 
 171   0.0000       0.701780        19.0964 
 172   0.0000       0.714022        19.4295 
 173   0.0000       0.718392        19.5484 
 174   0.0000       0.723296        19.6819 
 175   0.0000       0.733978        19.9726 
 176   0.0000       0.736702        20.0467 
 177   0.0000       0.747692        20.3457 
 178   0.0000       0.757136        20.6027 
 179   0.0000       0.759151        20.6576 
 180   0.0000       0.765562        20.8320 
 181   0.0000       0.773644        21.0519 
 182   0.0000       0.776475        21.1290 
 183   0.0000       0.780706        21.2441 
 184   0.0000       0.787667        21.4335 
 185   0.0000       0.806050        21.9337 
 186   0.0000       0.808244        21.9934 
 187   0.0000       0.815804        22.1992 
 188   0.0000       0.824724        22.4419 
 189   0.0000       0.832265        22.6471 
 190   0.0000       0.838561        22.8184 
 191   0.0000       0.841201        22.8903 
 192   0.0000       0.859705        23.3938 
 193   0.0000       0.863782        23.5047 
 194   0.0000       0.870407        23.6850 
 195   0.0000       0.870721        23.6935 
 196   0.0000       0.887548        24.1514 
 197   0.0000       0.896331        24.3904 
 198   0.0000       0.901585        24.5334 
 199   0.0000       0.907101        24.6835 
 200   0.0000       0.918044        24.9812 
 201   0.0000       0.924042        25.1445 
 202   0.0000       0.934906        25.4401 
 203   0.0000       0.936126        25.4733 
 204   0.0000       0.945094        25.7173 
 205   0.0000       0.950436        25.8627 
 206   0.0000       0.959328        26.1046 
 207   0.0000       0.961460        26.1627 
 208   0.0000       0.971576        26.4379 
 209   0.0000       0.973444        26.4888 
 210   0.0000       0.980617        26.6839 
 211   0.0000       0.981726        26.7141 
 212   0.0000       0.995515        27.0893 
 213   0.0000       0.996137        27.1063 
 214   0.0000       1.001753        27.2591 
 215   0.0000       1.015837        27.6423 
 216   0.0000       1.026002        27.9189 
 217   0.0000       1.028276        27.9808 
 218   0.0000       1.034439        28.1485 
 219   0.0000       1.049415        28.5560 
 220   0.0000       1.053890        28.6778 
 221   0.0000       1.055561        28.7233 
 222   0.0000       1.061538        28.8859 
 223   0.0000       1.075735        29.2722 
 224   0.0000       1.081704        29.4347 
 225   0.0000       1.086674        29.5699 
 226   0.0000       1.098964        29.9043 
 227   0.0000       1.106575        30.1114 
 228   0.0000       1.108138        30.1540 
 229   0.0000       1.123729        30.5782 
 230   0.0000       1.126878        30.6639 
 231   0.0000       1.131755        30.7966 
 232   0.0000       1.136482        30.9253 
 233   0.0000       1.148033        31.2396 
 234   0.0000       1.155631        31.4463 
 235   0.0000       1.158880        31.5347 
 236   0.0000       1.163236        31.6532 
 237   0.0000       1.175901        31.9979 
 238   0.0000       1.181897        32.1611 
 239   0.0000       1.186450        32.2849 
 240   0.0000       1.191239        32.4153 
 241   0.0000       1.195860        32.5410 
 242   0.0000       1.207237        32.8506 
 243   0.0000       1.213730        33.0273 
 244   0.0000       1.217141        33.1201 
 245   0.0000       1.220938        33.2234 
 246   0.0000       1.226953        33.3871 
 247   0.0000       1.232294        33.5324 
 248   0.0000       1.238376        33.6979 
 249   0.0000       1.249356        33.9967 
 250   0.0000       1.255834        34.1730 
 251   0.0000       1.261370        34.3236 
 252   0.0000       1.264628        34.4123 
 253   0.0000       1.280733        34.8505 
 254   0.0000       1.288411        35.0594 
 255   0.0000       1.293868        35.2079 
 256   0.0000       1.300992        35.4018 
 257   0.0000       1.314517        35.7698 
 258   0.0000       1.316817        35.8324 
 259   0.0000       1.322232        35.9798 
 260   0.0000       1.327901        36.1340 
 261   0.0000       1.339179        36.4409 
 262   0.0000       1.344989        36.5990 
 263   0.0000       1.353913        36.8418 
 264   0.0000       1.358670        36.9713 
 265   0.0000       1.367721        37.2176 
 266   0.0000       1.373060        37.3629 
 267   0.0000       1.375534        37.4302 
 268   0.0000       1.392019        37.8788 
 269   0.0000       1.394222        37.9387 
 270   0.0000       1.415885        38.5282 
 271   0.0000       1.428032        38.8587 
 272   0.0000       1.437411        39.1139 
 273   0.0000       1.446599        39.3639 
 274   0.0000       1.455470        39.6054 
 275   0.0000       1.461663        39.7739 
 276   0.0000       1.470707        40.0200 
 277   0.0000       1.477810        40.2132 
 278   0.0000       1.481535        40.3146 
 279   0.0000       1.484014        40.3821 
 280   0.0000       1.489441        40.5298 
 281   0.0000       1.490675        40.5633 
 282   0.0000       1.500143        40.8210 
 283   0.0000       1.508571        41.0503 
 284   0.0000       1.514222        41.2041 
 285   0.0000       1.521824        41.4109 
 286   0.0000       1.526064        41.5263 
 287   0.0000       1.538791        41.8726 
 288   0.0000       1.543572        42.0027 
 289   0.0000       1.551560        42.2201 
 290   0.0000       1.560191        42.4550 
 291   0.0000       1.561110        42.4800 
 292   0.0000       1.571071        42.7510 
 293   0.0000       1.577942        42.9380 
 294   0.0000       1.579598        42.9830 
 295   0.0000       1.589215        43.2447 
 296   0.0000       1.596953        43.4553 
 297   0.0000       1.613745        43.9122 
 298   0.0000       1.626506        44.2595 
 299   0.0000       1.627878        44.2968 
 300   0.0000       1.633360        44.4460 
 301   0.0000       1.641808        44.6759 
 302   0.0000       1.643638        44.7257 
 303   0.0000       1.650489        44.9121 
 304   0.0000       1.656305        45.0703 
 305   0.0000       1.666019        45.3347 
 306   0.0000       1.672604        45.5139 
 307   0.0000       1.680368        45.7252 
 308   0.0000       1.687008        45.9058 
 309   0.0000       1.698293        46.2129 
 310   0.0000       1.706741        46.4428 
 311   0.0000       1.724180        46.9173 
 312   0.0000       1.730379        47.0860 
 313   0.0000       1.731567        47.1183 
 314   0.0000       1.739793        47.3422 
 315   0.0000       1.757057        47.8119 
 316   0.0000       1.761947        47.9450 
 317   0.0000       1.772150        48.2227 
 318   0.0000       1.780130        48.4398 
 319   0.0000       1.791249        48.7424 
 320   0.0000       1.810273        49.2600 
 321   0.0000       1.815691        49.4075 
 322   0.0000       1.819343        49.5068 
 323   0.0000       1.828115        49.7455 
 324   0.0000       1.848636        50.3039 
 325   0.0000       1.851053        50.3697 
 326   0.0000       1.871209        50.9182 
 327   0.0000       1.904795        51.8321 
 328   0.0000       1.909682        51.9651 
 329   0.0000       1.920196        52.2512 
 330   0.0000       1.930041        52.5191 
 331   0.0000       1.933681        52.6181 
 332   0.0000       1.943209        52.8774 
 333   0.0000       1.954605        53.1875 
 334   0.0000       1.957266        53.2599 
 335   0.0000       1.970321        53.6152 
 336   0.0000       1.981519        53.9199 
 337   0.0000       1.996702        54.3330 
 338   0.0000       2.003254        54.5113 
 339   0.0000       2.011729        54.7419 
 340   0.0000       2.028919        55.2097 
 341   0.0000       2.034750        55.3683 
 342   0.0000       2.047147        55.7057 
 343   0.0000       2.063500        56.1507 
 344   0.0000       2.077222        56.5241 
 345   0.0000       2.099168        57.1213 
 346   0.0000       2.101767        57.1920 
 347   0.0000       2.123204        57.7753 
 348   0.0000       2.137945        58.1764 
 349   0.0000       2.160333        58.7856 
 350   0.0000       2.180063        59.3225 
 351   0.0000       2.195838        59.7518 
 352   0.0000       2.205547        60.0160 
 353   0.0000       2.216303        60.3087 
 354   0.0000       2.224964        60.5443 
 355   0.0000       2.252247        61.2867 
 356   0.0000       2.285161        62.1824 
 357   0.0000       2.292452        62.3808 
 358   0.0000       2.295953        62.4761 
 359   0.0000       2.308104        62.8067 
 360   0.0000       2.311748        62.9059 
 361   0.0000       2.331234        63.4361 
 362   0.0000       2.337838        63.6158 
 363   0.0000       2.348841        63.9152 
 364   0.0000       2.370434        64.5028 
 365   0.0000       2.383667        64.8629 
 366   0.0000       2.391671        65.0807 
 367   0.0000       2.396404        65.2095 
 368   0.0000       2.405125        65.4468 
 369   0.0000       2.428797        66.0909 
 370   0.0000       2.450136        66.6716 
 371   0.0000       2.456357        66.8409 
 372   0.0000       2.469750        67.2053 
 373   0.0000       2.485312        67.6288 
 374   0.0000       2.492291        67.8187 
 375   0.0000       2.497229        67.9531 
 376   0.0000       2.512621        68.3719 
 377   0.0000       2.521557        68.6151 
 378   0.0000       2.544263        69.2329 
 379   0.0000       2.558571        69.6223 
 380   0.0000       2.564904        69.7946 
 381   0.0000       2.576006        70.0967 
 382   0.0000       2.591337        70.5139 
 383   0.0000       2.598151        70.6993 
 384   0.0000       2.614068        71.1324 
 385   0.0000       2.621032        71.3219 
 386   0.0000       2.633013        71.6479 
 387   0.0000       2.644667        71.9650 
 388   0.0000       2.656886        72.2976 
 389   0.0000       2.661822        72.4319 
 390   0.0000       2.679158        72.9036 
 391   0.0000       2.689676        73.1898 
 392   0.0000       2.702990        73.5521 
 393   0.0000       2.712051        73.7987 
 394   0.0000       2.721485        74.0554 
 395   0.0000       2.728952        74.2586 
 396   0.0000       2.733623        74.3857 
 397   0.0000       2.747641        74.7671 
 398   0.0000       2.753113        74.9160 
 399   0.0000       2.760137        75.1071 
 400   0.0000       2.769423        75.3598 
 401   0.0000       2.779481        75.6335 
 402   0.0000       2.787439        75.8501 
 403   0.0000       2.804574        76.3163 
 404   0.0000       2.815676        76.6185 
 405   0.0000       2.819366        76.7189 
 406   0.0000       2.828316        76.9624 
 407   0.0000       2.830449        77.0204 
 408   0.0000       2.836036        77.1725 
 409   0.0000       2.857421        77.7544 
 410   0.0000       2.864867        77.9570 
 411   0.0000       2.871685        78.1425 
 412   0.0000       2.883812        78.4725 
 413   0.0000       2.887866        78.5828 
 414   0.0000       2.898928        78.8838 
 415   0.0000       2.908876        79.1545 
 416   0.0000       2.913445        79.2789 
 417   0.0000       2.923944        79.5646 
 418   0.0000       2.935376        79.8756 
 419   0.0000       2.942792        80.0774 
 420   0.0000       2.961798        80.5946 
 421   0.0000       2.974683        80.9452 
 422   0.0000       2.981289        81.1250 
 423   0.0000       2.989507        81.3486 
 424   0.0000       3.000865        81.6577 
 425   0.0000       3.008313        81.8603 
 426   0.0000       3.009776        81.9002 
 427   0.0000       3.020426        82.1900 
 428   0.0000       3.027464        82.3815 
 429   0.0000       3.031823        82.5001 
 430   0.0000       3.042832        82.7997 
 431   0.0000       3.054730        83.1234 
 432   0.0000       3.061679        83.3125 
 433   0.0000       3.064120        83.3789 
 434   0.0000       3.073242        83.6272 
 435   0.0000       3.076951        83.7281 
 436   0.0000       3.094147        84.1960 
 437   0.0000       3.097266        84.2809 
 438   0.0000       3.107639        84.5632 
 439   0.0000       3.112770        84.7028 
 440   0.0000       3.117046        84.8191 
 441   0.0000       3.125793        85.0572 
 442   0.0000       3.130714        85.1911 
 443   0.0000       3.134184        85.2855 
 444   0.0000       3.140068        85.4456 
 445   0.0000       3.151515        85.7571 
 446   0.0000       3.157436        85.9182 
 447   0.0000       3.168730        86.2255 
 448   0.0000       3.176205        86.4289 
 449   0.0000       3.188587        86.7659 
 450   0.0000       3.194271        86.9205 
 451   0.0000       3.208527        87.3085 
 452   0.0000       3.209020        87.3219 
 453   0.0000       3.218481        87.5793 
 454   0.0000       3.230802        87.9146 
 455   0.0000       3.233760        87.9951 
 456   0.0000       3.237631        88.1004 
 457   0.0000       3.248349        88.3921 
 458   0.0000       3.251922        88.4893 
 459   0.0000       3.261010        88.7366 
 460   0.0000       3.266688        88.8911 
 461   0.0000       3.274341        89.0993 
 462   0.0000       3.276901        89.1690 
 463   0.0000       3.289697        89.5172 
 464   0.0000       3.296011        89.6890 
 465   0.0000       3.301160        89.8291 
 466   0.0000       3.306599        89.9771 
 467   0.0000       3.314122        90.1818 
 468   0.0000       3.319052        90.3160 
 469   0.0000       3.331325        90.6500 
 470   0.0000       3.333374        90.7057 
 471   0.0000       3.335186        90.7550 
 472   0.0000       3.350494        91.1716 
 473   0.0000       3.358947        91.4016 
 474   0.0000       3.361592        91.4736 
 475   0.0000       3.364983        91.5658 
 476   0.0000       3.368285        91.6557 
 477   0.0000       3.378765        91.9409 
 478   0.0000       3.387544        92.1798 
 479   0.0000       3.389781        92.2406 
 480   0.0000       3.396039        92.4109 
 481   0.0000       3.399423        92.5030 
 482   0.0000       3.403282        92.6080 
 483   0.0000       3.414697        92.9186 
 484   0.0000       3.420073        93.0649 
 485   0.0000       3.424769        93.1927 
 486   0.0000       3.432527        93.4038 
 487   0.0000       3.433852        93.4399 
 488   0.0000       3.439196        93.5853 
 489   0.0000       3.441634        93.6516 
 490   0.0000       3.449759        93.8727 
 491   0.0000       3.458834        94.1197 
 492   0.0000       3.462835        94.2285 
 493   0.0000       3.470032        94.4244 
 494   0.0000       3.476486        94.6000 
 495   0.0000       3.480471        94.7084 
 496   0.0000       3.484604        94.8209 
 497   0.0000       3.493815        95.0715 
 498   0.0000       3.496068        95.1328 
 499   0.0000       3.503189        95.3266 
 500   0.0000       3.509283        95.4924 
 501   0.0000       3.516931        95.7005 
 502   0.0000       3.520561        95.7993 
 503   0.0000       3.529844        96.0519 
 504   0.0000       3.531075        96.0854 
 505   0.0000       3.540119        96.3315 
 506   0.0000       3.548482        96.5591 
 507   0.0000       3.564841        97.0043 
 508   0.0000       3.569948        97.1432 
 509   0.0000       3.573261        97.2334 
 510   0.0000       3.578119        97.3656 
 511   0.0000       3.587225        97.6133 
 512   0.0000       3.594790        97.8192 
 513   0.0000       3.595571        97.8405 
 514   0.0000       3.605043        98.0982 
 515   0.0000       3.617611        98.4402 
 516   0.0000       3.620420        98.5166 
 517   0.0000       3.630212        98.7831 
 518   0.0000       3.634676        98.9046 
 519   0.0000       3.636085        98.9429 
 520   0.0000       3.646652        99.2305 
 521   0.0000       3.662510        99.6620 
 522   0.0000       3.666668        99.7751 
 523   0.0000       3.670468        99.8785 
 524   0.0000       3.674919        99.9996 
 525   0.0000       3.682720       100.2119 
 526   0.0000       3.687738       100.3485 
 527   0.0000       3.704388       100.8015 
 528   0.0000       3.707921       100.8977 
 529   0.0000       3.708324       100.9086 
 530   0.0000       3.713642       101.0533 
 531   0.0000       3.723984       101.3348 
 532   0.0000       3.726814       101.4118 
 533   0.0000       3.734049       101.6086 
 534   0.0000       3.740112       101.7736 
 535   0.0000       3.751266       102.0771 
 536   0.0000       3.754714       102.1710 
 537   0.0000       3.759591       102.3037 
 538   0.0000       3.766001       102.4781 
 539   0.0000       3.776283       102.7579 
 540   0.0000       3.780766       102.8799 
 541   0.0000       3.785606       103.0116 
 542   0.0000       3.789589       103.1199 
 543   0.0000       3.796548       103.3093 
 544   0.0000       3.807368       103.6038 
 545   0.0000       3.817127       103.8693 
 546   0.0000       3.819357       103.9300 
 547   0.0000       3.829014       104.1928 
 548   0.0000       3.833686       104.3199 
 549   0.0000       3.844892       104.6248 
 550   0.0000       3.849007       104.7368 
 551   0.0000       3.856175       104.9318 
 552   0.0000       3.859474       105.0216 
 553   0.0000       3.873810       105.4117 
 554   0.0000       3.883993       105.6888 
 555   0.0000       3.887951       105.7965 
 556   0.0000       3.894890       105.9854 
 557   0.0000       3.907416       106.3262 
 558   0.0000       3.925353       106.8143 
 559   0.0000       3.933625       107.0394 
 560   0.0000       3.938212       107.1642 
 561   0.0000       3.943170       107.2991 
 562   0.0000       3.955920       107.6460 
 563   0.0000       3.967273       107.9550 
 564   0.0000       3.976971       108.2189 
 565   0.0000       3.990399       108.5843 
 566   0.0000       3.995729       108.7293 
 567   0.0000       4.005942       109.0072 
 568   0.0000       4.008904       109.0878 
 569   0.0000       4.022830       109.4668 
 570   0.0000       4.030094       109.6644 
 571   0.0000       4.037298       109.8605 
 572   0.0000       4.048151       110.1558 
 573   0.0000       4.061427       110.5170 
 574   0.0000       4.068240       110.7024 
 575   0.0000       4.074088       110.8616 
 576   0.0000       4.082887       111.1010 
 577   0.0000       4.089313       111.2759 
 578   0.0000       4.100212       111.5724 
 579   0.0000       4.114565       111.9630 
 580   0.0000       4.119832       112.1063 
 581   0.0000       4.125044       112.2482 
 582   0.0000       4.138485       112.6139 
 583   0.0000       4.140005       112.6553 
 584   0.0000       4.151538       112.9691 
 585   0.0000       4.158470       113.1577 
 586   0.0000       4.159559       113.1873 
 587   0.0000       4.168849       113.4402 
 588   0.0000       4.170583       113.4873 
 589   0.0000       4.179833       113.7390 
 590   0.0000       4.182572       113.8136 
 591   0.0000       4.189562       114.0038 
 592   0.0000       4.194505       114.1383 
 593   0.0000       4.205868       114.4475 
 594   0.0000       4.214147       114.6728 
 595   0.0000       4.216032       114.7241 
 596   0.0000       4.220041       114.8331 
 597   0.0000       4.231385       115.1418 
 598   0.0000       4.240201       115.3817 
 599   0.0000       4.249179       115.6260 
 600   0.0000       4.254549       115.7722 
 601   0.0000       4.264683       116.0479 
 602   0.0000       4.270985       116.2194 
 603   0.0000       4.276417       116.3672 
 604   0.0000       4.286404       116.6390 
 605   0.0000       4.290370       116.7469 
 606   0.0000       4.301389       117.0468 
 607   0.0000       4.306863       117.1957 
 608   0.0000       4.319664       117.5440 
 609   0.0000       4.325488       117.7025 
 610   0.0000       4.329101       117.8008 
 611   0.0000       4.340825       118.1199 
 612   0.0000       4.349085       118.3446 
 613   0.0000       4.351600       118.4131 
 614   0.0000       4.360052       118.6431 
 615   0.0000       4.367718       118.8516 
 616   0.0000       4.372765       118.9890 
 617   0.0000       4.385099       119.3246 
 618   0.0000       4.386989       119.3760 
 619   0.0000       4.392803       119.5343 
 620   0.0000       4.407722       119.9402 
 621   0.0000       4.416371       120.1756 
 622   0.0000       4.419564       120.2625 
 623   0.0000       4.427963       120.4910 
 624   0.0000       4.431818       120.5959 
 625   0.0000       4.447850       121.0322 
 626   0.0000       4.460947       121.3885 
 627   0.0000       4.463617       121.4612 
 628   0.0000       4.478083       121.8548 
 629   0.0000       4.482155       121.9656 
 630   0.0000       4.488449       122.1369 
 631   0.0000       4.507253       122.6486 
 632   0.0000       4.514681       122.8507 
 633   0.0000       4.522379       123.0602 
 634   0.0000       4.531099       123.2975 
 635   0.0000       4.542754       123.6146 
 636   0.0000       4.548049       123.7587 
 637   0.0000       4.557273       124.0097 
 638   0.0000       4.567622       124.2913 
 639   0.0000       4.576054       124.5208 
 640   0.0000       4.581542       124.6701 
 641   0.0000       4.591388       124.9380 
 642   0.0000       4.599169       125.1498 
 643   0.0000       4.607022       125.3634 
 644   0.0000       4.613003       125.5262 
 645   0.0000       4.622140       125.7748 
 646   0.0000       4.638213       126.2122 
 647   0.0000       4.648544       126.4933 
 648   0.0000       4.653458       126.6270 
 649   0.0000       4.668785       127.0441 
 650   0.0000       4.679476       127.3350 
 651   0.0000       4.689258       127.6012 
 652   0.0000       4.695455       127.7698 
 653   0.0000       4.702332       127.9570 
 654   0.0000       4.715753       128.3222 
 655   0.0000       4.727163       128.6326 
 656   0.0000       4.734969       128.8450 
 657   0.0000       4.743091       129.0661 
 658   0.0000       4.749918       129.2518 
 659   0.0000       4.758939       129.4973 
 660   0.0000       4.770448       129.8105 
 661   0.0000       4.788970       130.3145 
 662   0.0000       4.793237       130.4306 
 663   0.0000       4.798638       130.5776 
 664   0.0000       4.806495       130.7914 
 665   0.0000       4.811508       130.9278 
 666   0.0000       4.836050       131.5956 
 667   0.0000       4.863596       132.3452 
 668   0.0000       4.870296       132.5275 
 669   0.0000       4.906818       133.5213 
 670   0.0000       4.921306       133.9155 
 671   0.0000       4.946251       134.5943 
 672   0.0000       4.955954       134.8584 
 673   0.0000       4.969838       135.2362 
 674   0.0000       4.996290       135.9560 
 675   0.0000       5.011590       136.3723 
 676   0.0000       5.023848       136.7059 
 677   0.0000       5.044570       137.2697 
 678   0.0000       5.058080       137.6373 
 679   0.0000       5.065590       137.8417 
 680   0.0000       5.073078       138.0455 
 681   0.0000       5.076086       138.1273 
 682   0.0000       5.086399       138.4080 
 683   0.0000       5.100984       138.8048 
 684   0.0000       5.104961       138.9131 
 685   0.0000       5.112233       139.1109 
 686   0.0000       5.124944       139.4568 
 687   0.0000       5.133639       139.6934 
 688   0.0000       5.157801       140.3509 
 689   0.0000       5.166899       140.5985 
 690   0.0000       5.176112       140.8492 
 691   0.0000       5.181899       141.0066 
 692   0.0000       5.184048       141.0651 
 693   0.0000       5.190499       141.2406 
 694   0.0000       5.203087       141.5832 
 695   0.0000       5.206509       141.6763 
 696   0.0000       5.245356       142.7334 
 697   0.0000       5.268072       143.3515 
 698   0.0000       5.271386       143.4417 
 699   0.0000       5.286120       143.8426 
 700   0.0000       5.294729       144.0769 
 701   0.0000       5.296789       144.1330 
 702   0.0000       5.307731       144.4307 
 703   0.0000       5.322912       144.8438 
 704   0.0000       5.340296       145.3168 
 705   0.0000       5.342727       145.3830 
 706   0.0000       5.363720       145.9542 
 707   0.0000       5.380554       146.4123 
 708   0.0000       5.398031       146.8879 
 709   0.0000       5.409588       147.2024 
 710   0.0000       5.425631       147.6389 
 711   0.0000       5.427794       147.6978 
 712   0.0000       5.446789       148.2147 
 713   0.0000       5.453909       148.4084 
 714   0.0000       5.467747       148.7850 
 715   0.0000       5.477572       149.0523 
 716   0.0000       5.485671       149.2727 
 717   0.0000       5.514444       150.0556 
 718   0.0000       5.546384       150.9248 
 719   0.0000       5.554133       151.1357 
 720   0.0000       5.562541       151.3644 
 721   0.0000       5.573955       151.6750 
 722   0.0000       5.591185       152.1439 
 723   0.0000       5.591960       152.1650 
 724   0.0000       5.601233       152.4173 
 725   0.0000       5.620354       152.9376 
 726   0.0000       5.625823       153.0864 
 727   0.0000       5.631604       153.2437 
 728   0.0000       5.634847       153.3320 
 729   0.0000       5.644720       153.6006 
 730   0.0000       5.654887       153.8773 
 731   0.0000       5.668205       154.2397 
 732   0.0000       5.675887       154.4487 
 733   0.0000       5.680111       154.5637 
 734   0.0000       5.696110       154.9990 
 735   0.0000       5.700099       155.1076 
 736   0.0000       5.717229       155.5737 
 737   0.0000       5.749191       156.4434 
 738   0.0000       5.754088       156.5767 
 739   0.0000       5.774767       157.1394 
 740   0.0000       5.782959       157.3623 
 741   0.0000       5.794898       157.6872 
 742   0.0000       5.809423       158.0824 
 743   0.0000       5.824304       158.4874 
 744   0.0000       5.831407       158.6807 
 745   0.0000       5.851538       159.2284 
 746   0.0000       5.871500       159.7716 
 747   0.0000       5.894060       160.3855 
 748   0.0000       5.898252       160.4996 
 749   0.0000       5.916800       161.0043 
 750   0.0000       5.936750       161.5472 
 751   0.0000       5.939123       161.6117 
 752   0.0000       5.974763       162.5816 
 753   0.0000       6.002279       163.3303 
 754   0.0000       6.006793       163.4532 
 755   0.0000       6.013865       163.6456 
 756   0.0000       6.063521       164.9968 
 757   0.0000       6.101068       166.0185 
 758   0.0000       6.112520       166.3301 
 759   0.0000       6.119328       166.5154 
 760   0.0000       6.144536       167.2013 
 761   0.0000       6.172891       167.9729 
 762   0.0000       6.174747       168.0234 
 763   0.0000       6.182245       168.2274 
 764   0.0000       6.204224       168.8255 
 765   0.0000       6.230603       169.5433 
 766   0.0000       6.236025       169.6909 
 767   0.0000       6.286660       171.0687 
 768   0.0000       6.317032       171.8952 
 769   0.0000       6.364581       173.1891 
 770   0.0000       6.393064       173.9641 
 771   0.0000       6.411348       174.4617 
 772   0.0000       6.446157       175.4089 
 773   0.0000       6.479082       176.3048 
 774   0.0000       6.495387       176.7485 
 775   0.0000       6.501712       176.9206 
 776   0.0000       6.530596       177.7065 
 777   0.0000       6.553650       178.3339 
 778   0.0000       6.571258       178.8130 
 779   0.0000       6.653039       181.0384 
 780   0.0000       6.666804       181.4129 
 781   0.0000       6.673383       181.5920 
 782   0.0000       6.686010       181.9356 
 783   0.0000       6.745926       183.5660 
 784   0.0000       6.778771       184.4597 
 785   0.0000       6.819718       185.5740 
 786   0.0000       6.876387       187.1160 
 787   0.0000       6.942526       188.9157 
 788   0.0000       6.967008       189.5819 
 789   0.0000       6.996128       190.3743 
 790   0.0000       7.085432       192.8044 
 791   0.0000       7.123255       193.8336 
 792   0.0000       7.131401       194.0553 
 793   0.0000       7.173412       195.1985 
 794   0.0000       7.186638       195.5584 
 795   0.0000       7.219170       196.4436 
 796   0.0000       7.232375       196.8029 
 797   0.0000       7.300904       198.6677 
 798   0.0000       7.320692       199.2061 
 799   0.0000       7.336493       199.6361 
 800   0.0000       7.357100       200.1969 
 801   0.0000       7.477190       203.4647 
 802   0.0000       7.550330       205.4549 
 803   0.0000       7.572830       206.0672 
 804   0.0000       7.651686       208.2130 
 805   0.0000       7.778368       211.6602 
 806   0.0000       7.789318       211.9581 
 807   0.0000       7.918971       215.4862 
 808   0.0000       7.956288       216.5016 
 809   0.0000       9.378815       255.2105 
 810   0.0000       9.528332       259.2791 
 811   0.0000      10.769430       293.0511 
 812   0.0000      10.928187       297.3711 
 813   0.0000      11.656189       317.1810 
 814   0.0000      12.753546       347.0416 
 815   0.0000      12.898172       350.9771 
 816   0.0000      13.069014       355.6260 
 817   0.0000      13.330460       362.7402 
 818   0.0000      13.508742       367.5916 
 819   0.0000      13.601829       370.1246 
 820   0.0000      13.882270       377.7558 
 821   0.0000      13.914412       378.6304 
 822   0.0000      14.029095       381.7511 
 823   0.0000      14.178789       385.8245 
 824   0.0000      14.450904       393.2291 
 825   0.0000      14.562428       396.2638 
 826   0.0000      14.958832       407.0505 
 827   0.0000      16.421849       446.8612 

                    ********************************
                    * MULLIKEN POPULATION ANALYSIS *
                    ********************************

-----------------------
MULLIKEN ATOMIC CHARGES
-----------------------
   0 C :   -0.263537
   1 C :    0.022320
   2 O :   -0.348563
   3 C :    0.450926
   4 O :   -0.435339
   5 C :   -0.181719
   6 C :    0.116566
   7 C :   -0.297184
   8 N :   -0.134397
   9 C :    0.196097
  10 S :   -0.493129
  11 N :   -0.117859
  12 C :    0.027450
  13 C :   -0.028823
  14 C :   -0.186306
  15 C :   -0.150728
  16 C :   -0.181658
  17 C :    0.302279
  18 O :   -0.357708
  19 C :   -0.208069
  20 H :    0.108592
  21 H :    0.103169
  22 H :    0.096812
  23 H :    0.111338
  24 H :    0.108180
  25 H :    0.123322
  26 H :    0.115826
  27 H :    0.143520
  28 H :    0.198004
  29 H :    0.199887
  30 H :    0.141097
  31 H :    0.149580
  32 H :    0.154973
  33 H :    0.148259
  34 H :    0.243978
  35 H :    0.122844
Sum of atomic charges:   -0.0000000

--------------------------------
MULLIKEN REDUCED ORBITAL CHARGES
--------------------------------
  0 C s       :     3.257608  s :     3.257608
      pz      :     0.981066  p :     2.928259
      px      :     1.009275
      py      :     0.937918
      dz2     :     0.007363  d :     0.073388
      dxz     :     0.012241
      dyz     :     0.020052
      dx2y2   :     0.013886
      dxy     :     0.019846
      f0      :     0.000336  f :     0.004282
      f+1     :     0.000533
      f-1     :     0.000522
      f+2     :     0.000918
      f-2     :     0.000944
      f+3     :     0.000531
      f-3     :     0.000497
  1 C s       :     3.185284  s :     3.185284
      pz      :     0.700500  p :     2.638045
      px      :     0.964735
      py      :     0.972810
      dz2     :     0.038570  d :     0.143848
      dxz     :     0.029208
      dyz     :     0.033253
      dx2y2   :     0.021044
      dxy     :     0.021773
      f0      :     0.002173  f :     0.010503
      f+1     :     0.001918
      f-1     :     0.001899
      f+2     :     0.001827
      f-2     :     0.001376
      f+3     :     0.000768
      f-3     :     0.000542
  2 O s       :     3.731764  s :     3.731764
      pz      :     1.268139  p :     4.580496
      px      :     1.762737
      py      :     1.549620
      dz2     :     0.006213  d :     0.034245
      dxz     :     0.005126
      dyz     :     0.014244
      dx2y2   :     0.004879
      dxy     :     0.003782
      f0      :     0.000362  f :     0.002058
      f+1     :     0.000348
      f-1     :     0.000469
      f+2     :     0.000428
      f-2     :     0.000251
      f+3     :     0.000077
      f-3     :     0.000122
  3 C s       :     3.087393  s :     3.087393
      pz      :     0.731803  p :     2.141630
      px      :     0.713615
[...]
 15 C s       :     2.690458  s :     2.690458
      pz      :     0.828036  p :     2.796707
      px      :     0.991788
      py      :     0.976882
      dz2     :     0.033343  d :     0.428983
      dxz     :     0.078465
      dyz     :     0.032045
      dx2y2   :     0.142943
      dxy     :     0.142187
      f0      :     0.002324  f :     0.046004
      f+1     :     0.003968
      f-1     :     0.003185
      f+2     :     0.004884
      f-2     :     0.006522
      f+3     :     0.010567
      f-3     :     0.014554
 16 C s       :     2.687027  s :     2.687027
      pz      :     0.856453  p :     2.823282
      px      :     0.960623
      py      :     1.006206
      dz2     :     0.030397  d :     0.420166
      dxz     :     0.024272
      dyz     :     0.083115
      dx2y2   :     0.157983
      dxy     :     0.124400
      f0      :     0.002894  f :     0.046060
      f+1     :     0.002340
      f-1     :     0.004254
      f+2     :     0.003248
      f-2     :     0.007138
      f+3     :     0.010679
      f-3     :     0.015506
 17 C s       :     2.682678  s :     2.682678
      pz      :     0.823003  p :     2.698398
      px      :     0.966024
      py      :     0.909371
      dz2     :     0.055505  d :     0.724311
      dxz     :     0.120337
      dyz     :     0.116709
      dx2y2   :     0.206862
      dxy     :     0.224897
      f0      :     0.008426  f :     0.104429
      f+1     :     0.007845
      f-1     :     0.006414
      f+2     :     0.008439
      f-2     :     0.018893
      f+3     :     0.021755
      f-3     :     0.032658
 18 O s       :     3.178325  s :     3.178325
      pz      :     1.613645  p :     4.345975
      px      :     1.503675
      py      :     1.228656
      dz2     :     0.007184  d :     0.074933
      dxz     :     0.007499
      dyz     :     0.011682
      dx2y2   :     0.020577
      dxy     :     0.027992
      f0      :     0.000489  f :     0.004994
      f+1     :     0.000324
      f-1     :     0.000424
      f+2     :     0.000264
      f-2     :     0.000892
      f+3     :     0.001182
      f-3     :     0.001419
 19 C s       :     2.685188  s :     2.685188
      pz      :     0.887561  p :     2.830062
      px      :     0.988474
      py      :     0.954026
      dz2     :     0.040232  d :     0.413919
      dxz     :     0.075317
      dyz     :     0.030455
      dx2y2   :     0.137723
      dxy     :     0.130192
      f0      :     0.002629  f :     0.045115
      f+1     :     0.004306
      f-1     :     0.003190
      f+2     :     0.005527
      f-2     :     0.005970
      f+3     :     0.010117
      f-3     :     0.013376
 20 H s       :     0.846098  s :     0.846098
      pz      :     0.046330  p :     0.150290
      px      :     0.048541
      py      :     0.055419
      dz2     :     0.004832  d :     0.027373
      dxz     :     0.003798
      dyz     :     0.005713
      dx2y2   :     0.007067
      dxy     :     0.005963
 21 H s       :     0.841836  s :     0.841836
      pz      :     0.063358  p :     0.152168
      px      :     0.045872
      py      :     0.042939
      dz2     :     0.008137  d :     0.027667
      dxz     :     0.006798
      dyz     :     0.007081
      dx2y2   :     0.002916
      dxy     :     0.002734
 22 H s       :     0.854170  s :     0.854170
      pz      :     0.039970  p :     0.151139
      px      :     0.068682
      py      :     0.042487
      dz2     :     0.002421  d :     0.027119
      dxz     :     0.007929
      dyz     :     0.001566
      dx2y2   :     0.007267
      dxy     :     0.007935
 23 H s       :     0.849241  s :     0.849241
      pz      :     0.031807  p :     0.150644
      px      :     0.076238
      py      :     0.042600
      dz2     :     0.002642  d :     0.027870
      dxz     :     0.006836
      dyz     :     0.001600
      dx2y2   :     0.007999
      dxy     :     0.008791
 24 H s       :     0.857366  s :     0.857366
      pz      :     0.036678  p :     0.147361
      px      :     0.043236
      py      :     0.067447
      dz2     :     0.003589  d :     0.026598
      dxz     :     0.003367
      dyz     :     0.006299
      dx2y2   :     0.008094
      dxy     :     0.005250
 25 H s       :     0.828008  s :     0.828008
      pz      :     0.052363  p :     0.153457
      px      :     0.041901
      py      :     0.059192
      dz2     :     0.006455  d :     0.028130
      dxz     :     0.004159
      dyz     :     0.006805
      dx2y2   :     0.004451
      dxy     :     0.006259
 26 H s       :     0.841321  s :     0.841321
      pz      :     0.037281  p :     0.151429
      px      :     0.065646
      py      :     0.048501
      dz2     :     0.002580  d :     0.027656
      dxz     :     0.006430
      dyz     :     0.002745
      dx2y2   :     0.008410
      dxy     :     0.007491
 27 H s       :     0.832864  s :     0.832864
      pz      :     0.045824  p :     0.154068
      px      :     0.058481
      py      :     0.049763
      dz2     :     0.004481  d :     0.027534
      dxz     :     0.005563
      dyz     :     0.004327
      dx2y2   :     0.006448
      dxy     :     0.006715
 28 H s       :     0.740557  s :     0.740557
      pz      :     0.040783  p :     0.251493
      px      :     0.101283
      py      :     0.109426
      dz2     :     0.005865  d :     0.060515
      dxz     :     0.005611
      dyz     :     0.010044
      dx2y2   :     0.023314
      dxy     :     0.015681
 29 H s       :     0.739802  s :     0.739802
      pz      :     0.114899  p :     0.246327
      px      :     0.060725
      py      :     0.070703
      dz2     :     0.018798  d :     0.060864
      dxz     :     0.017487
      dyz     :     0.018999
      dx2y2   :     0.003508
      dxy     :     0.002072
 30 H s       :     0.823265  s :     0.823265
      pz      :     0.035683  p :     0.152251
      px      :     0.034189
      py      :     0.082378
      dz2     :     0.002682  d :     0.029675
      dxz     :     0.000265
      dyz     :     0.009015
      dx2y2   :     0.008255
      dxy     :     0.009458
 31 H s       :     0.841120  s :     0.841120
      pz      :     0.043446  p :     0.153388
      px      :     0.052068
      py      :     0.057874
      dz2     :     0.002443  d :     0.027432
      dxz     :     0.003415
      dyz     :     0.004859
      dx2y2   :     0.009053
      dxy     :     0.007662
 32 H s       :     0.839813  s :     0.839813
      pz      :     0.040956  p :     0.149607
      px      :     0.039761
      py      :     0.068890
      dz2     :     0.002387  d :     0.026611
      dxz     :     0.001245
      dyz     :     0.006397
      dx2y2   :     0.008280
      dxy     :     0.008302
 33 H s       :     0.836385  s :     0.836385
      pz      :     0.046430  p :     0.156353
      px      :     0.074361
      py      :     0.035562
      dz2     :     0.002706  d :     0.028070
      dxz     :     0.007682
      dyz     :     0.000855
      dx2y2   :     0.007809
      dxy     :     0.009018
 34 H s       :     0.705476  s :     0.705476
      pz      :     0.113206  p :     0.345213
      px      :     0.101968
      py      :     0.130039
      dz2     :     0.014807  d :     0.097749
      dxz     :     0.008008
      dyz     :     0.026557
      dx2y2   :     0.021255
      dxy     :     0.027122
 35 H s       :     0.841698  s :     0.841698
      pz      :     0.045469  p :     0.156729
      px      :     0.040001
      py      :     0.071258
      dz2     :     0.002477  d :     0.028135
      dxz     :     0.001201
      dyz     :     0.007414
      dx2y2   :     0.008583
      dxy     :     0.008460


                      *****************************
                      * MAYER POPULATION ANALYSIS *
                      *****************************

  NA   - Mulliken gross atomic population
  ZA   - Total nuclear charge
  QA   - Mulliken gross atomic charge
  VA   - Mayer's total valence
  BVA  - Mayer's bonded valence
  FA   - Mayer's free valence

  ATOM       NA         ZA         QA         VA         BVA        FA
  0 C      6.2635     6.0000    -0.2635     3.8914     3.8914     0.0000
  1 C      5.9777     6.0000     0.0223     3.8316     3.8316    -0.0000
  2 O      8.3486     8.0000    -0.3486     2.0769     2.0769     0.0000
  3 C      5.5491     6.0000     0.4509     4.2135     4.2135     0.0000
  4 O      8.4353     8.0000    -0.4353     2.0808     2.0808     0.0000
  5 C      6.1817     6.0000    -0.1817     3.6003     3.6003    -0.0000
  6 C      5.8834     6.0000     0.1166     3.8292     3.8292     0.0000
  7 C      6.2972     6.0000    -0.2972     3.8841     3.8841    -0.0000
  8 N      7.1344     7.0000    -0.1344     3.2991     3.2991     0.0000
  9 C      5.8039     6.0000     0.1961     4.1411     4.1411     0.0000
 10 S     16.4931    16.0000    -0.4931     1.6435     1.6435     0.0000
 11 N      7.1179     7.0000    -0.1179     3.3003     3.3003     0.0000
 12 C      5.9725     6.0000     0.0275     3.9907     3.9907     0.0000
 13 C      6.0288     6.0000    -0.0288     3.7557     3.7557     0.0000
 14 C      6.1863     6.0000    -0.1863     3.8554     3.8554    -0.0000
 15 C      6.1507     6.0000    -0.1507     3.7951     3.7951     0.0000
 16 C      6.1817     6.0000    -0.1817     3.7628     3.7628    -0.0000
 17 C      5.6977     6.0000     0.3023     3.8893     3.8893    -0.0000
 18 O      8.3577     8.0000    -0.3577     2.1150     2.1150     0.0000
 19 C      6.2081     6.0000    -0.2081     3.8341     3.8341    -0.0000
 20 H      0.8914     1.0000     0.1086     0.9823     0.9823     0.0000
 21 H      0.8968     1.0000     0.1032     0.9841     0.9841     0.0000
 22 H      0.9032     1.0000     0.0968     0.9849     0.9849     0.0000
 23 H      0.8887     1.0000     0.1113     0.9803     0.9803     0.0000
 24 H      0.8918     1.0000     0.1082     0.9783     0.9783     0.0000
 25 H      0.8767     1.0000     0.1233     0.9767     0.9767    -0.0000
 26 H      0.8842     1.0000     0.1158     0.9875     0.9875    -0.0000
 27 H      0.8565     1.0000     0.1435     0.9782     0.9782     0.0000
 28 H      0.8020     1.0000     0.1980     1.0188     1.0188    -0.0000
 29 H      0.8001     1.0000     0.1999     1.0177     1.0177     0.0000
 30 H      0.8589     1.0000     0.1411     0.9939     0.9939    -0.0000
 31 H      0.8504     1.0000     0.1496     0.9819     0.9819     0.0000
 32 H      0.8450     1.0000     0.1550     0.9772     0.9772     0.0000
 33 H      0.8517     1.0000     0.1483     0.9823     0.9823    -0.0000
 34 H      0.7560     1.0000     0.2440     1.0055     1.0055    -0.0000
 35 H      0.8772     1.0000     0.1228     0.9958     0.9958    -0.0000

  Mayer bond orders larger than 0.100000
B(  0-C ,  1-C ) :   0.9699 B(  0-C , 20-H ) :   0.9750 B(  0-C , 21-H ) :   0.9767 
B(  0-C , 22-H ) :   0.9786 B(  1-C ,  2-O ) :   0.8747 B(  1-C , 23-H ) :   0.9811 
B(  1-C , 24-H ) :   0.9721 B(  2-O ,  3-C ) :   1.1978 B(  3-C ,  4-O ) :   1.9711 
B(  3-C ,  5-C ) :   1.0205 B(  5-C ,  6-C ) :   1.6674 B(  5-C , 12-C ) :   0.9750 
B(  6-C ,  7-C ) :   0.9411 B(  6-C ,  8-N ) :   1.1374 B(  7-C , 25-H ) :   0.9711 
B(  7-C , 26-H ) :   0.9858 B(  7-C , 27-H ) :   0.9627 B(  8-N ,  9-C ) :   1.2023 
B(  8-N , 28-H ) :   0.9501 B(  9-C , 10-S ) :   1.5081 B(  9-C , 11-N ) :   1.3671 
B( 11-N , 12-C ) :   1.0043 B( 11-N , 29-H ) :   0.9411 B( 12-C , 13-C ) :   0.9405 
B( 12-C , 30-H ) :   1.0105 B( 13-C , 14-C ) :   1.4599 B( 13-C , 19-C ) :   1.2872 
B( 14-C , 15-C ) :   1.3196 B( 14-C , 31-H ) :   0.9680 B( 15-C , 16-C ) :   1.4267 
B( 15-C , 32-H ) :   0.9808 B( 16-C , 17-C ) :   1.2720 B( 16-C , 33-H ) :   0.9763 
B( 17-C , 18-O ) :   1.1166 B( 17-C , 19-C ) :   1.4385 B( 18-O , 34-H ) :   0.9758 
B( 19-C , 35-H ) :   0.9682 

-------
TIMINGS
-------

Total SCF time: 0 days 1 hours 58 min 24 sec 

Total time                  ....    7104.824 sec
Sum of individual times     ....    7101.411 sec  (100.0%)

Fock matrix formation       ....    7088.047 sec  ( 99.8%)
Diagonalization             ....       1.545 sec  (  0.0%)
Density matrix formation    ....       0.205 sec  (  0.0%)
Population analysis         ....       0.206 sec  (  0.0%)
Initial guess               ....       6.472 sec  (  0.1%)
Orbital Transformation      ....       0.000 sec  (  0.0%)
Orbital Orthonormalization  ....       0.000 sec  (  0.0%)
DIIS solution               ....       1.432 sec  (  0.0%)
SOSCF solution              ....       1.849 sec  (  0.0%)

Maximum memory used throughout the entire SCF-calculation: 718.8 MB

------------------------------------------------------------------------------
                                ORCA  MP2 
------------------------------------------------------------------------------

Freezing NCore=48 chemical core electrons

-------------
RI-MP2 ENERGY
-------------
Dimension of the basis                    ...  828
Memory devoted to MP2                     ...  256 MB   
Data format for buffers                   ... DOUBLE
Compression type for matrix containers    ... UNCOMPRESSED
Overall scaling of the MP2 energy         ...   1.000e+00
Calculating two index integrals           ... done (    0.044 sec)
Cholesky decomposition of V**-1           ... done (    0.582 sec)

-----------------
RI-TRANSFORMATION (AUX index driven)
-----------------

Dimension of the orbital-basis         ... 828
Dimension of the aux-basis             ... 2141
Transformation of internal/external MOs...   24-  76 to   77- 827
Number Format for Storage              ... Double (8 Byte)
Integral mode                          ... Direct

First Phase: integral generation and transformation of MO indices
  Aux angular momentum 0               ... done (    4.885 sec)
  Aux angular momentum 1               ... done (    8.122 sec)
  Aux angular momentum 2               ... done (   10.427 sec)
  Aux angular momentum 3               ... done (    8.323 sec)
  Aux angular momentum 4               ... done (    2.759 sec)
Closing buffer VIA ( 0.63 GB; CompressionRatio= 1.00)
  Phase 1 completed in    34.698 sec
Second Phase: sorting and transformation of aux index

IA-Transformation
Memory available                       ... 158 MB 
Max. # MO pairs treated in a batch     ... 11    
# of internal orbitals                 ... 53
# batches for internal orbitals        ... 5
Closing buffer IAV ( 0.63 GB; CompressionRatio= 1.00)
(ia|v) transformation done in    19.213 sec

  Phase 2 completed in    19.237 sec
RI-Integral transformation completed in    53.944 sec
Opening buffers                              ... done

Starting loop over batches of integrals:

Operator 0  - window                       ... ( 24- 76)x( 77-827)
Operator 0  - Memory available             ...   256 MB
Operator 0  - Memory needed per MO         ...  12.3 MB
Operator 0  - Number of orbitals per batch ... 13
Operator 0  - Number of batches            ... 5

OPERATOR  0   PASS   0:  MOs    24 ...   36
  Reading integrals       ... ok
  Internal MO  26
  Internal MO  29
  Internal MO  32
  Internal MO  35
OPERATOR  0   PASS   1:  MOs    37 ...   49
  Reading integrals       ... ok
  Internal MO  38
  Internal MO  41
  Internal MO  44
  Internal MO  47
OPERATOR  0   PASS   2:  MOs    50 ...   62
  Reading integrals       ... ok
  Internal MO  50
  Internal MO  53
  Internal MO  56
  Internal MO  59
  Internal MO  62
OPERATOR  0   PASS   3:  MOs    63 ...   75
  Reading integrals       ... ok
  Internal MO  65
  Internal MO  68
  Internal MO  71
  Internal MO  74
OPERATOR  0   PASS   4:  MOs    76 ...   76
  Reading integrals       ... ok
Time spent in pair loops =    89.887 sec
Deleting buffer (Ka|jb)[aa] ...done

-----------------------------------------------
 RI-MP2 CORRELATION ENERGY:     -3.532771278 Eh
-----------------------------------------------


-------
TIMINGS
-------

Total time                :  144.564 sec
Integral trafo            :   53.969 sec ( 37.3%)
I/O of integrals          :    0.887 sec (  0.6%)
K(i,j) Operators          :   61.986 sec ( 42.9%)
T(i,j) pair energies      :    8.926 sec (  6.2%)
V-calculation             :    0.044 sec (  0.0%)
V**(-1/2)                 :    0.582 sec (  0.4%)
Gamma(ia|P)               :    0.000 sec (  0.0%)
Gamma-Trafo               :    0.000 sec (  0.0%)
D(virtual)                :    0.000 sec (  0.0%)
D(internal)               :    0.000 sec (  0.0%)
W(virtual)                :    0.000 sec (  0.0%)
W(internal)               :    0.000 sec (  0.0%)
L(virtual)                :    0.000 sec (  0.0%)
L(internal)               :    0.000 sec (  0.0%)
G(D)                      :    0.000 sec (  0.0%)
G(Z)                      :    0.000 sec (  0.0%)
Z-Vector Solution         :    0.000 sec (  0.0%)
3-Index Derivative        :    0.000 sec (  0.0%)
2-Index Derivative        :    0.000 sec (  0.0%)
Separable Gradient        :    0.000 sec (  0.0%)


---------------------------------------
MP2 TOTAL ENERGY:    -1274.305933086 Eh
---------------------------------------

Maximum memory used throughout the entire MP2-calculation: 303.1 MB

-------------------------   --------------------
FINAL SINGLE POINT ENERGY     -1274.305933086149
-------------------------   --------------------


                            ***************************************
                            *     ORCA property calculations      *
                            ***************************************


  WARNING: The energy has been calculated at the MP2 level but the densities
           used in the property calculations are still SCF densities
           MP2 response densities have not been calculated 
           use %mp2 Density relaxed end
           or  %mp2 Density unrelaxed end

                                    ---------------------
                                    Active property flags
                                    ---------------------
   (+) Dipole Moment


------------------------------------------------------------------------------
                       ORCA ELECTRIC PROPERTIES CALCULATION
------------------------------------------------------------------------------

Dipole Moment Calculation                       ... on
Quadrupole Moment Calculation                   ... off
Polarizability Calculation                      ... off
GBWName                                         ... qm_input.vacu.gbw
Electron density file                           ... qm_input.vacu.scfp
The origin for moment calculation is the CENTER OF MASS  = (-30.122795, -6.105633 23.454880)

-------------
DIPOLE MOMENT
-------------
                                X             Y             Z
Electronic contribution:      3.33885      -4.35331      17.40617
Nuclear contribution   :     -3.50933       4.47736     -20.27813
                        -----------------------------------------
Total Dipole Moment    :     -0.17047       0.12405      -2.87196
                        -----------------------------------------
Magnitude (a.u.)       :      2.87968
Magnitude (Debye)      :      7.31957



--------------------
Rotational spectrum 
--------------------
 
Rotational constants in cm-1:     0.009744     0.009563     0.005530 
Rotational constants in MHz :   292.126158   286.696507   165.778066 

 Dipole components along the rotational axes: 
x,y,z [a.u.] :     1.337175    -2.546473     0.141465 
x,y,z [Debye]:     3.398828    -6.472621     0.359575 

 

Timings for individual modules:

Sum of individual times         ...     7251.836 sec (= 120.864 min)
GTO integral calculation        ...        1.993 sec (=   0.033 min)   0.0 %
SCF iterations                  ...     7104.908 sec (= 118.415 min)  98.0 %
MP2 module                      ...      144.934 sec (=   2.416 min)   2.0 %
                             ****ORCA TERMINATED NORMALLY****
TOTAL RUN TIME: 0 days 2 hours 0 minutes 52 seconds 803 msec
