
                                        *****************
                                        * O   R   C   A *
                                        *****************

                                            #,                                       
                                            ###                                      
                                            ####                                     
                                            #####                                    
                                            ######                                   
                                           ########,                                 
                                     ,,################,,,,,                         
                               ,,#################################,,                 
                          ,,##########################################,,             
                       ,#########################################, ''#####,          
                    ,#############################################,,   '####,        
                  ,##################################################,,,,####,       
                ,###########''''           ''''###############################       
              ,#####''   ,,,,##########,,,,          '''####'''          '####       
            ,##' ,,,,###########################,,,                        '##       
           ' ,,###''''                  '''############,,,                           
         ,,##''                                '''############,,,,        ,,,,,,###''
      ,#''                                            '''#######################'''  
     '                                                          ''''####''''         
             ,#######,   #######,   ,#######,      ##                                
            ,#'     '#,  ##    ##  ,#'     '#,    #''#        ######   ,####,        
            ##       ##  ##   ,#'  ##            #'  '#       #        #'  '#        
            ##       ##  #######   ##           ,######,      #####,   #    #        
            '#,     ,#'  ##    ##  '#,     ,#' ,#      #,         ##   #,  ,#        
             '#######'   ##     ##  '#######'  #'      '#     #####' # '####'        



                  #######################################################
                  #                        -***-                        #
                  #          Department of theory and spectroscopy      #
                  #    Directorship and core code : Frank Neese         #
                  #        Max Planck Institute fuer Kohlenforschung    #
                  #                Kaiser Wilhelm Platz 1               #
                  #                 D-45470 Muelheim/Ruhr               #
                  #                      Germany                        #
                  #                                                     #
                  #                  All rights reserved                #
                  #                        -***-                        #
                  #######################################################


                         Program Version 5.0.0 -  RELEASE  -
                                (SVN: $Rev: 19529$)
                ($Date: 2021-06-28 11:36:33 +0200 (Mo, 28 Jun 2021) $)


 With contributions from (in alphabetic order):
   Daniel Aravena         : Magnetic Suceptibility
   Michael Atanasov       : Ab Initio Ligand Field Theory (pilot matlab implementation)
   Alexander A. Auer      : GIAO ZORA, VPT2 properties, NMR spectrum
   Ute Becker             : Parallelization
   Giovanni Bistoni       : ED, misc. LED, open-shell LED, HFLD
   Martin Brehm           : Molecular dynamics
   Dmytro Bykov           : SCF Hessian
   Vijay G. Chilkuri      : MRCI spin determinant printing, contributions to CSF-ICE
   Dipayan Datta          : RHF DLPNO-CCSD density
   Achintya Kumar Dutta   : EOM-CC, STEOM-CC
   Dmitry Ganyushin       : Spin-Orbit,Spin-Spin,Magnetic field MRCI
   Miquel Garcia          : C-PCM Hessian, Gaussian charge scheme
   Yang Guo               : DLPNO-NEVPT2, F12-NEVPT2, CIM, IAO-localization
   Andreas Hansen         : Spin unrestricted coupled pair/coupled cluster methods
   Benjamin Helmich-Paris : MC-RPA, TRAH-SCF, COSX integrals
   Lee Huntington         : MR-EOM, pCC
   Robert Izsak           : Overlap fitted RIJCOSX, COSX-SCS-MP3, EOM
   Marcus Kettner         : VPT2
   Christian Kollmar      : KDIIS, OOCD, Brueckner-CCSD(T), CCSD density, CASPT2, CASPT2-K
   Simone Kossmann        : Meta GGA functionals, TD-DFT gradient, OOMP2, MP2 Hessian
   Martin Krupicka        : Initial AUTO-CI
   Lucas Lang             : DCDCAS
   Marvin Lechner         : AUTO-CI (C++ implementation), FIC-MRCC
   Dagmar Lenk            : GEPOL surface, SMD
   Dimitrios Liakos       : Extrapolation schemes; Compound Job, initial MDCI parallelization
   Dimitrios Manganas     : Further ROCIS development; embedding schemes
   Dimitrios Pantazis     : SARC Basis sets
   Anastasios Papadopoulos: AUTO-CI, single reference methods and gradients
   Taras Petrenko         : DFT Hessian,TD-DFT gradient, ASA, ECA, R-Raman, ABS, FL, XAS/XES, NRVS
   Peter Pinski           : DLPNO-MP2, DLPNO-MP2 Gradient
   Christoph Reimann      : Effective Core Potentials
   Marius Retegan         : Local ZFS, SOC
   Christoph Riplinger    : Optimizer, TS searches, QM/MM, DLPNO-CCSD(T), (RO)-DLPNO pert. Triples
   Tobias Risthaus        : Range-separated hybrids, TD-DFT gradient, RPA, STAB
   Michael Roemelt        : Original ROCIS implementation
   Masaaki Saitow         : Open-shell DLPNO-CCSD energy and density
   Barbara Sandhoefer     : DKH picture change effects
   Avijit Sen             : IP-ROCIS
   Kantharuban Sivalingam : CASSCF convergence, NEVPT2, FIC-MRCI
   Bernardo de Souza      : ESD, SOC TD-DFT
   Georgi Stoychev        : AutoAux, RI-MP2 NMR
   Willem Van den Heuvel  : Paramagnetic NMR
   Boris Wezisla          : Elementary symmetry handling
   Frank Wennmohs         : Technical directorship


 We gratefully acknowledge several colleagues who have allowed us to
 interface, adapt or use parts of their codes:
   Stefan Grimme, W. Hujo, H. Kruse, P. Pracht,  : VdW corrections, initial TS optimization,
                  C. Bannwarth, S. Ehlert          DFT functionals, gCP, sTDA/sTD-DF
   Ed Valeev, F. Pavosevic, A. Kumar             : LibInt (2-el integral package), F12 methods
   Garnet Chan, S. Sharma, J. Yang, R. Olivares  : DMRG
   Ulf Ekstrom                                   : XCFun DFT Library
   Mihaly Kallay                                 : mrcc  (arbitrary order and MRCC methods)
   Jiri Pittner, Ondrej Demel                    : Mk-CCSD
   Frank Weinhold                                : gennbo (NPA and NBO analysis)
   Christopher J. Cramer and Donald G. Truhlar   : smd solvation model
   Lars Goerigk                                  : TD-DFT with DH, B97 family of functionals
   V. Asgeirsson, H. Jonsson                     : NEB implementation
   FAccTs GmbH                                   : IRC, NEB, NEB-TS, DLPNO-Multilevel, CI-OPT
                                                   MM, QMMM, 2- and 3-layer-ONIOM, Crystal-QMMM,
                                                   LR-CPCM, SF, NACMEs, symmetry and pop. for TD-DFT,
                                                   nearIR, NL-DFT gradient (VV10), updates on ESD,
                                                   ML-optimized integration grids
   S Lehtola, MJT Oliveira, MAL Marques          : LibXC Library
   Liviu Ungur et al                             : ANISO software


 Your calculation uses the libint2 library for the computation of 2-el integrals
 For citations please refer to: http://libint.valeyev.net

 Your ORCA version has been built with support for libXC version: 5.1.0
 For citations please refer to: https://tddft.org/programs/libxc/

 This ORCA versions uses:
   CBLAS   interface :  Fast vector & matrix operations
   LAPACKE interface :  Fast linear algebra routines
   SCALAPACK package :  Parallel linear algebra routines
   Shared memory     :  Shared parallel matrices
   BLAS/LAPACK       :  OpenBLAS 0.3.15  USE64BITINT DYNAMIC_ARCH NO_AFFINITY SkylakeX SINGLE_THREADED
        Core in use  :  SkylakeX
   Copyright (c) 2011-2014, The OpenBLAS Project


================================================================================

----- Orbital basis set information -----
Your calculation utilizes the basis: cc-pVTZ 
       H, B-Ne : Obtained from the ccRepo (grant-hill.group.shef.ac.uk/ccrepo) Feb. 2017
                 T. H. Dunning, Jr., J. Chem. Phys. 90, 1007 (1989)
            He : Obtained from the ccRepo (grant-hill.group.shef.ac.uk/ccrepo) Feb. 2017
                 D. E. Woon, T. H. Dunning, Jr., J. Chem. Phys. 100, 2975 (1994)
  Li-Be, Na-Mg : Obtained from the ccRepo (grant-hill.group.shef.ac.uk/ccrepo) Feb. 2017
                 B. P. Prascher, D. E. Woon, K. A. Peterson, T. H. Dunning, Jr., A. K. Wilson, Theor. Chem. Acc. 128, 69 (2011)
         Al-Ar : Obtained from the ccRepo (grant-hill.group.shef.ac.uk/ccrepo) Feb. 2017
                 D. E. Woon, T. H. Dunning, Jr., J. Chem. Phys. 98, 1358 (1993)
            Ca : Obtained from the Peterson Research Group Website (tyr0.chem.wsu.edu/~kipeters) Feb. 2017
                 J. Koput, K. A. Peterson, J. Phys. Chem. 106, 9595 (2002)
         Sc-Zn : Obtained from the ccRepo (grant-hill.group.shef.ac.uk/ccrepo) Feb. 2017
                 N. B. Balabanov, K. A. Peterson, J. Chem. Phys. 123, 064107 (2005)
                 N. B. Balabanov, K. A. Peterson, J. Chem. Phys. 125, 074110 (2006)
         Ga-Kr : Obtained from the ccRepo (grant-hill.group.shef.ac.uk/ccrepo) Feb. 2017
                 A. K. Wilson, D. E. Woon, K. A. Peterson, T. H. Dunning, Jr., J. Chem. Phys. 110, 7667 (1999)
             Y : Obtained from the ccRepo (grant-hill.group.shef.ac.uk/ccrepo) Feb. 2017
                 K. A. Peterson, D. Figgen, M. Dolg, H. Stoll, J. Chem. Phys. 126, 124101 (2007)
        Ag, Au : Obtained from the Peterson Research Group Website (tyr0.chem.wsu.edu/~kipeters) Feb. 2017
                 K. A. Peterson, C. Puzzarini, Theor. Chem. Acc. 114, 283 (2005)

----- AuxC basis set information -----
Your calculation utilizes the auxiliary basis: cc-pVTZ/C 
  Obtained from the EMSL Basis Set Exchange (bse.pnl.gov) Feb. 2017
  H-He, B-F, Al-Ar, Ga-Kr : F. Weigend, A. Kohn, C. Hattig, J. Chem. Phys. 116, 3175 (2002)
             Li-Be, Na-Mg : C. Haettig, Phys. Chem. Chem. Phys. 7, 59 (2005)
                       Ne : C. Haettig, Phys. Chem. Chem. Phys. 7, 59 (2005)
                            F. Weigend, A. Kohn, C. Hattig, J. Chem. Phys. 116, 3175 (2002)
                    Sc-Zn : J. G. Hill, J. A. Platts, J. Chem. Phys. 128, 044104 (2008)

================================================================================
                                        WARNINGS
                       Please study these warnings very carefully!
================================================================================


WARNING: No MP2 level density has been requested!
         To caclulate MP2 level properties use
         %mp2 Density relaxed end
         or
         %mp2 Density unrelaxed end

WARNING: Post HF methods need fully converged wavefunctions
  ===> : Setting SCFConvForced true
         You can overwrite this default with %scf ConvForced false 


INFO   : the flag for use of the SHARK integral package has been found!

================================================================================
                                       INPUT FILE
================================================================================
NAME = qm_input.vacu
|  1> ! RI-MP2 cc-pVTZ cc-pVTZ/c TightSCF KeepDens NoKeepInts
|  2> 
|  3> *xyz  0  1
|  4>     C     9.0960864    6.1626631   11.6122974
|  5>     C     9.3009673    4.8197182   10.9000204
|  6>     O     8.0417038    4.1601317   10.9924112
|  7>     C     7.5655112    3.6380711   12.1528925
|  8>     O     8.2324703    3.5764234   13.1405413
|  9>     C     6.2159510    3.0317241   12.0337915
| 10>     C     5.4902314    2.8418274   10.8897898
| 11>     C     6.0402136    2.8299954    9.4724795
| 12>     N     4.1605813    2.6107249   10.9407357
| 13>     C     3.3712648    2.7409719   11.9846977
| 14>     S     1.7132916    2.4224506   11.8626883
| 15>     N     4.0668668    2.9697535   13.1858224
| 16>     C     5.5359918    2.7874003   13.3504797
| 17>     C     5.9288509    1.5079522   14.0063466
| 18>     C     6.1968064    1.4819202   15.4492774
| 19>     C     6.4956955    0.2121142   15.9975565
| 20>     C     6.4994740   -0.9759088   15.2581892
| 21>     C     6.2118680   -0.9094126   13.9028784
| 22>     O     6.2562258   -2.0261104   13.1103857
| 23>     C     5.8493873    0.2727179   13.3019821
| 24>     H     8.1198394    6.6316861   11.4386640
| 25>     H     9.8559212    6.9269333   11.4080399
| 26>     H     9.2081545    6.0485819   12.6974762
| 27>     H     9.5039355    4.9951971    9.8364412
| 28>     H    10.0912815    4.1467034   11.2544878
| 29>     H     5.4633890    2.4062298    8.6412838
| 30>     H     6.9666326    2.2480383    9.3933375
| 31>     H     6.2733908    3.8669390    9.2012488
| 32>     H     3.8099497    2.2889951   10.0465804
| 33>     H     3.4606696    2.8567348   13.9893883
| 34>     H     5.7164097    3.6281882   14.0314458
| 35>     H     6.1626354    2.4490605   15.9420938
| 36>     H     6.9251214    0.1631067   16.9938449
| 37>     H     6.6853701   -1.9152669   15.7704831
| 38>     H     6.1269031   -2.7488649   13.7488455
| 39>     H     5.6987092    0.2634850   12.2265255
| 40> *
| 41> 
| 42>                          ****END OF INPUT****
================================================================================

                       ****************************
                       * Single Point Calculation *
                       ****************************

---------------------------------
CARTESIAN COORDINATES (ANGSTROEM)
---------------------------------
  C      9.096086    6.162663   11.612297
  C      9.300967    4.819718   10.900020
  O      8.041704    4.160132   10.992411
  C      7.565511    3.638071   12.152893
  O      8.232470    3.576423   13.140541
  C      6.215951    3.031724   12.033791
  C      5.490231    2.841827   10.889790
  C      6.040214    2.829995    9.472480
  N      4.160581    2.610725   10.940736
  C      3.371265    2.740972   11.984698
  S      1.713292    2.422451   11.862688
  N      4.066867    2.969753   13.185822
  C      5.535992    2.787400   13.350480
  C      5.928851    1.507952   14.006347
  C      6.196806    1.481920   15.449277
  C      6.495695    0.212114   15.997556
  C      6.499474   -0.975909   15.258189
  C      6.211868   -0.909413   13.902878
  O      6.256226   -2.026110   13.110386
  C      5.849387    0.272718   13.301982
  H      8.119839    6.631686   11.438664
  H      9.855921    6.926933   11.408040
  H      9.208154    6.048582   12.697476
  H      9.503935    4.995197    9.836441
  H     10.091281    4.146703   11.254488
  H      5.463389    2.406230    8.641284
  H      6.966633    2.248038    9.393337
  H      6.273391    3.866939    9.201249
  H      3.809950    2.288995   10.046580
  H      3.460670    2.856735   13.989388
  H      5.716410    3.628188   14.031446
  H      6.162635    2.449060   15.942094
  H      6.925121    0.163107   16.993845
  H      6.685370   -1.915267   15.770483
  H      6.126903   -2.748865   13.748845
  H      5.698709    0.263485   12.226525

----------------------------
CARTESIAN COORDINATES (A.U.)
----------------------------
  NO LB      ZA    FRAG     MASS         X           Y           Z
   0 C     6.0000    0    12.011   17.189112   11.645746   21.944062
   1 C     6.0000    0    12.011   17.576281    9.107947   20.598053
   2 O     8.0000    0    15.999   15.196618    7.861510   20.772647
   3 C     6.0000    0    12.011   14.296744    6.874958   22.965639
   4 O     8.0000    0    15.999   15.557114    6.758461   24.832024
   5 C     6.0000    0    12.011   11.746445    5.729128   22.740570
   6 C     6.0000    0    12.011   10.375034    5.370276   20.578720
   7 C     6.0000    0    12.011   11.414349    5.347916   17.900392
   8 N     7.0000    0    14.007    7.862359    4.933555   20.674994
   9 C     6.0000    0    12.011    6.370767    5.179686   22.647796
  10 S    16.0000    0    32.060    3.237652    4.577768   22.417232
  11 N     7.0000    0    14.007    7.685264    5.612021   24.917593
  12 C     6.0000    0    12.011   10.461508    5.267423   25.228750
  13 C     6.0000    0    12.011   11.203904    2.849617   26.468159
  14 C     6.0000    0    12.011   11.710267    2.800423   29.194903
  15 C     6.0000    0    12.011   12.275086    0.400838   30.231001
  16 C     6.0000    0    12.011   12.282226   -1.844200   28.833799
  17 C     6.0000    0    12.011   11.738729   -1.718541   26.272633
  18 O     8.0000    0    15.999   11.822553   -3.828794   24.775038
  19 C     6.0000    0    12.011   11.053740    0.515362   25.137103
  20 H     1.0000    0     1.008   15.344273   12.532071   21.615942
  21 H     1.0000    0     1.008   18.624992   13.090007   21.558071
  22 H     1.0000    0     1.008   17.400890   11.430163   23.994753
  23 H     1.0000    0     1.008   17.959835    9.439555   18.588180
  24 H     1.0000    0     1.008   19.069758    7.836134   21.267900
  25 H     1.0000    0     1.008   10.324309    4.547115   16.329660
  26 H     1.0000    0     1.008   13.165028    4.248177   17.750835
  27 H     1.0000    0     1.008   11.854991    7.307456   17.387840
  28 H     1.0000    0     1.008    7.199762    4.325574   18.985286
  29 H     1.0000    0     1.008    6.539718    5.398446   26.436113
  30 H     1.0000    0     1.008   10.802449    6.856282   26.515590
  31 H     1.0000    0     1.008   11.645693    4.628054   30.126191
  32 H     1.0000    0     1.008   13.086583    0.308227   32.113713
  33 H     1.0000    0     1.008   12.633519   -3.619330   29.801894
  34 H     1.0000    0     1.008   11.578169   -5.194602   25.981553
  35 H     1.0000    0     1.008   10.769000    0.497914   23.104785

--------------------------------
INTERNAL COORDINATES (ANGSTROEM)
--------------------------------
 C      0   0   0     0.000000000000     0.00000000     0.00000000
 C      1   0   0     1.533889080850     0.00000000     0.00000000
 O      2   1   0     1.424547287154   104.90328899     0.00000000
 C      3   2   1     1.358684477727   122.89626793   287.70101734
 O      4   3   2     1.193350339225   122.06364378   352.07380340
 C      4   3   2     1.484302686797   114.02241171   178.24153668
 C      6   4   3     1.368016660753   127.31089401     6.53455599
 C      7   6   4     1.520325262247   126.06901247    19.01848876
 N      7   6   4     1.350545533724   120.96340369   197.57628339
 C      9   7   6     1.315234380491   127.14576565    11.48632347
 S     10   9   7     1.692695260276   120.79549264   179.30249786
 N     10   9   7     1.406735123558   113.39591380   350.83441504
 C     12  10   9     1.489527771349   124.20687538   346.98710406
 C     13  12  10     1.490465398311   114.43783835   259.75798108
 C     14  13  12     1.467830749301   119.73032751   263.77483648
 C     15  14  13     1.415044855555   115.80852424   176.86572684
 C     16  15  14     1.399313020700   123.89729997   357.75327785
 C     17  16  15     1.387085549073   118.36027217     0.92043242
 O     18  17  16     1.370046083349   121.29227522   177.10468361
 C     18  17  16     1.374736753075   121.53240186   356.02111755
 H      1   2   3     1.096899875619   114.81776988   321.50089182
 H      1   2   3     1.096895158256   115.53273869   196.47779720
 H      1   2   3     1.096898722399   110.77477992    82.80092654
 H      2   1   3     1.096900017882   109.56688632   115.12807456
 H      2   1   3     1.096901359924   118.90499459   237.36919813
 H      8   7   6     1.096900266481   121.27826583   162.98765342
 H      8   7   6     1.096900034627   112.14302137    44.28459742
 H      8   7   6     1.096900054154   107.46116152   286.10398852
 H      9   7   6     1.012899937627   111.21463263   192.71971906
 H     12  10   9     1.012900008629   111.30276739   192.87933825
 H     13  12  10     1.096900059612    97.87509605   143.55953860
 H     15  14  13     1.086000009776   115.12246503   355.33703118
 H     16  15  14     1.086001341906   118.65095508   165.85427081
 H     17  16  15     1.086000018420   119.05024246   183.43054121
 H     19  18  17     0.973000176887   102.80223944    23.47995636
 H     20  18  17     1.086000015997   117.52454234   176.28614459

---------------------------
INTERNAL COORDINATES (A.U.)
---------------------------
 C      0   0   0     0.000000000000     0.00000000     0.00000000
 C      1   0   0     2.898630282618     0.00000000     0.00000000
 O      2   1   0     2.692004237542   104.90328899     0.00000000
 C      3   2   1     2.567541565314   122.89626793   287.70101734
 O      4   3   2     2.255105322958   122.06364378   352.07380340
 C      4   3   2     2.804925577891   114.02241171   178.24153668
 C      6   4   3     2.585176835465   127.31089401     6.53455599
 C      7   6   4     2.872998380129   126.06901247    19.01848876
 N      7   6   4     2.552161190130   120.96340369   197.57628339
 C      9   7   6     2.485432781045   127.14576565    11.48632347
 S     10   9   7     3.198730470108   120.79549264   179.30249786
 N     10   9   7     2.658344126493   113.39591380   350.83441504
 C     12  10   9     2.814799556719   124.20687538   346.98710406
 C     13  12  10     2.816571414893   114.43783835   259.75798108
 C     14  13  12     2.773798127127   119.73032751   263.77483648
 C     15  14  13     2.674047244212   115.80852424   176.86572684
 C     16  15  14     2.644318384753   123.89729997   357.75327785
 C     17  16  15     2.621211812068   118.36027217     0.92043242
 O     18  17  16     2.589011888380   121.29227522   177.10468361
 C     18  17  16     2.597875969549   121.53240186   356.02111755
 H      1   2   3     2.072840361253   114.81776988   321.50089182
 H      1   2   3     2.072831446728   115.53273869   196.47779720
 H      1   2   3     2.072838181982   110.77477992    82.80092654
 H      2   1   3     2.072840630090   109.56688632   115.12807456
 H      2   1   3     2.072843166182   118.90499459   237.36919813
 H      8   7   6     2.072841099875   121.27826583   162.98765342
 H      8   7   6     2.072840661734   112.14302137    44.28459742
 H      8   7   6     2.072840698635   107.46116152   286.10398852
 H      9   7   6     1.914103483181   111.21463263   192.71971906
 H     12  10   9     1.914103617355   111.30276739   192.87933825
 H     13  12  10     2.072840708948    97.87509605   143.55953860
 H     15  14  13     2.052242599913   115.12246503   355.33703118
 H     16  15  14     2.052245117273   118.65095508   165.85427081
 H     17  16  15     2.052242616247   119.05024246   183.43054121
 H     19  18  17     1.838703862573   102.80223944    23.47995636
 H     20  18  17     2.052242611669   117.52454234   176.28614459

---------------------
BASIS SET INFORMATION
---------------------
There are 5 groups of distinct atoms

 Group   1 Type C   : 18s5p2d1f contracted to 4s3p2d1f pattern {8811/311/11/1}
 Group   2 Type O   : 18s5p2d1f contracted to 4s3p2d1f pattern {8811/311/11/1}
 Group   3 Type N   : 18s5p2d1f contracted to 4s3p2d1f pattern {8811/311/11/1}
 Group   4 Type S   : 41s16p2d1f contracted to 5s4p2d1f pattern {13131311/7711/11/1}
 Group   5 Type H   : 5s2p1d contracted to 3s2p1d pattern {311/11/1}

Atom   0C    basis set group =>   1
Atom   1C    basis set group =>   1
Atom   2O    basis set group =>   2
Atom   3C    basis set group =>   1
Atom   4O    basis set group =>   2
Atom   5C    basis set group =>   1
Atom   6C    basis set group =>   1
Atom   7C    basis set group =>   1
Atom   8N    basis set group =>   3
Atom   9C    basis set group =>   1
Atom  10S    basis set group =>   4
Atom  11N    basis set group =>   3
Atom  12C    basis set group =>   1
Atom  13C    basis set group =>   1
Atom  14C    basis set group =>   1
Atom  15C    basis set group =>   1
Atom  16C    basis set group =>   1
Atom  17C    basis set group =>   1
Atom  18O    basis set group =>   2
Atom  19C    basis set group =>   1
Atom  20H    basis set group =>   5
Atom  21H    basis set group =>   5
Atom  22H    basis set group =>   5
Atom  23H    basis set group =>   5
Atom  24H    basis set group =>   5
Atom  25H    basis set group =>   5
Atom  26H    basis set group =>   5
Atom  27H    basis set group =>   5
Atom  28H    basis set group =>   5
Atom  29H    basis set group =>   5
Atom  30H    basis set group =>   5
Atom  31H    basis set group =>   5
Atom  32H    basis set group =>   5
Atom  33H    basis set group =>   5
Atom  34H    basis set group =>   5
Atom  35H    basis set group =>   5
---------------------------------
AUXILIARY/C BASIS SET INFORMATION
---------------------------------
There are 5 groups of distinct atoms

 Group   1 Type C   : 8s6p5d3f1g contracted to 8s6p5d3f1g pattern {11111111/111111/11111/111/1}
 Group   2 Type O   : 8s6p5d3f1g contracted to 8s6p5d3f1g pattern {11111111/111111/11111/111/1}
 Group   3 Type N   : 8s6p5d3f1g contracted to 8s6p5d3f1g pattern {11111111/111111/11111/111/1}
 Group   4 Type S   : 10s8p7d5f2g contracted to 10s8p7d5f2g pattern {1111111111/11111111/1111111/11111/11}
 Group   5 Type H   : 4s3p2d1f contracted to 4s3p2d1f pattern {1111/111/11/1}

Atom   0C    basis set group =>   1
Atom   1C    basis set group =>   1
Atom   2O    basis set group =>   2
Atom   3C    basis set group =>   1
Atom   4O    basis set group =>   2
Atom   5C    basis set group =>   1
Atom   6C    basis set group =>   1
Atom   7C    basis set group =>   1
Atom   8N    basis set group =>   3
Atom   9C    basis set group =>   1
Atom  10S    basis set group =>   4
Atom  11N    basis set group =>   3
Atom  12C    basis set group =>   1
Atom  13C    basis set group =>   1
Atom  14C    basis set group =>   1
Atom  15C    basis set group =>   1
Atom  16C    basis set group =>   1
Atom  17C    basis set group =>   1
Atom  18O    basis set group =>   2
Atom  19C    basis set group =>   1
Atom  20H    basis set group =>   5
Atom  21H    basis set group =>   5
Atom  22H    basis set group =>   5
Atom  23H    basis set group =>   5
Atom  24H    basis set group =>   5
Atom  25H    basis set group =>   5
Atom  26H    basis set group =>   5
Atom  27H    basis set group =>   5
Atom  28H    basis set group =>   5
Atom  29H    basis set group =>   5
Atom  30H    basis set group =>   5
Atom  31H    basis set group =>   5
Atom  32H    basis set group =>   5
Atom  33H    basis set group =>   5
Atom  34H    basis set group =>   5
Atom  35H    basis set group =>   5
------------------------------------------------------------------------------
                           ORCA GTO INTEGRAL CALCULATION
------------------------------------------------------------------------------
------------------------------------------------------------------------------
                   ___                                                        
                  /   \      - P O W E R E D   B Y -                         
                 /     \                                                     
                 |  |  |   _    _      __       _____    __    __             
                 |  |  |  | |  | |    /  \     |  _  \  |  |  /  |          
                  \  \/   | |  | |   /    \    | | | |  |  | /  /          
                 / \  \   | |__| |  /  /\  \   | |_| |  |  |/  /          
                |  |  |   |  __  | /  /__\  \  |    /   |      \           
                |  |  |   | |  | | |   __   |  |    \   |  |\   \          
                \     /   | |  | | |  |  |  |  | |\  \  |  | \   \       
                 \___/    |_|  |_| |__|  |__|  |_| \__\ |__|  \__/        
                                                                              
                      - O R C A' S   B I G   F R I E N D -                    
                                      &                                       
                       - I N T E G R A L  F E E D E R -                       
                                                                              
 v1 FN, 2020, v2 2021                                                         
------------------------------------------------------------------------------


Reading SHARK input file qm_input.vacu.SHARKINP.tmp ... ok
----------------------
SHARK INTEGRAL PACKAGE
----------------------

Number of atoms                             ...     36
Number of basis functions                   ...    828
Number of shells                            ...    298
Maximum angular momentum                    ...      3
Integral batch strategy                     ... SHARK/LIBINT Hybrid
RI-J (if used) integral strategy            ... SPLIT-RIJ (Revised 2003 algorithm where possible)
Printlevel                                  ...      1
Contraction scheme used                     ... SEGMENTED contraction
Coulomb Range Separation                    ... NOT USED
Exchange Range Separation                   ... NOT USED
Finite Nucleus Model                        ... NOT USED
Auxiliary Coulomb fitting basis             ... NOT available
Auxiliary J/K fitting basis                 ... NOT available
Auxiliary Correlation fitting basis         ... AVAILABLE
   # of basis functions in Aux-C            ...   2141
   # of shells in Aux-C                     ...    629
   Maximum angular momentum in Aux-C        ...      4
Auxiliary 'external' fitting basis          ... NOT available
Integral threshold                          ...     2.500000e-11
Primitive cut-off                           ...     2.500000e-12
Primitive pair pre-selection threshold      ...     2.500000e-12

Calculating pre-screening integrals         ... done (  0.6 sec) Dimension = 298
Organizing shell pair data                  ... done (  0.4 sec)
Shell pair information
Total number of shell pairs                 ...     44551
Shell pairs after pre-screening             ...     31951
Total number of primitive shell pairs       ...    234348
Primitive shell pairs kept                  ...     92615
          la=0 lb=0:   6385 shell pairs
          la=1 lb=0:   8902 shell pairs
          la=1 lb=1:   3147 shell pairs
          la=2 lb=0:   5085 shell pairs
          la=2 lb=1:   3488 shell pairs
          la=2 lb=2:    982 shell pairs
          la=3 lb=0:   1847 shell pairs
          la=3 lb=1:   1261 shell pairs
          la=3 lb=2:    715 shell pairs
          la=3 lb=3:    139 shell pairs

Calculating one electron integrals          ... done (  0.3 sec)
Calculating RI/C V-Matrix + Cholesky decomp.... done (  0.3 sec)
Calculating Nuclear repulsion               ... done (  0.0 sec) ENN=   1684.153492661196 Eh

SHARK setup successfully completed in   1.8 seconds

Maximum memory used throughout the entire GTOINT-calculation: 474.3 MB
-------------------------------------------------------------------------------
                                 ORCA SCF
-------------------------------------------------------------------------------

------------
SCF SETTINGS
------------
Hamiltonian:
 Ab initio Hamiltonian  Method          .... Hartree-Fock(GTOs)


General Settings:
 Integral files         IntName         .... qm_input.vacu
 Hartree-Fock type      HFTyp           .... RHF
 Total Charge           Charge          ....    0
 Multiplicity           Mult            ....    1
 Number of Electrons    NEL             ....  154
 Basis Dimension        Dim             ....  828
 Nuclear Repulsion      ENuc            ....   1684.1534926612 Eh

Convergence Acceleration:
 DIIS                   CNVDIIS         .... on
   Start iteration      DIISMaxIt       ....    12
   Startup error        DIISStart       ....  0.200000
   # of expansion vecs  DIISMaxEq       ....     5
   Bias factor          DIISBfac        ....   1.050
   Max. coefficient     DIISMaxC        ....  10.000
 Trust-Rad. Augm. Hess. CNVTRAH         .... auto
   Auto Start mean grad. ratio tolernc. ....  1.125000
   Auto Start start iteration           ....    20
   Auto Start num. interpolation iter.  ....    10
   Max. Number of Micro iterations      ....    16
   Max. Number of Macro iterations      .... Maxiter - #DIIS iter
   Number of Davidson start vectors     ....     2
   Converg. threshold I  (grad. norm)   ....   1.000e-05
   Converg. threshold II (energy diff.) ....   1.000e-08
   Grad. Scal. Fac. for Micro threshold ....   0.100
   Minimum threshold for Micro iter.    ....   0.010
   NR start threshold (gradient norm)   ....   0.001
   Initial trust radius                 ....   0.400
   Minimum AH scaling param. (alpha)    ....   1.000
   Maximum AH scaling param. (alpha)    .... 1000.000
   Orbital update algorithm             .... Taylor
   White noise on init. David. guess    .... on
   Maximum white noise                  ....   0.010
   Quad. conv. algorithm                .... NR
 SOSCF                  CNVSOSCF        .... on
   Start iteration      SOSCFMaxIt      ....   150
   Startup grad/error   SOSCFStart      ....  0.003300
 Level Shifting         CNVShift        .... on
   Level shift para.    LevelShift      ....    0.2500
   Turn off err/grad.   ShiftErr        ....    0.0010
 Zerner damping         CNVZerner       .... off
 Static damping         CNVDamp         .... on
   Fraction old density DampFac         ....    0.7000
   Max. Damping (<1)    DampMax         ....    0.9800
   Min. Damping (>=0)   DampMin         ....    0.0000
   Turn off err/grad.   DampErr         ....    0.1000
 Fernandez-Rico         CNVRico         .... off

SCF Procedure:
 Maximum # iterations   MaxIter         ....   125
 SCF integral mode      SCFMode         .... Direct
   Integral package                     .... SHARK and LIBINT hybrid scheme
 Reset frequency        DirectResetFreq ....    20
 Integral Threshold     Thresh          ....  2.500e-11 Eh
 Primitive CutOff       TCut            ....  2.500e-12 Eh

Convergence Tolerance:
 Convergence Check Mode ConvCheckMode   .... Total+1el-Energy
 Convergence forced     ConvForced      .... 1
 Energy Change          TolE            ....  1.000e-08 Eh
 1-El. energy change                    ....  1.000e-05 Eh
 Orbital Gradient       TolG            ....  1.000e-05
 Orbital Rotation angle TolX            ....  1.000e-05
 DIIS Error             TolErr          ....  5.000e-07


Diagonalization of the overlap matrix:
Smallest eigenvalue                        ... 4.724e-05
Time for diagonalization                   ...    0.130 sec
Threshold for overlap eigenvalues          ... 1.000e-08
Number of eigenvalues below threshold      ... 0
Time for construction of square roots      ...    0.078 sec
Total time needed                          ...    0.209 sec

Time for model grid setup =    1.386 sec

------------------------------
INITIAL GUESS: MODEL POTENTIAL
------------------------------
Loading Hartree-Fock densities                     ... done
Calculating cut-offs                               ... done
Initializing the effective Hamiltonian             ... done
Setting up the integral package (SHARK)            ... done
Starting the Coulomb interaction                   ... done (   4.0 sec)
Reading the grid                                   ... done
Mapping shells                                     ... done
Starting the XC term evaluation                    ... done (   1.4 sec)
Transforming the Hamiltonian                       ... done (   0.0 sec)
Diagonalizing the Hamiltonian                      ... done (   0.1 sec)
Back transforming the eigenvectors                 ... done (   0.0 sec)
Now organizing SCF variables                       ... done
                      ------------------
                      INITIAL GUESS DONE (   7.0 sec)
                      ------------------
--------------
SCF ITERATIONS
--------------
ITER       Energy         Delta-E        Max-DP      RMS-DP      [F,P]     Damp
               ***  Starting incremental Fock matrix formation  ***
  0  -1269.9750762797   0.000000000000 0.04923022  0.00044185  0.3200387 0.7000
  1  -1270.2429566845  -0.267880404767 0.03599814  0.00035864  0.1903449 0.7000
                               ***Turning on DIIS***
  2  -1270.4102903175  -0.167333633025 0.02576142  0.00023723  0.1094003 0.7000
  3  -1272.5929255290  -2.182635211502 0.06288968  0.00050065  0.0827057 0.0000
  4  -1270.7175866921   1.875338836920 0.01072183  0.00011188  0.0084272 0.0000
  5  -1270.7814716140  -0.063884921905 0.00494025  0.00005536  0.0052537 0.0000
                      *** Initiating the SOSCF procedure ***
                           *** Shutting down DIIS ***
                      *** Re-Reading the Fockian *** 
                      *** Removing any level shift *** 
ITER      Energy       Delta-E        Grad      Rot      Max-DP    RMS-DP
  6  -1270.76044918   0.0210224360  0.001888  0.001888  0.001968  0.000028
               *** Restarting incremental Fock matrix formation ***
  7  -1270.77401990  -0.0135707230  0.000895  0.002382  0.001350  0.000015
  8  -1270.77407374  -0.0000538416  0.000465  0.002865  0.001648  0.000018
  9  -1270.77409483  -0.0000210861  0.000199  0.000360  0.000348  0.000004
 10  -1270.77409745  -0.0000026198  0.000050  0.000147  0.000143  0.000002
 11  -1270.77409772  -0.0000002745  0.000023  0.000144  0.000107  0.000001
 12  -1270.77409780  -0.0000000762  0.000010  0.000041  0.000030  0.000000
 13  -1270.77409780  -0.0000000026  0.000003  0.000010  0.000010  0.000000
                  ***Gradient check signals convergence***
              ***Rediagonalizing the Fockian in SOSCF/NRSCF***

               *****************************************************
               *                     SUCCESS                       *
               *           SCF CONVERGED AFTER  14 CYCLES          *
               *****************************************************


----------------
TOTAL SCF ENERGY
----------------

Total Energy       :        -1270.77409779 Eh          -34579.52119 eV

Components:
Nuclear Repulsion  :         1684.15349266 Eh           45828.14639 eV
Electronic Energy  :        -2954.92759045 Eh          -80407.66758 eV
One Electron Energy:        -5089.48047017 Eh         -138491.80438 eV
Two Electron Energy:         2134.55287971 Eh           58084.13680 eV

Virial components:
Potential Energy   :        -2540.02323712 Eh          -69117.54615 eV
Kinetic Energy     :         1269.24913933 Eh           34538.02496 eV
Virial Ratio       :            2.00120147


---------------
SCF CONVERGENCE
---------------

  Last Energy change         ...    9.4187e-09  Tolerance :   1.0000e-08
  Last MAX-Density change    ...    3.3131e-06  Tolerance :   1.0000e-07
  Last RMS-Density change    ...    3.7346e-08  Tolerance :   5.0000e-09
  Last Orbital Gradient      ...    1.4545e-06  Tolerance :   1.0000e-05
  Last Orbital Rotation      ...    4.3768e-06  Tolerance :   1.0000e-05

             **** THE GBW FILE WAS UPDATED (qm_input.vacu.gbw) ****
             **** DENSITY qm_input.vacu.scfp WAS UPDATED ****
             **** ENERGY FILE WAS UPDATED (qm_input.vacu.en.tmp) ****
             **** THE GBW FILE WAS UPDATED (qm_input.vacu.gbw) ****
             **** DENSITY qm_input.vacu.scfp WAS UPDATED ****
----------------
ORBITAL ENERGIES
----------------

  NO   OCC          E(Eh)            E(eV) 
   0   2.0000     -91.892433     -2500.5202 
   1   2.0000     -20.594144      -560.3951 
   2   2.0000     -20.591779      -560.3308 
   3   2.0000     -20.541629      -558.9661 
   4   2.0000     -15.634335      -425.4319 
   5   2.0000     -15.602786      -424.5734 
   6   2.0000     -11.386770      -309.8498 
   7   2.0000     -11.385349      -309.8111 
   8   2.0000     -11.336813      -308.4904 
   9   2.0000     -11.304543      -307.6123 
  10   2.0000     -11.300947      -307.5144 
  11   2.0000     -11.299376      -307.4716 
  12   2.0000     -11.262553      -306.4696 
  13   2.0000     -11.259007      -306.3732 
  14   2.0000     -11.252952      -306.2084 
  15   2.0000     -11.252420      -306.1939 
  16   2.0000     -11.245981      -306.0187 
  17   2.0000     -11.239394      -305.8395 
  18   2.0000     -11.233716      -305.6850 
  19   2.0000     -11.225170      -305.4524 
  20   2.0000      -8.895890      -242.0695 
  21   2.0000      -6.577292      -178.9772 
  22   2.0000      -6.575428      -178.9265 
  23   2.0000      -6.574837      -178.9104 
  24   2.0000      -1.461926       -39.7810 
  25   2.0000      -1.408397       -38.3244 
  26   2.0000      -1.366380       -37.1811 
  27   2.0000      -1.364409       -37.1274 
  28   2.0000      -1.234629       -33.5960 
  29   2.0000      -1.151934       -31.3457 
  30   2.0000      -1.124923       -30.6107 
  31   2.0000      -1.043639       -28.3989 
  32   2.0000      -1.036865       -28.2145 
  33   2.0000      -1.011968       -27.5370 
  34   2.0000      -0.999984       -27.2110 
  35   2.0000      -0.977982       -26.6123 
  36   2.0000      -0.925096       -25.1731 
  37   2.0000      -0.899253       -24.4699 
  38   2.0000      -0.865756       -23.5584 
  39   2.0000      -0.839157       -22.8346 
  40   2.0000      -0.827957       -22.5299 
  41   2.0000      -0.815744       -22.1975 
  42   2.0000      -0.751442       -20.4478 
  43   2.0000      -0.735351       -20.0099 
  44   2.0000      -0.727208       -19.7883 
  45   2.0000      -0.698351       -19.0031 
  46   2.0000      -0.685921       -18.6649 
  47   2.0000      -0.680237       -18.5102 
  48   2.0000      -0.668358       -18.1870 
  49   2.0000      -0.658070       -17.9070 
  50   2.0000      -0.651826       -17.7371 
  51   2.0000      -0.651169       -17.7192 
  52   2.0000      -0.638877       -17.3847 
  53   2.0000      -0.611328       -16.6351 
  54   2.0000      -0.606642       -16.5076 
  55   2.0000      -0.600426       -16.3384 
  56   2.0000      -0.594295       -16.1716 
  57   2.0000      -0.579360       -15.7652 
  58   2.0000      -0.566514       -15.4156 
  59   2.0000      -0.565540       -15.3891 
  60   2.0000      -0.561315       -15.2742 
  61   2.0000      -0.547955       -14.9106 
  62   2.0000      -0.537672       -14.6308 
  63   2.0000      -0.532382       -14.4868 
  64   2.0000      -0.521185       -14.1822 
  65   2.0000      -0.511449       -13.9172 
  66   2.0000      -0.496831       -13.5195 
  67   2.0000      -0.490248       -13.3403 
  68   2.0000      -0.473716       -12.8905 
  69   2.0000      -0.460344       -12.5266 
  70   2.0000      -0.456352       -12.4180 
  71   2.0000      -0.445860       -12.1325 
  72   2.0000      -0.357084        -9.7167 
  73   2.0000      -0.343478        -9.3465 
  74   2.0000      -0.326585        -8.8868 
  75   2.0000      -0.320399        -8.7185 
  76   2.0000      -0.312027        -8.4907 
  77   0.0000       0.064716         1.7610 
  78   0.0000       0.109229         2.9723 
  79   0.0000       0.117726         3.2035 
  80   0.0000       0.132246         3.5986 
  81   0.0000       0.137753         3.7484 
  82   0.0000       0.141016         3.8372 
  83   0.0000       0.146423         3.9844 
  84   0.0000       0.160308         4.3622 
  85   0.0000       0.164027         4.4634 
  86   0.0000       0.169201         4.6042 
  87   0.0000       0.177305         4.8247 
  88   0.0000       0.185984         5.0609 
  89   0.0000       0.190973         5.1966 
  90   0.0000       0.201312         5.4780 
  91   0.0000       0.203868         5.5475 
  92   0.0000       0.210157         5.7187 
  93   0.0000       0.221970         6.0401 
  94   0.0000       0.231323         6.2946 
  95   0.0000       0.235830         6.4173 
  96   0.0000       0.241474         6.5708 
  97   0.0000       0.243508         6.6262 
  98   0.0000       0.266476         7.2512 
  99   0.0000       0.270395         7.3578 
 100   0.0000       0.296610         8.0712 
 101   0.0000       0.302006         8.2180 
 102   0.0000       0.313940         8.5428 
 103   0.0000       0.315143         8.5755 
 104   0.0000       0.330774         9.0008 
 105   0.0000       0.334662         9.1066 
 106   0.0000       0.342494         9.3197 
 107   0.0000       0.352438         9.5903 
 108   0.0000       0.357435         9.7263 
 109   0.0000       0.365071         9.9341 
 110   0.0000       0.367292         9.9945 
 111   0.0000       0.370918        10.0932 
 112   0.0000       0.380211        10.3461 
 113   0.0000       0.397220        10.8089 
 114   0.0000       0.406569        11.0633 
 115   0.0000       0.409559        11.1447 
 116   0.0000       0.419384        11.4120 
 117   0.0000       0.425221        11.5708 
 118   0.0000       0.431245        11.7348 
 119   0.0000       0.436378        11.8744 
 120   0.0000       0.445379        12.1194 
 121   0.0000       0.445725        12.1288 
 122   0.0000       0.456770        12.4293 
 123   0.0000       0.462234        12.5780 
 124   0.0000       0.465321        12.6620 
 125   0.0000       0.467219        12.7137 
 126   0.0000       0.472946        12.8695 
 127   0.0000       0.486908        13.2494 
 128   0.0000       0.492613        13.4047 
 129   0.0000       0.495537        13.4843 
 130   0.0000       0.504336        13.7237 
 131   0.0000       0.507960        13.8223 
 132   0.0000       0.516204        14.0466 
 133   0.0000       0.520438        14.1618 
 134   0.0000       0.525849        14.3091 
 135   0.0000       0.528296        14.3757 
 136   0.0000       0.529900        14.4193 
 137   0.0000       0.543532        14.7903 
 138   0.0000       0.547054        14.8861 
 139   0.0000       0.550661        14.9843 
 140   0.0000       0.557421        15.1682 
 141   0.0000       0.560202        15.2439 
 142   0.0000       0.563340        15.3293 
 143   0.0000       0.567099        15.4315 
 144   0.0000       0.574050        15.6207 
 145   0.0000       0.575855        15.6698 
 146   0.0000       0.580775        15.8037 
 147   0.0000       0.586935        15.9713 
 148   0.0000       0.592392        16.1198 
 149   0.0000       0.597255        16.2521 
 150   0.0000       0.599305        16.3079 
 151   0.0000       0.604178        16.4405 
 152   0.0000       0.612756        16.6739 
 153   0.0000       0.616724        16.7819 
 154   0.0000       0.617442        16.8015 
 155   0.0000       0.622150        16.9296 
 156   0.0000       0.628123        17.0921 
 157   0.0000       0.633472        17.2377 
 158   0.0000       0.635479        17.2923 
 159   0.0000       0.636836        17.3292 
 160   0.0000       0.643326        17.5058 
 161   0.0000       0.645700        17.5704 
 162   0.0000       0.652064        17.7436 
 163   0.0000       0.654097        17.7989 
 164   0.0000       0.661713        18.0061 
 165   0.0000       0.670724        18.2513 
 166   0.0000       0.672688        18.3048 
 167   0.0000       0.677507        18.4359 
 168   0.0000       0.680974        18.5302 
 169   0.0000       0.685963        18.6660 
 170   0.0000       0.691592        18.8192 
 171   0.0000       0.699247        19.0275 
 172   0.0000       0.701334        19.0843 
 173   0.0000       0.713252        19.4086 
 174   0.0000       0.721560        19.6346 
 175   0.0000       0.728434        19.8217 
 176   0.0000       0.734577        19.9889 
 177   0.0000       0.741791        20.1851 
 178   0.0000       0.746194        20.3050 
 179   0.0000       0.753506        20.5039 
 180   0.0000       0.759787        20.6749 
 181   0.0000       0.769300        20.9337 
 182   0.0000       0.785310        21.3694 
 183   0.0000       0.789003        21.4699 
 184   0.0000       0.797844        21.7104 
 185   0.0000       0.801879        21.8202 
 186   0.0000       0.810764        22.0620 
 187   0.0000       0.812414        22.1069 
 188   0.0000       0.816972        22.2309 
 189   0.0000       0.826205        22.4822 
 190   0.0000       0.836537        22.7633 
 191   0.0000       0.840573        22.8732 
 192   0.0000       0.847960        23.0742 
 193   0.0000       0.862020        23.4568 
 194   0.0000       0.863950        23.5093 
 195   0.0000       0.867313        23.6008 
 196   0.0000       0.883627        24.0447 
 197   0.0000       0.886012        24.1096 
 198   0.0000       0.900529        24.5046 
 199   0.0000       0.910092        24.7649 
 200   0.0000       0.914657        24.8891 
 201   0.0000       0.918924        25.0052 
 202   0.0000       0.924013        25.1437 
 203   0.0000       0.933675        25.4066 
 204   0.0000       0.935810        25.4647 
 205   0.0000       0.951102        25.8808 
 206   0.0000       0.951887        25.9022 
 207   0.0000       0.963978        26.2312 
 208   0.0000       0.967117        26.3166 
 209   0.0000       0.978226        26.6189 
 210   0.0000       0.982636        26.7389 
 211   0.0000       0.988001        26.8849 
 212   0.0000       0.995471        27.0881 
 213   0.0000       1.002551        27.2808 
 214   0.0000       1.009382        27.4667 
 215   0.0000       1.018816        27.7234 
 216   0.0000       1.025573        27.9072 
 217   0.0000       1.033226        28.1155 
 218   0.0000       1.043162        28.3859 
 219   0.0000       1.043534        28.3960 
 220   0.0000       1.049882        28.5688 
 221   0.0000       1.058346        28.7991 
 222   0.0000       1.063427        28.9373 
 223   0.0000       1.076249        29.2862 
 224   0.0000       1.086103        29.5544 
 225   0.0000       1.090399        29.6713 
 226   0.0000       1.103555        30.0292 
 227   0.0000       1.109635        30.1947 
 228   0.0000       1.115572        30.3563 
 229   0.0000       1.128840        30.7173 
 230   0.0000       1.132484        30.8165 
 231   0.0000       1.145031        31.1579 
 232   0.0000       1.147663        31.2295 
 233   0.0000       1.152149        31.3516 
 234   0.0000       1.154973        31.4284 
 235   0.0000       1.166878        31.7524 
 236   0.0000       1.171782        31.8858 
 237   0.0000       1.177377        32.0380 
 238   0.0000       1.180509        32.1233 
 239   0.0000       1.185304        32.2538 
 240   0.0000       1.190819        32.4038 
 241   0.0000       1.196273        32.5522 
 242   0.0000       1.207650        32.8618 
 243   0.0000       1.212267        32.9875 
 244   0.0000       1.215928        33.0871 
 245   0.0000       1.225854        33.3572 
 246   0.0000       1.226339        33.3704 
 247   0.0000       1.236634        33.6505 
 248   0.0000       1.245187        33.8833 
 249   0.0000       1.250028        34.0150 
 250   0.0000       1.261665        34.3316 
 251   0.0000       1.269637        34.5486 
 252   0.0000       1.273492        34.6535 
 253   0.0000       1.282522        34.8992 
 254   0.0000       1.286044        34.9950 
 255   0.0000       1.297792        35.3147 
 256   0.0000       1.311585        35.6901 
 257   0.0000       1.312186        35.7064 
 258   0.0000       1.317494        35.8508 
 259   0.0000       1.331171        36.2230 
 260   0.0000       1.345106        36.6022 
 261   0.0000       1.351453        36.7749 
 262   0.0000       1.357359        36.9356 
 263   0.0000       1.359689        36.9990 
 264   0.0000       1.370247        37.2863 
 265   0.0000       1.377794        37.4917 
 266   0.0000       1.381684        37.5975 
 267   0.0000       1.393700        37.9245 
 268   0.0000       1.401206        38.1287 
 269   0.0000       1.405032        38.2329 
 270   0.0000       1.413373        38.4598 
 271   0.0000       1.426973        38.8299 
 272   0.0000       1.435019        39.0488 
 273   0.0000       1.440338        39.1936 
 274   0.0000       1.446934        39.3731 
 275   0.0000       1.458802        39.6960 
 276   0.0000       1.462201        39.7885 
 277   0.0000       1.468902        39.9708 
 278   0.0000       1.473925        40.1075 
 279   0.0000       1.489041        40.5189 
 280   0.0000       1.491395        40.5829 
 281   0.0000       1.502512        40.8854 
 282   0.0000       1.510191        41.0944 
 283   0.0000       1.511388        41.1270 
 284   0.0000       1.518259        41.3139 
 285   0.0000       1.519719        41.3537 
 286   0.0000       1.523780        41.4642 
 287   0.0000       1.532245        41.6945 
 288   0.0000       1.547576        42.1117 
 289   0.0000       1.551453        42.2172 
 290   0.0000       1.555914        42.3386 
 291   0.0000       1.562670        42.5224 
 292   0.0000       1.566010        42.6133 
 293   0.0000       1.577564        42.9277 
 294   0.0000       1.582603        43.0648 
 295   0.0000       1.589775        43.2600 
 296   0.0000       1.594556        43.3901 
 297   0.0000       1.609715        43.8026 
 298   0.0000       1.618377        44.0383 
 299   0.0000       1.620834        44.1051 
 300   0.0000       1.632274        44.4164 
 301   0.0000       1.643962        44.7345 
 302   0.0000       1.646356        44.7996 
 303   0.0000       1.648993        44.8714 
 304   0.0000       1.656749        45.0824 
 305   0.0000       1.659091        45.1462 
 306   0.0000       1.686488        45.8917 
 307   0.0000       1.693682        46.0874 
 308   0.0000       1.704746        46.3885 
 309   0.0000       1.711261        46.5658 
 310   0.0000       1.728178        47.0261 
 311   0.0000       1.737418        47.2775 
 312   0.0000       1.744041        47.4578 
 313   0.0000       1.750853        47.6431 
 314   0.0000       1.764044        48.0021 
 315   0.0000       1.779345        48.4184 
 316   0.0000       1.784978        48.5717 
 317   0.0000       1.787033        48.6276 
 318   0.0000       1.793134        48.7937 
 319   0.0000       1.798916        48.9510 
 320   0.0000       1.807618        49.1878 
 321   0.0000       1.821564        49.5673 
 322   0.0000       1.829753        49.7901 
 323   0.0000       1.843331        50.1596 
 324   0.0000       1.859823        50.6084 
 325   0.0000       1.866490        50.7898 
 326   0.0000       1.885166        51.2980 
 327   0.0000       1.898755        51.6678 
 328   0.0000       1.906002        51.8650 
 329   0.0000       1.910396        51.9845 
 330   0.0000       1.921814        52.2952 
 331   0.0000       1.939060        52.7645 
 332   0.0000       1.947925        53.0057 
 333   0.0000       1.962374        53.3989 
 334   0.0000       1.966865        53.5211 
 335   0.0000       1.971743        53.6538 
 336   0.0000       1.983055        53.9617 
 337   0.0000       1.991141        54.1817 
 338   0.0000       2.007990        54.6402 
 339   0.0000       2.017774        54.9064 
 340   0.0000       2.023289        55.0565 
 341   0.0000       2.042666        55.5838 
 342   0.0000       2.051388        55.8211 
 343   0.0000       2.066547        56.2336 
 344   0.0000       2.076175        56.4956 
 345   0.0000       2.089365        56.8545 
 346   0.0000       2.113861        57.5211 
 347   0.0000       2.124453        57.8093 
 348   0.0000       2.132087        58.0170 
 349   0.0000       2.146962        58.4218 
 350   0.0000       2.160591        58.7927 
 351   0.0000       2.164233        58.8918 
 352   0.0000       2.195576        59.7447 
 353   0.0000       2.207248        60.0623 
 354   0.0000       2.220132        60.4129 
 355   0.0000       2.227146        60.6037 
 356   0.0000       2.252553        61.2951 
 357   0.0000       2.262973        61.5786 
 358   0.0000       2.270410        61.7810 
 359   0.0000       2.290715        62.3335 
 360   0.0000       2.300821        62.6085 
 361   0.0000       2.331413        63.4410 
 362   0.0000       2.338288        63.6280 
 363   0.0000       2.343024        63.7569 
 364   0.0000       2.346789        63.8594 
 365   0.0000       2.357098        64.1399 
 366   0.0000       2.386251        64.9332 
 367   0.0000       2.395862        65.1947 
 368   0.0000       2.404075        65.4182 
 369   0.0000       2.412451        65.6461 
 370   0.0000       2.420224        65.8576 
 371   0.0000       2.428092        66.0717 
 372   0.0000       2.446953        66.5850 
 373   0.0000       2.473718        67.3133 
 374   0.0000       2.488336        67.7111 
 375   0.0000       2.499772        68.0222 
 376   0.0000       2.518797        68.5399 
 377   0.0000       2.532066        68.9010 
 378   0.0000       2.545541        69.2677 
 379   0.0000       2.553371        69.4807 
 380   0.0000       2.567106        69.8545 
 381   0.0000       2.583466        70.2997 
 382   0.0000       2.592004        70.5320 
 383   0.0000       2.611046        71.0502 
 384   0.0000       2.623846        71.3985 
 385   0.0000       2.629769        71.5597 
 386   0.0000       2.640647        71.8557 
 387   0.0000       2.649263        72.0901 
 388   0.0000       2.659334        72.3641 
 389   0.0000       2.672488        72.7221 
 390   0.0000       2.691878        73.2497 
 391   0.0000       2.700177        73.4756 
 392   0.0000       2.712081        73.7995 
 393   0.0000       2.718717        73.9800 
 394   0.0000       2.721133        74.0458 
 395   0.0000       2.730497        74.3006 
 396   0.0000       2.732776        74.3626 
 397   0.0000       2.740273        74.5666 
 398   0.0000       2.754668        74.9583 
 399   0.0000       2.759992        75.1032 
 400   0.0000       2.776578        75.5545 
 401   0.0000       2.787759        75.8588 
 402   0.0000       2.793800        76.0232 
 403   0.0000       2.801194        76.2244 
 404   0.0000       2.811432        76.5030 
 405   0.0000       2.822535        76.8051 
 406   0.0000       2.830945        77.0339 
 407   0.0000       2.833060        77.0915 
 408   0.0000       2.858625        77.7871 
 409   0.0000       2.860250        77.8314 
 410   0.0000       2.862856        77.9023 
 411   0.0000       2.876082        78.2622 
 412   0.0000       2.880695        78.3877 
 413   0.0000       2.885950        78.5307 
 414   0.0000       2.904337        79.0310 
 415   0.0000       2.907463        79.1161 
 416   0.0000       2.915283        79.3289 
 417   0.0000       2.926540        79.6352 
 418   0.0000       2.932497        79.7973 
 419   0.0000       2.942251        80.0627 
 420   0.0000       2.957248        80.4708 
 421   0.0000       2.964909        80.6793 
 422   0.0000       2.976101        80.9838 
 423   0.0000       2.987457        81.2928 
 424   0.0000       2.990163        81.3665 
 425   0.0000       3.004264        81.7502 
 426   0.0000       3.006135        81.8011 
 427   0.0000       3.019223        82.1572 
 428   0.0000       3.028687        82.4148 
 429   0.0000       3.035782        82.6078 
 430   0.0000       3.052410        83.0603 
 431   0.0000       3.057357        83.1949 
 432   0.0000       3.068002        83.4846 
 433   0.0000       3.082944        83.8912 
 434   0.0000       3.089799        84.0777 
 435   0.0000       3.092777        84.1587 
 436   0.0000       3.096931        84.2718 
 437   0.0000       3.102066        84.4115 
 438   0.0000       3.107716        84.5653 
 439   0.0000       3.112853        84.7050 
 440   0.0000       3.118136        84.8488 
 441   0.0000       3.131314        85.2074 
 442   0.0000       3.141081        85.4732 
 443   0.0000       3.144068        85.5544 
 444   0.0000       3.147494        85.6477 
 445   0.0000       3.155377        85.8622 
 446   0.0000       3.164089        86.0992 
 447   0.0000       3.172363        86.3244 
 448   0.0000       3.181008        86.5596 
 449   0.0000       3.188921        86.7750 
 450   0.0000       3.192428        86.8704 
 451   0.0000       3.199200        87.0547 
 452   0.0000       3.209746        87.3416 
 453   0.0000       3.219931        87.6188 
 454   0.0000       3.226935        87.8094 
 455   0.0000       3.237069        88.0851 
 456   0.0000       3.244082        88.2760 
 457   0.0000       3.244624        88.2907 
 458   0.0000       3.253571        88.5342 
 459   0.0000       3.258483        88.6678 
 460   0.0000       3.264739        88.8381 
 461   0.0000       3.274200        89.0955 
 462   0.0000       3.279023        89.2267 
 463   0.0000       3.288956        89.4970 
 464   0.0000       3.294202        89.6398 
 465   0.0000       3.299361        89.7802 
 466   0.0000       3.305358        89.9434 
 467   0.0000       3.313295        90.1593 
 468   0.0000       3.318920        90.3124 
 469   0.0000       3.326208        90.5107 
 470   0.0000       3.338195        90.8369 
 471   0.0000       3.340866        90.9096 
 472   0.0000       3.342484        90.9536 
 473   0.0000       3.349759        91.1516 
 474   0.0000       3.351075        91.1874 
 475   0.0000       3.360081        91.4325 
 476   0.0000       3.364918        91.5641 
 477   0.0000       3.373534        91.7985 
 478   0.0000       3.375915        91.8633 
 479   0.0000       3.380908        91.9992 
 480   0.0000       3.389747        92.2397 
 481   0.0000       3.398946        92.4900 
 482   0.0000       3.407947        92.7350 
 483   0.0000       3.412570        92.8608 
 484   0.0000       3.416934        92.9795 
 485   0.0000       3.422701        93.1364 
 486   0.0000       3.424362        93.1816 
 487   0.0000       3.429645        93.3254 
 488   0.0000       3.443977        93.7154 
 489   0.0000       3.447030        93.7985 
 490   0.0000       3.455872        94.0391 
 491   0.0000       3.458543        94.1117 
 492   0.0000       3.464140        94.2640 
 493   0.0000       3.472456        94.4903 
 494   0.0000       3.479336        94.6775 
 495   0.0000       3.486707        94.8781 
 496   0.0000       3.492915        95.0470 
 497   0.0000       3.497191        95.1634 
 498   0.0000       3.505861        95.3993 
 499   0.0000       3.515056        95.6495 
 500   0.0000       3.524199        95.8983 
 501   0.0000       3.529090        96.0314 
 502   0.0000       3.532088        96.1130 
 503   0.0000       3.542664        96.4008 
 504   0.0000       3.556920        96.7887 
 505   0.0000       3.563223        96.9602 
 506   0.0000       3.564076        96.9834 
 507   0.0000       3.570869        97.1683 
 508   0.0000       3.579540        97.4042 
 509   0.0000       3.588096        97.6371 
 510   0.0000       3.595729        97.8448 
 511   0.0000       3.598785        97.9279 
 512   0.0000       3.603791        98.0641 
 513   0.0000       3.607558        98.1666 
 514   0.0000       3.619964        98.5042 
 515   0.0000       3.624333        98.6231 
 516   0.0000       3.625666        98.6594 
 517   0.0000       3.632593        98.8479 
 518   0.0000       3.636576        98.9563 
 519   0.0000       3.647204        99.2455 
 520   0.0000       3.647668        99.2581 
 521   0.0000       3.655289        99.4655 
 522   0.0000       3.661358        99.6306 
 523   0.0000       3.681129       100.1686 
 524   0.0000       3.685581       100.2898 
 525   0.0000       3.688980       100.3823 
 526   0.0000       3.699349       100.6644 
 527   0.0000       3.705299       100.8263 
 528   0.0000       3.708540       100.9145 
 529   0.0000       3.712426       101.0203 
 530   0.0000       3.712864       101.0322 
 531   0.0000       3.720413       101.2376 
 532   0.0000       3.730072       101.5004 
 533   0.0000       3.738938       101.7417 
 534   0.0000       3.742754       101.8455 
 535   0.0000       3.748806       102.0102 
 536   0.0000       3.757449       102.2454 
 537   0.0000       3.761191       102.3472 
 538   0.0000       3.764061       102.4253 
 539   0.0000       3.771119       102.6174 
 540   0.0000       3.787951       103.0754 
 541   0.0000       3.793171       103.2174 
 542   0.0000       3.800776       103.4244 
 543   0.0000       3.802320       103.4664 
 544   0.0000       3.808351       103.6305 
 545   0.0000       3.811084       103.7049 
 546   0.0000       3.811438       103.7145 
 547   0.0000       3.819901       103.9448 
 548   0.0000       3.829730       104.2122 
 549   0.0000       3.842426       104.5577 
 550   0.0000       3.854481       104.8858 
 551   0.0000       3.860764       105.0567 
 552   0.0000       3.876100       105.4740 
 553   0.0000       3.881276       105.6149 
 554   0.0000       3.888112       105.8009 
 555   0.0000       3.898148       106.0740 
 556   0.0000       3.909478       106.3823 
 557   0.0000       3.914166       106.5099 
 558   0.0000       3.926097       106.8345 
 559   0.0000       3.931990       106.9949 
 560   0.0000       3.933535       107.0369 
 561   0.0000       3.941438       107.2520 
 562   0.0000       3.960273       107.7645 
 563   0.0000       3.969099       108.0047 
 564   0.0000       3.982275       108.3632 
 565   0.0000       3.989820       108.5685 
 566   0.0000       3.991092       108.6031 
 567   0.0000       3.995672       108.7278 
 568   0.0000       4.006386       109.0193 
 569   0.0000       4.013637       109.2166 
 570   0.0000       4.026742       109.5732 
 571   0.0000       4.032698       109.7353 
 572   0.0000       4.036001       109.8252 
 573   0.0000       4.043391       110.0263 
 574   0.0000       4.057717       110.4161 
 575   0.0000       4.062186       110.5377 
 576   0.0000       4.076092       110.9161 
 577   0.0000       4.080702       111.0415 
 578   0.0000       4.084426       111.1429 
 579   0.0000       4.095993       111.4576 
 580   0.0000       4.109620       111.8285 
 581   0.0000       4.110764       111.8596 
 582   0.0000       4.119728       112.1035 
 583   0.0000       4.125919       112.2720 
 584   0.0000       4.143503       112.7504 
 585   0.0000       4.148005       112.8730 
 586   0.0000       4.150454       112.9396 
 587   0.0000       4.155027       113.0640 
 588   0.0000       4.164082       113.3104 
 589   0.0000       4.170643       113.4890 
 590   0.0000       4.175837       113.6303 
 591   0.0000       4.179078       113.7185 
 592   0.0000       4.190146       114.0197 
 593   0.0000       4.197445       114.2183 
 594   0.0000       4.204510       114.4105 
 595   0.0000       4.216863       114.7467 
 596   0.0000       4.225562       114.9834 
 597   0.0000       4.231317       115.1400 
 598   0.0000       4.233489       115.1991 
 599   0.0000       4.236838       115.2902 
 600   0.0000       4.249563       115.6365 
 601   0.0000       4.257872       115.8626 
 602   0.0000       4.264592       116.0454 
 603   0.0000       4.278772       116.4313 
 604   0.0000       4.283606       116.5628 
 605   0.0000       4.297397       116.9381 
 606   0.0000       4.302121       117.0667 
 607   0.0000       4.311345       117.3177 
 608   0.0000       4.328713       117.7903 
 609   0.0000       4.340612       118.1140 
 610   0.0000       4.341604       118.1411 
 611   0.0000       4.346894       118.2850 
 612   0.0000       4.351617       118.4135 
 613   0.0000       4.355159       118.5099 
 614   0.0000       4.359344       118.6238 
 615   0.0000       4.378470       119.1442 
 616   0.0000       4.386789       119.3706 
 617   0.0000       4.393989       119.5665 
 618   0.0000       4.405714       119.8856 
 619   0.0000       4.416071       120.1674 
 620   0.0000       4.420363       120.2842 
 621   0.0000       4.426387       120.4481 
 622   0.0000       4.432807       120.6228 
 623   0.0000       4.447409       121.0202 
 624   0.0000       4.450935       121.1161 
 625   0.0000       4.454259       121.2065 
 626   0.0000       4.458331       121.3174 
 627   0.0000       4.467308       121.5616 
 628   0.0000       4.470823       121.6573 
 629   0.0000       4.482325       121.9703 
 630   0.0000       4.491600       122.2226 
 631   0.0000       4.499296       122.4321 
 632   0.0000       4.502362       122.5155 
 633   0.0000       4.511762       122.7713 
 634   0.0000       4.529114       123.2435 
 635   0.0000       4.532173       123.3267 
 636   0.0000       4.537540       123.4727 
 637   0.0000       4.549692       123.8034 
 638   0.0000       4.554603       123.9370 
 639   0.0000       4.564822       124.2151 
 640   0.0000       4.574442       124.4769 
 641   0.0000       4.587712       124.8380 
 642   0.0000       4.591484       124.9406 
 643   0.0000       4.601181       125.2045 
 644   0.0000       4.616062       125.6094 
 645   0.0000       4.630890       126.0129 
 646   0.0000       4.632094       126.0457 
 647   0.0000       4.638629       126.2235 
 648   0.0000       4.642549       126.3302 
 649   0.0000       4.659321       126.7866 
 650   0.0000       4.664283       126.9216 
 651   0.0000       4.685139       127.4891 
 652   0.0000       4.693224       127.7091 
 653   0.0000       4.701509       127.9346 
 654   0.0000       4.706219       128.0627 
 655   0.0000       4.710844       128.1886 
 656   0.0000       4.725047       128.5751 
 657   0.0000       4.736624       128.8901 
 658   0.0000       4.751768       129.3022 
 659   0.0000       4.756414       129.4286 
 660   0.0000       4.772051       129.8541 
 661   0.0000       4.792693       130.4158 
 662   0.0000       4.795403       130.4896 
 663   0.0000       4.800544       130.6294 
 664   0.0000       4.817669       131.0954 
 665   0.0000       4.833565       131.5280 
 666   0.0000       4.852482       132.0428 
 667   0.0000       4.855582       132.1271 
 668   0.0000       4.891298       133.0990 
 669   0.0000       4.902720       133.4098 
 670   0.0000       4.907560       133.5415 
 671   0.0000       4.910151       133.6120 
 672   0.0000       4.946180       134.5924 
 673   0.0000       4.959722       134.9609 
 674   0.0000       4.986707       135.6952 
 675   0.0000       4.991858       135.8354 
 676   0.0000       5.003165       136.1430 
 677   0.0000       5.011341       136.3655 
 678   0.0000       5.033131       136.9585 
 679   0.0000       5.050954       137.4434 
 680   0.0000       5.058846       137.6582 
 681   0.0000       5.071867       138.0125 
 682   0.0000       5.073602       138.0597 
 683   0.0000       5.079779       138.2278 
 684   0.0000       5.098699       138.7427 
 685   0.0000       5.100902       138.8026 
 686   0.0000       5.113391       139.1424 
 687   0.0000       5.124112       139.4342 
 688   0.0000       5.125948       139.4841 
 689   0.0000       5.144346       139.9848 
 690   0.0000       5.157027       140.3298 
 691   0.0000       5.172350       140.7468 
 692   0.0000       5.183860       141.0600 
 693   0.0000       5.192051       141.2829 
 694   0.0000       5.199380       141.4823 
 695   0.0000       5.209485       141.7573 
 696   0.0000       5.213776       141.8740 
 697   0.0000       5.217002       141.9618 
 698   0.0000       5.249745       142.8528 
 699   0.0000       5.257017       143.0507 
 700   0.0000       5.258332       143.0865 
 701   0.0000       5.276270       143.5746 
 702   0.0000       5.296241       144.1180 
 703   0.0000       5.301770       144.2685 
 704   0.0000       5.305268       144.3637 
 705   0.0000       5.334234       145.1519 
 706   0.0000       5.347290       145.5072 
 707   0.0000       5.361702       145.8993 
 708   0.0000       5.382245       146.4583 
 709   0.0000       5.386957       146.5866 
 710   0.0000       5.401788       146.9901 
 711   0.0000       5.413662       147.3132 
 712   0.0000       5.425568       147.6372 
 713   0.0000       5.447229       148.2266 
 714   0.0000       5.459811       148.5690 
 715   0.0000       5.474565       148.9705 
 716   0.0000       5.492951       149.4708 
 717   0.0000       5.507704       149.8723 
 718   0.0000       5.510534       149.9493 
 719   0.0000       5.526219       150.3761 
 720   0.0000       5.546585       150.9302 
 721   0.0000       5.560755       151.3158 
 722   0.0000       5.582289       151.9018 
 723   0.0000       5.586419       152.0142 
 724   0.0000       5.599065       152.3583 
 725   0.0000       5.604237       152.4990 
 726   0.0000       5.618572       152.8891 
 727   0.0000       5.622328       152.9913 
 728   0.0000       5.628823       153.1681 
 729   0.0000       5.648928       153.7151 
 730   0.0000       5.657926       153.9600 
 731   0.0000       5.677918       154.5040 
 732   0.0000       5.692924       154.9123 
 733   0.0000       5.694516       154.9557 
 734   0.0000       5.708222       155.3286 
 735   0.0000       5.731337       155.9576 
 736   0.0000       5.745872       156.3531 
 737   0.0000       5.757275       156.6634 
 738   0.0000       5.769797       157.0042 
 739   0.0000       5.778299       157.2355 
 740   0.0000       5.790068       157.5558 
 741   0.0000       5.804579       157.9506 
 742   0.0000       5.814358       158.2167 
 743   0.0000       5.820636       158.3876 
 744   0.0000       5.830513       158.6563 
 745   0.0000       5.858164       159.4088 
 746   0.0000       5.863919       159.5653 
 747   0.0000       5.884355       160.1214 
 748   0.0000       5.899526       160.5343 
 749   0.0000       5.911551       160.8615 
 750   0.0000       5.924460       161.2128 
 751   0.0000       5.991668       163.0416 
 752   0.0000       6.006893       163.4559 
 753   0.0000       6.024799       163.9431 
 754   0.0000       6.027027       164.0037 
 755   0.0000       6.067119       165.0947 
 756   0.0000       6.073554       165.2698 
 757   0.0000       6.075084       165.3114 
 758   0.0000       6.096656       165.8984 
 759   0.0000       6.105916       166.1504 
 760   0.0000       6.149454       167.3351 
 761   0.0000       6.199202       168.6889 
 762   0.0000       6.212201       169.0426 
 763   0.0000       6.234671       169.6540 
 764   0.0000       6.242440       169.8654 
 765   0.0000       6.260273       170.3507 
 766   0.0000       6.280995       170.9146 
 767   0.0000       6.308845       171.6724 
 768   0.0000       6.317958       171.9204 
 769   0.0000       6.335876       172.4079 
 770   0.0000       6.382071       173.6650 
 771   0.0000       6.387774       173.8202 
 772   0.0000       6.413975       174.5331 
 773   0.0000       6.443595       175.3391 
 774   0.0000       6.447874       175.4556 
 775   0.0000       6.479828       176.3251 
 776   0.0000       6.521873       177.4692 
 777   0.0000       6.558207       178.4579 
 778   0.0000       6.574539       178.9023 
 779   0.0000       6.654017       181.0650 
 780   0.0000       6.668199       181.4509 
 781   0.0000       6.714325       182.7061 
 782   0.0000       6.788797       184.7326 
 783   0.0000       6.791923       184.8176 
 784   0.0000       6.806601       185.2170 
 785   0.0000       6.847182       186.3213 
 786   0.0000       6.927414       188.5045 
 787   0.0000       6.935817       188.7332 
 788   0.0000       6.951018       189.1468 
 789   0.0000       7.004078       190.5906 
 790   0.0000       7.052915       191.9196 
 791   0.0000       7.090891       192.9530 
 792   0.0000       7.128419       193.9741 
 793   0.0000       7.184781       195.5078 
 794   0.0000       7.207032       196.1133 
 795   0.0000       7.231076       196.7676 
 796   0.0000       7.292248       198.4321 
 797   0.0000       7.297411       198.5726 
 798   0.0000       7.351745       200.0511 
 799   0.0000       7.380171       200.8247 
 800   0.0000       7.505593       204.2376 
 801   0.0000       7.519517       204.6165 
 802   0.0000       7.567673       205.9269 
 803   0.0000       7.609566       207.0668 
 804   0.0000       7.716886       209.9871 
 805   0.0000       7.763820       211.2643 
 806   0.0000       7.895318       214.8425 
 807   0.0000       7.899181       214.9476 
 808   0.0000       7.997294       217.6174 
 809   0.0000       9.258340       251.9323 
 810   0.0000       9.866034       268.4684 
 811   0.0000      11.018541       299.8297 
 812   0.0000      11.600930       315.6773 
 813   0.0000      12.080009       328.7138 
 814   0.0000      12.293886       334.5336 
 815   0.0000      12.765449       347.3655 
 816   0.0000      12.872499       350.2785 
 817   0.0000      12.934742       351.9722 
 818   0.0000      13.030877       354.5882 
 819   0.0000      13.271060       361.1239 
 820   0.0000      13.589739       369.7956 
 821   0.0000      13.743316       373.9746 
 822   0.0000      13.909061       378.4848 
 823   0.0000      13.999588       380.9482 
 824   0.0000      14.349400       390.4670 
 825   0.0000      14.841762       403.8649 
 826   0.0000      15.202777       413.6886 
 827   0.0000      15.692752       427.0215 

                    ********************************
                    * MULLIKEN POPULATION ANALYSIS *
                    ********************************

-----------------------
MULLIKEN ATOMIC CHARGES
-----------------------
   0 C :   -0.323769
   1 C :    0.031603
   2 O :   -0.342569
   3 C :    0.420445
   4 O :   -0.414053
   5 C :   -0.183523
   6 C :    0.119652
   7 C :   -0.293379
   8 N :   -0.041181
   9 C :    0.197298
  10 S :   -0.439889
  11 N :   -0.241861
  12 C :    0.016045
  13 C :    0.107242
  14 C :   -0.203565
  15 C :   -0.113106
  16 C :   -0.271306
  17 C :    0.302974
  18 O :   -0.368671
  19 C :   -0.245050
  20 H :    0.105060
  21 H :    0.099519
  22 H :    0.119735
  23 H :    0.101261
  24 H :    0.113597
  25 H :    0.111280
  26 H :    0.122474
  27 H :    0.131733
  28 H :    0.198071
  29 H :    0.186535
  30 H :    0.151541
  31 H :    0.159028
  32 H :    0.152124
  33 H :    0.138383
  34 H :    0.240291
  35 H :    0.156032
Sum of atomic charges:    0.0000000

--------------------------------
MULLIKEN REDUCED ORBITAL CHARGES
--------------------------------
  0 C s       :     3.268430  s :     3.268430
      pz      :     1.023019  p :     2.979027
      px      :     1.023380
      py      :     0.932628
      dz2     :     0.027202  d :     0.071746
      dxz     :     0.002957
      dyz     :     0.010931
      dx2y2   :     0.010569
      dxy     :     0.020087
      f0      :     0.001076  f :     0.004565
      f+1     :     0.000163
      f-1     :     0.000764
      f+2     :     0.000670
      f-2     :     0.000174
      f+3     :     0.000642
      f-3     :     0.001076
  1 C s       :     3.168917  s :     3.168917
      pz      :     1.022509  p :     2.634012
      px      :     0.730742
      py      :     0.880762
      dz2     :     0.035486  d :     0.153518
      dxz     :     0.021831
      dyz     :     0.017811
      dx2y2   :     0.032678
      dxy     :     0.045712
      f0      :     0.001713  f :     0.011950
      f+1     :     0.000994
      f-1     :     0.001070
      f+2     :     0.001079
      f-2     :     0.001478
      f+3     :     0.003218
      f-3     :     0.002399
  2 O s       :     3.702461  s :     3.702461
      pz      :     1.493663  p :     4.603543
      px      :     1.440464
      py      :     1.669416
      dz2     :     0.010731  d :     0.034185
      dxz     :     0.006319
      dyz     :     0.005787
      dx2y2   :     0.006023
      dxy     :     0.005324
      f0      :     0.000299  f :     0.002380
      f+1     :     0.000409
      f-1     :     0.000369
      f+2     :     0.000202
      f-2     :     0.000364
      f+3     :     0.000261
      f-3     :     0.000477
  3 C s       :     3.087766  s :     3.087766
      pz      :     0.690458  p :     2.154399
      px      :     0.803211
[...]
 15 C s       :     2.706109  s :     2.706109
      pz      :     0.957763  p :     2.796558
      px      :     0.833417
      py      :     1.005378
      dz2     :     0.101215  d :     0.420785
      dxz     :     0.035901
      dyz     :     0.109275
      dx2y2   :     0.077431
      dxy     :     0.096963
      f0      :     0.003528  f :     0.041129
      f+1     :     0.002336
      f-1     :     0.011750
      f+2     :     0.006056
      f-2     :     0.007282
      f+3     :     0.004635
      f-3     :     0.005541
 16 C s       :     2.697829  s :     2.697829
      pz      :     0.985169  p :     2.864562
      px      :     0.904936
      py      :     0.974457
      dz2     :     0.112290  d :     0.393336
      dxz     :     0.063488
      dyz     :     0.132620
      dx2y2   :     0.050445
      dxy     :     0.034493
      f0      :     0.008099  f :     0.041582
      f+1     :     0.005081
      f-1     :     0.013018
      f+2     :     0.004919
      f-2     :     0.004392
      f+3     :     0.002790
      f-3     :     0.003283
 17 C s       :     2.696087  s :     2.696087
      pz      :     0.981850  p :     2.681890
      px      :     0.820790
      py      :     0.879251
      dz2     :     0.155597  d :     0.718027
      dxz     :     0.111320
      dyz     :     0.227934
      dx2y2   :     0.095990
      dxy     :     0.127186
      f0      :     0.010407  f :     0.100428
      f+1     :     0.006551
      f-1     :     0.032861
      f+2     :     0.013176
      f-2     :     0.017719
      f+3     :     0.010791
      f-3     :     0.008924
 18 O s       :     3.192997  s :     3.192997
      pz      :     1.497678  p :     4.350241
      px      :     1.645971
      py      :     1.206592
      dz2     :     0.009095  d :     0.072409
      dxz     :     0.005142
      dyz     :     0.034632
      dx2y2   :     0.014881
      dxy     :     0.008658
      f0      :     0.000634  f :     0.005165
      f+1     :     0.000068
      f-1     :     0.001780
      f+2     :     0.001138
      f-2     :     0.000644
      f+3     :     0.000526
      f-3     :     0.000375
 19 C s       :     2.696077  s :     2.696077
      pz      :     0.964114  p :     2.845471
      px      :     0.892054
      py      :     0.989303
      dz2     :     0.109947  d :     0.389512
      dxz     :     0.022364
      dyz     :     0.110674
      dx2y2   :     0.070966
      dxy     :     0.075561
      f0      :     0.005051  f :     0.041445
      f+1     :     0.001031
      f-1     :     0.011560
      f+2     :     0.006282
      f-2     :     0.006681
      f+3     :     0.004850
      f-3     :     0.005990
 20 H s       :     0.846138  s :     0.846138
      pz      :     0.042127  p :     0.150686
      px      :     0.066631
      py      :     0.041928
      dz2     :     0.003036  d :     0.027749
      dxz     :     0.006956
      dyz     :     0.001929
      dx2y2   :     0.007519
      dxy     :     0.008309
 21 H s       :     0.845857  s :     0.845857
      pz      :     0.045403  p :     0.155096
      px      :     0.055174
      py      :     0.054519
      dz2     :     0.003366  d :     0.027780
      dxz     :     0.004218
      dyz     :     0.005038
      dx2y2   :     0.008634
      dxy     :     0.006523
 22 H s       :     0.837558  s :     0.837558
      pz      :     0.075125  p :     0.157299
      px      :     0.041867
      py      :     0.040307
      dz2     :     0.009345  d :     0.028271
      dxz     :     0.009286
      dyz     :     0.009042
      dx2y2   :     0.000248
      dxy     :     0.000350
 23 H s       :     0.854745  s :     0.854745
      pz      :     0.077782  p :     0.144013
      px      :     0.028426
      py      :     0.037806
      dz2     :     0.009569  d :     0.027017
      dxz     :     0.007379
      dyz     :     0.008909
      dx2y2   :     0.000465
      dxy     :     0.000695
 24 H s       :     0.854661  s :     0.854661
      pz      :     0.044452  p :     0.144766
      px      :     0.051738
      py      :     0.048576
      dz2     :     0.004585  d :     0.026785
      dxz     :     0.004820
      dyz     :     0.004008
      dx2y2   :     0.006101
      dxy     :     0.007272
 25 H s       :     0.838058  s :     0.838058
      pz      :     0.055782  p :     0.154756
      px      :     0.051046
      py      :     0.047928
      dz2     :     0.007984  d :     0.027913
      dxz     :     0.006346
      dyz     :     0.005679
      dx2y2   :     0.004515
      dxy     :     0.003390
 26 H s       :     0.828058  s :     0.828058
      pz      :     0.035300  p :     0.151959
      px      :     0.068033
      py      :     0.048626
      dz2     :     0.002527  d :     0.028152
      dxz     :     0.006784
      dyz     :     0.002061
      dx2y2   :     0.009493
      dxy     :     0.007287
 27 H s       :     0.825138  s :     0.825138
      pz      :     0.040625  p :     0.156123
      px      :     0.044409
      py      :     0.071089
      dz2     :     0.003181  d :     0.028269
      dxz     :     0.001253
      dyz     :     0.008055
      dx2y2   :     0.006674
      dxy     :     0.009105
 28 H s       :     0.730046  s :     0.730046
      pz      :     0.103926  p :     0.244220
      px      :     0.053097
      py      :     0.087197
      dz2     :     0.018705  d :     0.060296
      dxz     :     0.014914
      dyz     :     0.017724
      dx2y2   :     0.004874
      dxy     :     0.004078
 29 H s       :     0.754537  s :     0.754537
      pz      :     0.090354  p :     0.258118
      px      :     0.074486
      py      :     0.093279
      dz2     :     0.014897  d :     0.061568
      dxz     :     0.016051
      dyz     :     0.015959
      dx2y2   :     0.005865
      dxy     :     0.008795
 30 H s       :     0.825013  s :     0.825013
      pz      :     0.052403  p :     0.150633
      px      :     0.037067
      py      :     0.061163
      dz2     :     0.007111  d :     0.029473
      dxz     :     0.003636
      dyz     :     0.007889
      dx2y2   :     0.006167
      dxy     :     0.004671
 31 H s       :     0.846111  s :     0.846111
      pz      :     0.042963  p :     0.160262
      px      :     0.046656
      py      :     0.070643
      dz2     :     0.004656  d :     0.027540
      dxz     :     0.001824
      dyz     :     0.008321
      dx2y2   :     0.006154
      dxy     :     0.006585
 32 H s       :     0.841575  s :     0.841575
      pz      :     0.073800  p :     0.155061
      px      :     0.047019
      py      :     0.034242
      dz2     :     0.008843  d :     0.027212
      dxz     :     0.007778
      dyz     :     0.007819
      dx2y2   :     0.001391
      dxy     :     0.001382
 33 H s       :     0.844261  s :     0.844261
      pz      :     0.042881  p :     0.157269
      px      :     0.049162
      py      :     0.065226
      dz2     :     0.004788  d :     0.027531
      dxz     :     0.002179
      dyz     :     0.007885
      dx2y2   :     0.006073
      dxy     :     0.006606
 34 H s       :     0.704338  s :     0.704338
      pz      :     0.132257  p :     0.350074
      px      :     0.105959
      py      :     0.111858
      dz2     :     0.022405  d :     0.099084
      dxz     :     0.015844
      dyz     :     0.025665
      dx2y2   :     0.014838
      dxy     :     0.020331
 35 H s       :     0.839454  s :     0.839454
      pz      :     0.079625  p :     0.158176
      px      :     0.046362
      py      :     0.032189
      dz2     :     0.010345  d :     0.028129
      dxz     :     0.008449
      dyz     :     0.008794
      dx2y2   :     0.000266
      dxy     :     0.000275


                      *****************************
                      * MAYER POPULATION ANALYSIS *
                      *****************************

  NA   - Mulliken gross atomic population
  ZA   - Total nuclear charge
  QA   - Mulliken gross atomic charge
  VA   - Mayer's total valence
  BVA  - Mayer's bonded valence
  FA   - Mayer's free valence

  ATOM       NA         ZA         QA         VA         BVA        FA
  0 C      6.3238     6.0000    -0.3238     3.8681     3.8681     0.0000
  1 C      5.9684     6.0000     0.0316     3.8626     3.8626     0.0000
  2 O      8.3426     8.0000    -0.3426     2.0490     2.0490     0.0000
  3 C      5.5796     6.0000     0.4204     4.2700     4.2700     0.0000
  4 O      8.4141     8.0000    -0.4141     2.1082     2.1082    -0.0000
  5 C      6.1835     6.0000    -0.1835     3.6081     3.6081     0.0000
  6 C      5.8803     6.0000     0.1197     3.8518     3.8518    -0.0000
  7 C      6.2934     6.0000    -0.2934     3.8864     3.8864    -0.0000
  8 N      7.0412     7.0000    -0.0412     3.3540     3.3540     0.0000
  9 C      5.8027     6.0000     0.1973     4.1259     4.1259    -0.0000
 10 S     16.4399    16.0000    -0.4399     1.7144     1.7144    -0.0000
 11 N      7.2419     7.0000    -0.2419     3.1874     3.1874    -0.0000
 12 C      5.9840     6.0000     0.0160     3.9745     3.9745    -0.0000
 13 C      5.8928     6.0000     0.1072     3.6935     3.6935     0.0000
 14 C      6.2036     6.0000    -0.2036     3.8666     3.8666     0.0000
 15 C      6.1131     6.0000    -0.1131     3.8128     3.8128    -0.0000
 16 C      6.2713     6.0000    -0.2713     3.8027     3.8027    -0.0000
 17 C      5.6970     6.0000     0.3030     3.8834     3.8834     0.0000
 18 O      8.3687     8.0000    -0.3687     2.0973     2.0973     0.0000
 19 C      6.2451     6.0000    -0.2451     3.8062     3.8062     0.0000
 20 H      0.8949     1.0000     0.1051     0.9838     0.9838     0.0000
 21 H      0.9005     1.0000     0.0995     0.9806     0.9806    -0.0000
 22 H      0.8803     1.0000     0.1197     0.9834     0.9834    -0.0000
 23 H      0.8987     1.0000     0.1013     0.9736     0.9736     0.0000
 24 H      0.8864     1.0000     0.1136     0.9824     0.9824    -0.0000
 25 H      0.8887     1.0000     0.1113     0.9834     0.9834     0.0000
 26 H      0.8775     1.0000     0.1225     0.9797     0.9797    -0.0000
 27 H      0.8683     1.0000     0.1317     0.9813     0.9813    -0.0000
 28 H      0.8019     1.0000     0.1981     1.0155     1.0155    -0.0000
 29 H      0.8135     1.0000     0.1865     1.0205     1.0205     0.0000
 30 H      0.8485     1.0000     0.1515     0.9946     0.9946     0.0000
 31 H      0.8410     1.0000     0.1590     0.9869     0.9869     0.0000
 32 H      0.8479     1.0000     0.1521     0.9770     0.9770     0.0000
 33 H      0.8616     1.0000     0.1384     0.9888     0.9888    -0.0000
 34 H      0.7597     1.0000     0.2403     1.0088     1.0088     0.0000
 35 H      0.8440     1.0000     0.1560     0.9888     0.9888     0.0000

  Mayer bond orders larger than 0.100000
B(  0-C ,  1-C ) :   0.9636 B(  0-C , 20-H ) :   0.9758 B(  0-C , 21-H ) :   0.9785 
B(  0-C , 22-H ) :   0.9734 B(  1-C ,  2-O ) :   0.9009 B(  1-C , 23-H ) :   0.9845 
B(  1-C , 24-H ) :   0.9793 B(  2-O ,  3-C ) :   1.1612 B(  3-C ,  4-O ) :   2.0061 
B(  3-C ,  5-C ) :   1.0649 B(  5-C ,  6-C ) :   1.6248 B(  5-C , 12-C ) :   0.9659 
B(  6-C ,  7-C ) :   0.9713 B(  6-C ,  8-N ) :   1.1705 B(  7-C , 25-H ) :   0.9853 
B(  7-C , 26-H ) :   0.9692 B(  7-C , 27-H ) :   0.9593 B(  8-N ,  9-C ) :   1.2326 
B(  8-N , 28-H ) :   0.9459 B(  9-C , 10-S ) :   1.5675 B(  9-C , 11-N ) :   1.2740 
B( 11-N , 12-C ) :   0.9452 B( 11-N , 29-H ) :   0.9573 B( 12-C , 13-C ) :   0.9653 
B( 12-C , 30-H ) :   1.0059 B( 13-C , 14-C ) :   1.3380 B( 13-C , 19-C ) :   1.3479 
B( 14-C , 15-C ) :   1.4106 B( 14-C , 31-H ) :   0.9677 B( 15-C , 16-C ) :   1.3566 
B( 15-C , 32-H ) :   0.9710 B( 16-C , 17-C ) :   1.3506 B( 16-C , 33-H ) :   0.9817 
B( 17-C , 18-O ) :   1.0878 B( 17-C , 19-C ) :   1.3717 B( 18-O , 34-H ) :   0.9821 
B( 19-C , 35-H ) :   0.9613 

-------
TIMINGS
-------

Total SCF time: 0 days 1 hours 48 min 37 sec 

Total time                  ....    6517.740 sec
Sum of individual times     ....    6514.324 sec  ( 99.9%)

Fock matrix formation       ....    6502.205 sec  ( 99.8%)
Diagonalization             ....       1.372 sec  (  0.0%)
Density matrix formation    ....       0.184 sec  (  0.0%)
Population analysis         ....       0.204 sec  (  0.0%)
Initial guess               ....       5.598 sec  (  0.1%)
Orbital Transformation      ....       0.000 sec  (  0.0%)
Orbital Orthonormalization  ....       0.000 sec  (  0.0%)
DIIS solution               ....       1.355 sec  (  0.0%)
SOSCF solution              ....       2.022 sec  (  0.0%)

Maximum memory used throughout the entire SCF-calculation: 716.7 MB

------------------------------------------------------------------------------
                                ORCA  MP2 
------------------------------------------------------------------------------

Freezing NCore=48 chemical core electrons

-------------
RI-MP2 ENERGY
-------------
Dimension of the basis                    ...  828
Memory devoted to MP2                     ...  256 MB   
Data format for buffers                   ... DOUBLE
Compression type for matrix containers    ... UNCOMPRESSED
Overall scaling of the MP2 energy         ...   1.000e+00
Calculating two index integrals           ... done (    0.043 sec)
Cholesky decomposition of V**-1           ... done (    0.532 sec)

-----------------
RI-TRANSFORMATION (AUX index driven)
-----------------

Dimension of the orbital-basis         ... 828
Dimension of the aux-basis             ... 2141
Transformation of internal/external MOs...   24-  76 to   77- 827
Number Format for Storage              ... Double (8 Byte)
Integral mode                          ... Direct

First Phase: integral generation and transformation of MO indices
  Aux angular momentum 0               ... done (    4.886 sec)
  Aux angular momentum 1               ... done (    8.240 sec)
  Aux angular momentum 2               ... done (   10.774 sec)
  Aux angular momentum 3               ... done (    8.594 sec)
  Aux angular momentum 4               ... done (    3.028 sec)
Closing buffer VIA ( 0.63 GB; CompressionRatio= 1.00)
  Phase 1 completed in    35.689 sec
Second Phase: sorting and transformation of aux index

IA-Transformation
Memory available                       ... 158 MB 
Max. # MO pairs treated in a batch     ... 11    
# of internal orbitals                 ... 53
# batches for internal orbitals        ... 5
Closing buffer IAV ( 0.63 GB; CompressionRatio= 1.00)
(ia|v) transformation done in    19.825 sec

  Phase 2 completed in    19.836 sec
RI-Integral transformation completed in    55.531 sec
Opening buffers                              ... done

Starting loop over batches of integrals:

Operator 0  - window                       ... ( 24- 76)x( 77-827)
Operator 0  - Memory available             ...   256 MB
Operator 0  - Memory needed per MO         ...  12.3 MB
Operator 0  - Number of orbitals per batch ... 13
Operator 0  - Number of batches            ... 5

OPERATOR  0   PASS   0:  MOs    24 ...   36
  Reading integrals       ... ok
  Internal MO  26
  Internal MO  29
  Internal MO  32
  Internal MO  35
OPERATOR  0   PASS   1:  MOs    37 ...   49
  Reading integrals       ... ok
  Internal MO  38
  Internal MO  41
  Internal MO  44
  Internal MO  47
OPERATOR  0   PASS   2:  MOs    50 ...   62
  Reading integrals       ... ok
  Internal MO  50
  Internal MO  53
  Internal MO  56
  Internal MO  59
  Internal MO  62
OPERATOR  0   PASS   3:  MOs    63 ...   75
  Reading integrals       ... ok
  Internal MO  65
  Internal MO  68
  Internal MO  71
  Internal MO  74
OPERATOR  0   PASS   4:  MOs    76 ...   76
  Reading integrals       ... ok
Time spent in pair loops =    90.014 sec
Deleting buffer (Ka|jb)[aa] ...done

-----------------------------------------------
 RI-MP2 CORRELATION ENERGY:     -3.532934102 Eh
-----------------------------------------------


-------
TIMINGS
-------

Total time                :  146.221 sec
Integral trafo            :   55.551 sec ( 38.0%)
I/O of integrals          :    1.195 sec (  0.8%)
K(i,j) Operators          :   60.714 sec ( 41.5%)
T(i,j) pair energies      :    8.963 sec (  6.1%)
V-calculation             :    0.043 sec (  0.0%)
V**(-1/2)                 :    0.532 sec (  0.4%)
Gamma(ia|P)               :    0.000 sec (  0.0%)
Gamma-Trafo               :    0.000 sec (  0.0%)
D(virtual)                :    0.000 sec (  0.0%)
D(internal)               :    0.000 sec (  0.0%)
W(virtual)                :    0.000 sec (  0.0%)
W(internal)               :    0.000 sec (  0.0%)
L(virtual)                :    0.000 sec (  0.0%)
L(internal)               :    0.000 sec (  0.0%)
G(D)                      :    0.000 sec (  0.0%)
G(Z)                      :    0.000 sec (  0.0%)
Z-Vector Solution         :    0.000 sec (  0.0%)
3-Index Derivative        :    0.000 sec (  0.0%)
2-Index Derivative        :    0.000 sec (  0.0%)
Separable Gradient        :    0.000 sec (  0.0%)


---------------------------------------
MP2 TOTAL ENERGY:    -1274.307031894 Eh
---------------------------------------

Maximum memory used throughout the entire MP2-calculation: 302.7 MB

-------------------------   --------------------
FINAL SINGLE POINT ENERGY     -1274.307031894342
-------------------------   --------------------


                            ***************************************
                            *     ORCA property calculations      *
                            ***************************************


  WARNING: The energy has been calculated at the MP2 level but the densities
           used in the property calculations are still SCF densities
           MP2 response densities have not been calculated 
           use %mp2 Density relaxed end
           or  %mp2 Density unrelaxed end

                                    ---------------------
                                    Active property flags
                                    ---------------------
   (+) Dipole Moment


------------------------------------------------------------------------------
                       ORCA ELECTRIC PROPERTIES CALCULATION
------------------------------------------------------------------------------

Dipole Moment Calculation                       ... on
Quadrupole Moment Calculation                   ... off
Polarizability Calculation                      ... off
GBWName                                         ... qm_input.vacu.gbw
Electron density file                           ... qm_input.vacu.scfp
The origin for moment calculation is the CENTER OF MASS  = (11.118793,  4.249572 23.774323)

-------------
DIPOLE MOMENT
-------------
                                X             Y             Z
Electronic contribution:    -13.46037      -7.78275       3.83946
Nuclear contribution   :     15.11603       7.74932      -4.37648
                        -----------------------------------------
Total Dipole Moment    :      1.65566      -0.03342      -0.53702
                        -----------------------------------------
Magnitude (a.u.)       :      1.74090
Magnitude (Debye)      :      4.42501



--------------------
Rotational spectrum 
--------------------
 
Rotational constants in cm-1:     0.010936     0.008190     0.005791 
Rotational constants in MHz :   327.846477   245.537756   173.611653 

 Dipole components along the rotational axes: 
x,y,z [a.u.] :    -1.027466     1.150551    -0.807011 
x,y,z [Debye]:    -2.611612     2.924469    -2.051259 

 

Timings for individual modules:

Sum of individual times         ...     6666.260 sec (= 111.104 min)
GTO integral calculation        ...        1.834 sec (=   0.031 min)   0.0 %
SCF iterations                  ...     6517.803 sec (= 108.630 min)  97.8 %
MP2 module                      ...      146.623 sec (=   2.444 min)   2.2 %
                             ****ORCA TERMINATED NORMALLY****
TOTAL RUN TIME: 0 days 1 hours 51 minutes 7 seconds 66 msec
