
                                        *****************
                                        * O   R   C   A *
                                        *****************

                                            #,                                       
                                            ###                                      
                                            ####                                     
                                            #####                                    
                                            ######                                   
                                           ########,                                 
                                     ,,################,,,,,                         
                               ,,#################################,,                 
                          ,,##########################################,,             
                       ,#########################################, ''#####,          
                    ,#############################################,,   '####,        
                  ,##################################################,,,,####,       
                ,###########''''           ''''###############################       
              ,#####''   ,,,,##########,,,,          '''####'''          '####       
            ,##' ,,,,###########################,,,                        '##       
           ' ,,###''''                  '''############,,,                           
         ,,##''                                '''############,,,,        ,,,,,,###''
      ,#''                                            '''#######################'''  
     '                                                          ''''####''''         
             ,#######,   #######,   ,#######,      ##                                
            ,#'     '#,  ##    ##  ,#'     '#,    #''#        ######   ,####,        
            ##       ##  ##   ,#'  ##            #'  '#       #        #'  '#        
            ##       ##  #######   ##           ,######,      #####,   #    #        
            '#,     ,#'  ##    ##  '#,     ,#' ,#      #,         ##   #,  ,#        
             '#######'   ##     ##  '#######'  #'      '#     #####' # '####'        



                  #######################################################
                  #                        -***-                        #
                  #          Department of theory and spectroscopy      #
                  #    Directorship and core code : Frank Neese         #
                  #        Max Planck Institute fuer Kohlenforschung    #
                  #                Kaiser Wilhelm Platz 1               #
                  #                 D-45470 Muelheim/Ruhr               #
                  #                      Germany                        #
                  #                                                     #
                  #                  All rights reserved                #
                  #                        -***-                        #
                  #######################################################


                         Program Version 5.0.0 -  RELEASE  -
                                (SVN: $Rev: 19529$)
                ($Date: 2021-06-28 11:36:33 +0200 (Mo, 28 Jun 2021) $)


 With contributions from (in alphabetic order):
   Daniel Aravena         : Magnetic Suceptibility
   Michael Atanasov       : Ab Initio Ligand Field Theory (pilot matlab implementation)
   Alexander A. Auer      : GIAO ZORA, VPT2 properties, NMR spectrum
   Ute Becker             : Parallelization
   Giovanni Bistoni       : ED, misc. LED, open-shell LED, HFLD
   Martin Brehm           : Molecular dynamics
   Dmytro Bykov           : SCF Hessian
   Vijay G. Chilkuri      : MRCI spin determinant printing, contributions to CSF-ICE
   Dipayan Datta          : RHF DLPNO-CCSD density
   Achintya Kumar Dutta   : EOM-CC, STEOM-CC
   Dmitry Ganyushin       : Spin-Orbit,Spin-Spin,Magnetic field MRCI
   Miquel Garcia          : C-PCM Hessian, Gaussian charge scheme
   Yang Guo               : DLPNO-NEVPT2, F12-NEVPT2, CIM, IAO-localization
   Andreas Hansen         : Spin unrestricted coupled pair/coupled cluster methods
   Benjamin Helmich-Paris : MC-RPA, TRAH-SCF, COSX integrals
   Lee Huntington         : MR-EOM, pCC
   Robert Izsak           : Overlap fitted RIJCOSX, COSX-SCS-MP3, EOM
   Marcus Kettner         : VPT2
   Christian Kollmar      : KDIIS, OOCD, Brueckner-CCSD(T), CCSD density, CASPT2, CASPT2-K
   Simone Kossmann        : Meta GGA functionals, TD-DFT gradient, OOMP2, MP2 Hessian
   Martin Krupicka        : Initial AUTO-CI
   Lucas Lang             : DCDCAS
   Marvin Lechner         : AUTO-CI (C++ implementation), FIC-MRCC
   Dagmar Lenk            : GEPOL surface, SMD
   Dimitrios Liakos       : Extrapolation schemes; Compound Job, initial MDCI parallelization
   Dimitrios Manganas     : Further ROCIS development; embedding schemes
   Dimitrios Pantazis     : SARC Basis sets
   Anastasios Papadopoulos: AUTO-CI, single reference methods and gradients
   Taras Petrenko         : DFT Hessian,TD-DFT gradient, ASA, ECA, R-Raman, ABS, FL, XAS/XES, NRVS
   Peter Pinski           : DLPNO-MP2, DLPNO-MP2 Gradient
   Christoph Reimann      : Effective Core Potentials
   Marius Retegan         : Local ZFS, SOC
   Christoph Riplinger    : Optimizer, TS searches, QM/MM, DLPNO-CCSD(T), (RO)-DLPNO pert. Triples
   Tobias Risthaus        : Range-separated hybrids, TD-DFT gradient, RPA, STAB
   Michael Roemelt        : Original ROCIS implementation
   Masaaki Saitow         : Open-shell DLPNO-CCSD energy and density
   Barbara Sandhoefer     : DKH picture change effects
   Avijit Sen             : IP-ROCIS
   Kantharuban Sivalingam : CASSCF convergence, NEVPT2, FIC-MRCI
   Bernardo de Souza      : ESD, SOC TD-DFT
   Georgi Stoychev        : AutoAux, RI-MP2 NMR
   Willem Van den Heuvel  : Paramagnetic NMR
   Boris Wezisla          : Elementary symmetry handling
   Frank Wennmohs         : Technical directorship


 We gratefully acknowledge several colleagues who have allowed us to
 interface, adapt or use parts of their codes:
   Stefan Grimme, W. Hujo, H. Kruse, P. Pracht,  : VdW corrections, initial TS optimization,
                  C. Bannwarth, S. Ehlert          DFT functionals, gCP, sTDA/sTD-DF
   Ed Valeev, F. Pavosevic, A. Kumar             : LibInt (2-el integral package), F12 methods
   Garnet Chan, S. Sharma, J. Yang, R. Olivares  : DMRG
   Ulf Ekstrom                                   : XCFun DFT Library
   Mihaly Kallay                                 : mrcc  (arbitrary order and MRCC methods)
   Jiri Pittner, Ondrej Demel                    : Mk-CCSD
   Frank Weinhold                                : gennbo (NPA and NBO analysis)
   Christopher J. Cramer and Donald G. Truhlar   : smd solvation model
   Lars Goerigk                                  : TD-DFT with DH, B97 family of functionals
   V. Asgeirsson, H. Jonsson                     : NEB implementation
   FAccTs GmbH                                   : IRC, NEB, NEB-TS, DLPNO-Multilevel, CI-OPT
                                                   MM, QMMM, 2- and 3-layer-ONIOM, Crystal-QMMM,
                                                   LR-CPCM, SF, NACMEs, symmetry and pop. for TD-DFT,
                                                   nearIR, NL-DFT gradient (VV10), updates on ESD,
                                                   ML-optimized integration grids
   S Lehtola, MJT Oliveira, MAL Marques          : LibXC Library
   Liviu Ungur et al                             : ANISO software


 Your calculation uses the libint2 library for the computation of 2-el integrals
 For citations please refer to: http://libint.valeyev.net

 Your ORCA version has been built with support for libXC version: 5.1.0
 For citations please refer to: https://tddft.org/programs/libxc/

 This ORCA versions uses:
   CBLAS   interface :  Fast vector & matrix operations
   LAPACKE interface :  Fast linear algebra routines
   SCALAPACK package :  Parallel linear algebra routines
   Shared memory     :  Shared parallel matrices
   BLAS/LAPACK       :  OpenBLAS 0.3.15  USE64BITINT DYNAMIC_ARCH NO_AFFINITY SkylakeX SINGLE_THREADED
        Core in use  :  SkylakeX
   Copyright (c) 2011-2014, The OpenBLAS Project


================================================================================

----- Orbital basis set information -----
Your calculation utilizes the basis: cc-pVTZ 
       H, B-Ne : Obtained from the ccRepo (grant-hill.group.shef.ac.uk/ccrepo) Feb. 2017
                 T. H. Dunning, Jr., J. Chem. Phys. 90, 1007 (1989)
            He : Obtained from the ccRepo (grant-hill.group.shef.ac.uk/ccrepo) Feb. 2017
                 D. E. Woon, T. H. Dunning, Jr., J. Chem. Phys. 100, 2975 (1994)
  Li-Be, Na-Mg : Obtained from the ccRepo (grant-hill.group.shef.ac.uk/ccrepo) Feb. 2017
                 B. P. Prascher, D. E. Woon, K. A. Peterson, T. H. Dunning, Jr., A. K. Wilson, Theor. Chem. Acc. 128, 69 (2011)
         Al-Ar : Obtained from the ccRepo (grant-hill.group.shef.ac.uk/ccrepo) Feb. 2017
                 D. E. Woon, T. H. Dunning, Jr., J. Chem. Phys. 98, 1358 (1993)
            Ca : Obtained from the Peterson Research Group Website (tyr0.chem.wsu.edu/~kipeters) Feb. 2017
                 J. Koput, K. A. Peterson, J. Phys. Chem. 106, 9595 (2002)
         Sc-Zn : Obtained from the ccRepo (grant-hill.group.shef.ac.uk/ccrepo) Feb. 2017
                 N. B. Balabanov, K. A. Peterson, J. Chem. Phys. 123, 064107 (2005)
                 N. B. Balabanov, K. A. Peterson, J. Chem. Phys. 125, 074110 (2006)
         Ga-Kr : Obtained from the ccRepo (grant-hill.group.shef.ac.uk/ccrepo) Feb. 2017
                 A. K. Wilson, D. E. Woon, K. A. Peterson, T. H. Dunning, Jr., J. Chem. Phys. 110, 7667 (1999)
             Y : Obtained from the ccRepo (grant-hill.group.shef.ac.uk/ccrepo) Feb. 2017
                 K. A. Peterson, D. Figgen, M. Dolg, H. Stoll, J. Chem. Phys. 126, 124101 (2007)
        Ag, Au : Obtained from the Peterson Research Group Website (tyr0.chem.wsu.edu/~kipeters) Feb. 2017
                 K. A. Peterson, C. Puzzarini, Theor. Chem. Acc. 114, 283 (2005)

----- AuxC basis set information -----
Your calculation utilizes the auxiliary basis: cc-pVTZ/C 
  Obtained from the EMSL Basis Set Exchange (bse.pnl.gov) Feb. 2017
  H-He, B-F, Al-Ar, Ga-Kr : F. Weigend, A. Kohn, C. Hattig, J. Chem. Phys. 116, 3175 (2002)
             Li-Be, Na-Mg : C. Haettig, Phys. Chem. Chem. Phys. 7, 59 (2005)
                       Ne : C. Haettig, Phys. Chem. Chem. Phys. 7, 59 (2005)
                            F. Weigend, A. Kohn, C. Hattig, J. Chem. Phys. 116, 3175 (2002)
                    Sc-Zn : J. G. Hill, J. A. Platts, J. Chem. Phys. 128, 044104 (2008)

================================================================================
                                        WARNINGS
                       Please study these warnings very carefully!
================================================================================


WARNING: No MP2 level density has been requested!
         To caclulate MP2 level properties use
         %mp2 Density relaxed end
         or
         %mp2 Density unrelaxed end

WARNING: Post HF methods need fully converged wavefunctions
  ===> : Setting SCFConvForced true
         You can overwrite this default with %scf ConvForced false 


INFO   : the flag for use of the SHARK integral package has been found!

================================================================================
                                       INPUT FILE
================================================================================
NAME = qm_input.solv
|  1> ! RI-MP2 cc-pVTZ cc-pVTZ/c TightSCF KeepDens NoKeepInts
|  2> 
|  3> %pointcharges "srfp_output"
|  4> 
|  5> *xyz  0  1
|  6>     C     9.0960864    6.1626631   11.6122974
|  7>     C     9.3009673    4.8197182   10.9000204
|  8>     O     8.0417038    4.1601317   10.9924112
|  9>     C     7.5655112    3.6380711   12.1528925
| 10>     O     8.2324703    3.5764234   13.1405413
| 11>     C     6.2159510    3.0317241   12.0337915
| 12>     C     5.4902314    2.8418274   10.8897898
| 13>     C     6.0402136    2.8299954    9.4724795
| 14>     N     4.1605813    2.6107249   10.9407357
| 15>     C     3.3712648    2.7409719   11.9846977
| 16>     S     1.7132916    2.4224506   11.8626883
| 17>     N     4.0668668    2.9697535   13.1858224
| 18>     C     5.5359918    2.7874003   13.3504797
| 19>     C     5.9288509    1.5079522   14.0063466
| 20>     C     6.1968064    1.4819202   15.4492774
| 21>     C     6.4956955    0.2121142   15.9975565
| 22>     C     6.4994740   -0.9759088   15.2581892
| 23>     C     6.2118680   -0.9094126   13.9028784
| 24>     O     6.2562258   -2.0261104   13.1103857
| 25>     C     5.8493873    0.2727179   13.3019821
| 26>     H     8.1198394    6.6316861   11.4386640
| 27>     H     9.8559212    6.9269333   11.4080399
| 28>     H     9.2081545    6.0485819   12.6974762
| 29>     H     9.5039355    4.9951971    9.8364412
| 30>     H    10.0912815    4.1467034   11.2544878
| 31>     H     5.4633890    2.4062298    8.6412838
| 32>     H     6.9666326    2.2480383    9.3933375
| 33>     H     6.2733908    3.8669390    9.2012488
| 34>     H     3.8099497    2.2889951   10.0465804
| 35>     H     3.4606696    2.8567348   13.9893883
| 36>     H     5.7164097    3.6281882   14.0314458
| 37>     H     6.1626354    2.4490605   15.9420938
| 38>     H     6.9251214    0.1631067   16.9938449
| 39>     H     6.6853701   -1.9152669   15.7704831
| 40>     H     6.1269031   -2.7488649   13.7488455
| 41>     H     5.6987092    0.2634850   12.2265255
| 42> *
| 43> 
| 44>                          ****END OF INPUT****
================================================================================

                       ****************************
                       * Single Point Calculation *
                       ****************************

---------------------------------
CARTESIAN COORDINATES (ANGSTROEM)
---------------------------------
  C      9.096086    6.162663   11.612297
  C      9.300967    4.819718   10.900020
  O      8.041704    4.160132   10.992411
  C      7.565511    3.638071   12.152893
  O      8.232470    3.576423   13.140541
  C      6.215951    3.031724   12.033791
  C      5.490231    2.841827   10.889790
  C      6.040214    2.829995    9.472480
  N      4.160581    2.610725   10.940736
  C      3.371265    2.740972   11.984698
  S      1.713292    2.422451   11.862688
  N      4.066867    2.969753   13.185822
  C      5.535992    2.787400   13.350480
  C      5.928851    1.507952   14.006347
  C      6.196806    1.481920   15.449277
  C      6.495695    0.212114   15.997556
  C      6.499474   -0.975909   15.258189
  C      6.211868   -0.909413   13.902878
  O      6.256226   -2.026110   13.110386
  C      5.849387    0.272718   13.301982
  H      8.119839    6.631686   11.438664
  H      9.855921    6.926933   11.408040
  H      9.208154    6.048582   12.697476
  H      9.503935    4.995197    9.836441
  H     10.091281    4.146703   11.254488
  H      5.463389    2.406230    8.641284
  H      6.966633    2.248038    9.393337
  H      6.273391    3.866939    9.201249
  H      3.809950    2.288995   10.046580
  H      3.460670    2.856735   13.989388
  H      5.716410    3.628188   14.031446
  H      6.162635    2.449060   15.942094
  H      6.925121    0.163107   16.993845
  H      6.685370   -1.915267   15.770483
  H      6.126903   -2.748865   13.748845
  H      5.698709    0.263485   12.226525

----------------------------
CARTESIAN COORDINATES (A.U.)
----------------------------
  NO LB      ZA    FRAG     MASS         X           Y           Z
   0 C     6.0000    0    12.011   17.189112   11.645746   21.944062
   1 C     6.0000    0    12.011   17.576281    9.107947   20.598053
   2 O     8.0000    0    15.999   15.196618    7.861510   20.772647
   3 C     6.0000    0    12.011   14.296744    6.874958   22.965639
   4 O     8.0000    0    15.999   15.557114    6.758461   24.832024
   5 C     6.0000    0    12.011   11.746445    5.729128   22.740570
   6 C     6.0000    0    12.011   10.375034    5.370276   20.578720
   7 C     6.0000    0    12.011   11.414349    5.347916   17.900392
   8 N     7.0000    0    14.007    7.862359    4.933555   20.674994
   9 C     6.0000    0    12.011    6.370767    5.179686   22.647796
  10 S    16.0000    0    32.060    3.237652    4.577768   22.417232
  11 N     7.0000    0    14.007    7.685264    5.612021   24.917593
  12 C     6.0000    0    12.011   10.461508    5.267423   25.228750
  13 C     6.0000    0    12.011   11.203904    2.849617   26.468159
  14 C     6.0000    0    12.011   11.710267    2.800423   29.194903
  15 C     6.0000    0    12.011   12.275086    0.400838   30.231001
  16 C     6.0000    0    12.011   12.282226   -1.844200   28.833799
  17 C     6.0000    0    12.011   11.738729   -1.718541   26.272633
  18 O     8.0000    0    15.999   11.822553   -3.828794   24.775038
  19 C     6.0000    0    12.011   11.053740    0.515362   25.137103
  20 H     1.0000    0     1.008   15.344273   12.532071   21.615942
  21 H     1.0000    0     1.008   18.624992   13.090007   21.558071
  22 H     1.0000    0     1.008   17.400890   11.430163   23.994753
  23 H     1.0000    0     1.008   17.959835    9.439555   18.588180
  24 H     1.0000    0     1.008   19.069758    7.836134   21.267900
  25 H     1.0000    0     1.008   10.324309    4.547115   16.329660
  26 H     1.0000    0     1.008   13.165028    4.248177   17.750835
  27 H     1.0000    0     1.008   11.854991    7.307456   17.387840
  28 H     1.0000    0     1.008    7.199762    4.325574   18.985286
  29 H     1.0000    0     1.008    6.539718    5.398446   26.436113
  30 H     1.0000    0     1.008   10.802449    6.856282   26.515590
  31 H     1.0000    0     1.008   11.645693    4.628054   30.126191
  32 H     1.0000    0     1.008   13.086583    0.308227   32.113713
  33 H     1.0000    0     1.008   12.633519   -3.619330   29.801894
  34 H     1.0000    0     1.008   11.578169   -5.194602   25.981553
  35 H     1.0000    0     1.008   10.769000    0.497914   23.104785

--------------------------------
INTERNAL COORDINATES (ANGSTROEM)
--------------------------------
 C      0   0   0     0.000000000000     0.00000000     0.00000000
 C      1   0   0     1.533889080850     0.00000000     0.00000000
 O      2   1   0     1.424547287154   104.90328899     0.00000000
 C      3   2   1     1.358684477727   122.89626793   287.70101734
 O      4   3   2     1.193350339225   122.06364378   352.07380340
 C      4   3   2     1.484302686797   114.02241171   178.24153668
 C      6   4   3     1.368016660753   127.31089401     6.53455599
 C      7   6   4     1.520325262247   126.06901247    19.01848876
 N      7   6   4     1.350545533724   120.96340369   197.57628339
 C      9   7   6     1.315234380491   127.14576565    11.48632347
 S     10   9   7     1.692695260276   120.79549264   179.30249786
 N     10   9   7     1.406735123558   113.39591380   350.83441504
 C     12  10   9     1.489527771349   124.20687538   346.98710406
 C     13  12  10     1.490465398311   114.43783835   259.75798108
 C     14  13  12     1.467830749301   119.73032751   263.77483648
 C     15  14  13     1.415044855555   115.80852424   176.86572684
 C     16  15  14     1.399313020700   123.89729997   357.75327785
 C     17  16  15     1.387085549073   118.36027217     0.92043242
 O     18  17  16     1.370046083349   121.29227522   177.10468361
 C     18  17  16     1.374736753075   121.53240186   356.02111755
 H      1   2   3     1.096899875619   114.81776988   321.50089182
 H      1   2   3     1.096895158256   115.53273869   196.47779720
 H      1   2   3     1.096898722399   110.77477992    82.80092654
 H      2   1   3     1.096900017882   109.56688632   115.12807456
 H      2   1   3     1.096901359924   118.90499459   237.36919813
 H      8   7   6     1.096900266481   121.27826583   162.98765342
 H      8   7   6     1.096900034627   112.14302137    44.28459742
 H      8   7   6     1.096900054154   107.46116152   286.10398852
 H      9   7   6     1.012899937627   111.21463263   192.71971906
 H     12  10   9     1.012900008629   111.30276739   192.87933825
 H     13  12  10     1.096900059612    97.87509605   143.55953860
 H     15  14  13     1.086000009776   115.12246503   355.33703118
 H     16  15  14     1.086001341906   118.65095508   165.85427081
 H     17  16  15     1.086000018420   119.05024246   183.43054121
 H     19  18  17     0.973000176887   102.80223944    23.47995636
 H     20  18  17     1.086000015997   117.52454234   176.28614459

---------------------------
INTERNAL COORDINATES (A.U.)
---------------------------
 C      0   0   0     0.000000000000     0.00000000     0.00000000
 C      1   0   0     2.898630282618     0.00000000     0.00000000
 O      2   1   0     2.692004237542   104.90328899     0.00000000
 C      3   2   1     2.567541565314   122.89626793   287.70101734
 O      4   3   2     2.255105322958   122.06364378   352.07380340
 C      4   3   2     2.804925577891   114.02241171   178.24153668
 C      6   4   3     2.585176835465   127.31089401     6.53455599
 C      7   6   4     2.872998380129   126.06901247    19.01848876
 N      7   6   4     2.552161190130   120.96340369   197.57628339
 C      9   7   6     2.485432781045   127.14576565    11.48632347
 S     10   9   7     3.198730470108   120.79549264   179.30249786
 N     10   9   7     2.658344126493   113.39591380   350.83441504
 C     12  10   9     2.814799556719   124.20687538   346.98710406
 C     13  12  10     2.816571414893   114.43783835   259.75798108
 C     14  13  12     2.773798127127   119.73032751   263.77483648
 C     15  14  13     2.674047244212   115.80852424   176.86572684
 C     16  15  14     2.644318384753   123.89729997   357.75327785
 C     17  16  15     2.621211812068   118.36027217     0.92043242
 O     18  17  16     2.589011888380   121.29227522   177.10468361
 C     18  17  16     2.597875969549   121.53240186   356.02111755
 H      1   2   3     2.072840361253   114.81776988   321.50089182
 H      1   2   3     2.072831446728   115.53273869   196.47779720
 H      1   2   3     2.072838181982   110.77477992    82.80092654
 H      2   1   3     2.072840630090   109.56688632   115.12807456
 H      2   1   3     2.072843166182   118.90499459   237.36919813
 H      8   7   6     2.072841099875   121.27826583   162.98765342
 H      8   7   6     2.072840661734   112.14302137    44.28459742
 H      8   7   6     2.072840698635   107.46116152   286.10398852
 H      9   7   6     1.914103483181   111.21463263   192.71971906
 H     12  10   9     1.914103617355   111.30276739   192.87933825
 H     13  12  10     2.072840708948    97.87509605   143.55953860
 H     15  14  13     2.052242599913   115.12246503   355.33703118
 H     16  15  14     2.052245117273   118.65095508   165.85427081
 H     17  16  15     2.052242616247   119.05024246   183.43054121
 H     19  18  17     1.838703862573   102.80223944    23.47995636
 H     20  18  17     2.052242611669   117.52454234   176.28614459

---------------------
BASIS SET INFORMATION
---------------------
There are 5 groups of distinct atoms

 Group   1 Type C   : 18s5p2d1f contracted to 4s3p2d1f pattern {8811/311/11/1}
 Group   2 Type O   : 18s5p2d1f contracted to 4s3p2d1f pattern {8811/311/11/1}
 Group   3 Type N   : 18s5p2d1f contracted to 4s3p2d1f pattern {8811/311/11/1}
 Group   4 Type S   : 41s16p2d1f contracted to 5s4p2d1f pattern {13131311/7711/11/1}
 Group   5 Type H   : 5s2p1d contracted to 3s2p1d pattern {311/11/1}

Atom   0C    basis set group =>   1
Atom   1C    basis set group =>   1
Atom   2O    basis set group =>   2
Atom   3C    basis set group =>   1
Atom   4O    basis set group =>   2
Atom   5C    basis set group =>   1
Atom   6C    basis set group =>   1
Atom   7C    basis set group =>   1
Atom   8N    basis set group =>   3
Atom   9C    basis set group =>   1
Atom  10S    basis set group =>   4
Atom  11N    basis set group =>   3
Atom  12C    basis set group =>   1
Atom  13C    basis set group =>   1
Atom  14C    basis set group =>   1
Atom  15C    basis set group =>   1
Atom  16C    basis set group =>   1
Atom  17C    basis set group =>   1
Atom  18O    basis set group =>   2
Atom  19C    basis set group =>   1
Atom  20H    basis set group =>   5
Atom  21H    basis set group =>   5
Atom  22H    basis set group =>   5
Atom  23H    basis set group =>   5
Atom  24H    basis set group =>   5
Atom  25H    basis set group =>   5
Atom  26H    basis set group =>   5
Atom  27H    basis set group =>   5
Atom  28H    basis set group =>   5
Atom  29H    basis set group =>   5
Atom  30H    basis set group =>   5
Atom  31H    basis set group =>   5
Atom  32H    basis set group =>   5
Atom  33H    basis set group =>   5
Atom  34H    basis set group =>   5
Atom  35H    basis set group =>   5
---------------------------------
AUXILIARY/C BASIS SET INFORMATION
---------------------------------
There are 5 groups of distinct atoms

 Group   1 Type C   : 8s6p5d3f1g contracted to 8s6p5d3f1g pattern {11111111/111111/11111/111/1}
 Group   2 Type O   : 8s6p5d3f1g contracted to 8s6p5d3f1g pattern {11111111/111111/11111/111/1}
 Group   3 Type N   : 8s6p5d3f1g contracted to 8s6p5d3f1g pattern {11111111/111111/11111/111/1}
 Group   4 Type S   : 10s8p7d5f2g contracted to 10s8p7d5f2g pattern {1111111111/11111111/1111111/11111/11}
 Group   5 Type H   : 4s3p2d1f contracted to 4s3p2d1f pattern {1111/111/11/1}

Atom   0C    basis set group =>   1
Atom   1C    basis set group =>   1
Atom   2O    basis set group =>   2
Atom   3C    basis set group =>   1
Atom   4O    basis set group =>   2
Atom   5C    basis set group =>   1
Atom   6C    basis set group =>   1
Atom   7C    basis set group =>   1
Atom   8N    basis set group =>   3
Atom   9C    basis set group =>   1
Atom  10S    basis set group =>   4
Atom  11N    basis set group =>   3
Atom  12C    basis set group =>   1
Atom  13C    basis set group =>   1
Atom  14C    basis set group =>   1
Atom  15C    basis set group =>   1
Atom  16C    basis set group =>   1
Atom  17C    basis set group =>   1
Atom  18O    basis set group =>   2
Atom  19C    basis set group =>   1
Atom  20H    basis set group =>   5
Atom  21H    basis set group =>   5
Atom  22H    basis set group =>   5
Atom  23H    basis set group =>   5
Atom  24H    basis set group =>   5
Atom  25H    basis set group =>   5
Atom  26H    basis set group =>   5
Atom  27H    basis set group =>   5
Atom  28H    basis set group =>   5
Atom  29H    basis set group =>   5
Atom  30H    basis set group =>   5
Atom  31H    basis set group =>   5
Atom  32H    basis set group =>   5
Atom  33H    basis set group =>   5
Atom  34H    basis set group =>   5
Atom  35H    basis set group =>   5
------------------------------------------------------------------------------
                           ORCA GTO INTEGRAL CALCULATION
------------------------------------------------------------------------------
------------------------------------------------------------------------------
                   ___                                                        
                  /   \      - P O W E R E D   B Y -                         
                 /     \                                                     
                 |  |  |   _    _      __       _____    __    __             
                 |  |  |  | |  | |    /  \     |  _  \  |  |  /  |          
                  \  \/   | |  | |   /    \    | | | |  |  | /  /          
                 / \  \   | |__| |  /  /\  \   | |_| |  |  |/  /          
                |  |  |   |  __  | /  /__\  \  |    /   |      \           
                |  |  |   | |  | | |   __   |  |    \   |  |\   \          
                \     /   | |  | | |  |  |  |  | |\  \  |  | \   \       
                 \___/    |_|  |_| |__|  |__|  |_| \__\ |__|  \__/        
                                                                              
                      - O R C A' S   B I G   F R I E N D -                    
                                      &                                       
                       - I N T E G R A L  F E E D E R -                       
                                                                              
 v1 FN, 2020, v2 2021                                                         
------------------------------------------------------------------------------


Reading SHARK input file qm_input.solv.SHARKINP.tmp ... ok
----------------------
SHARK INTEGRAL PACKAGE
----------------------

Number of atoms                             ...     36
Number of basis functions                   ...    828
Number of shells                            ...    298
Maximum angular momentum                    ...      3
Integral batch strategy                     ... SHARK/LIBINT Hybrid
RI-J (if used) integral strategy            ... SPLIT-RIJ (Revised 2003 algorithm where possible)
Printlevel                                  ...      1
Contraction scheme used                     ... SEGMENTED contraction
Coulomb Range Separation                    ... NOT USED
Exchange Range Separation                   ... NOT USED
Finite Nucleus Model                        ... NOT USED
Auxiliary Coulomb fitting basis             ... NOT available
Auxiliary J/K fitting basis                 ... NOT available
Auxiliary Correlation fitting basis         ... AVAILABLE
   # of basis functions in Aux-C            ...   2141
   # of shells in Aux-C                     ...    629
   Maximum angular momentum in Aux-C        ...      4
Auxiliary 'external' fitting basis          ... NOT available
Integral threshold                          ...     2.500000e-11
Primitive cut-off                           ...     2.500000e-12
Primitive pair pre-selection threshold      ...     2.500000e-12

Calculating pre-screening integrals         ... done (  0.6 sec) Dimension = 298
Organizing shell pair data                  ... done (  0.4 sec)
Shell pair information
Total number of shell pairs                 ...     44551
Shell pairs after pre-screening             ...     31951
Total number of primitive shell pairs       ...    234348
Primitive shell pairs kept                  ...     92615
          la=0 lb=0:   6385 shell pairs
          la=1 lb=0:   8902 shell pairs
          la=1 lb=1:   3147 shell pairs
          la=2 lb=0:   5085 shell pairs
          la=2 lb=1:   3488 shell pairs
          la=2 lb=2:    982 shell pairs
          la=3 lb=0:   1847 shell pairs
          la=3 lb=1:   1261 shell pairs
          la=3 lb=2:    715 shell pairs
          la=3 lb=3:    139 shell pairs

Reading point charge file                   ... ok (45336 point charges)
Calculating one electron integrals          ... done (228.3 sec)
Calculating RI/C V-Matrix + Cholesky decomp.... done (  0.3 sec)
Calculating Nuclear repulsion               ... (+Point charges) done (  0.0 sec) ENN=   2076.630890374882 Eh

SHARK setup successfully completed in 229.8 seconds

Maximum memory used throughout the entire GTOINT-calculation: 474.3 MB
ENUC WAS=  0.000000000
ENUC IS =  0.000000000
-------------------------------------------------------------------------------
                                 ORCA SCF
-------------------------------------------------------------------------------

------------
SCF SETTINGS
------------
Hamiltonian:
 Ab initio Hamiltonian  Method          .... Hartree-Fock(GTOs)


General Settings:
 Integral files         IntName         .... qm_input.solv
 Hartree-Fock type      HFTyp           .... RHF
 Total Charge           Charge          ....    0
 Multiplicity           Mult            ....    1
 Number of Electrons    NEL             ....  154
 Basis Dimension        Dim             ....  828
 Nuclear Repulsion      ENuc            ....   2076.6308903749 Eh

Convergence Acceleration:
 DIIS                   CNVDIIS         .... on
   Start iteration      DIISMaxIt       ....    12
   Startup error        DIISStart       ....  0.200000
   # of expansion vecs  DIISMaxEq       ....     5
   Bias factor          DIISBfac        ....   1.050
   Max. coefficient     DIISMaxC        ....  10.000
 Trust-Rad. Augm. Hess. CNVTRAH         .... auto
   Auto Start mean grad. ratio tolernc. ....  1.125000
   Auto Start start iteration           ....    20
   Auto Start num. interpolation iter.  ....    10
   Max. Number of Micro iterations      ....    16
   Max. Number of Macro iterations      .... Maxiter - #DIIS iter
   Number of Davidson start vectors     ....     2
   Converg. threshold I  (grad. norm)   ....   1.000e-05
   Converg. threshold II (energy diff.) ....   1.000e-08
   Grad. Scal. Fac. for Micro threshold ....   0.100
   Minimum threshold for Micro iter.    ....   0.010
   NR start threshold (gradient norm)   ....   0.001
   Initial trust radius                 ....   0.400
   Minimum AH scaling param. (alpha)    ....   1.000
   Maximum AH scaling param. (alpha)    .... 1000.000
   Orbital update algorithm             .... Taylor
   White noise on init. David. guess    .... on
   Maximum white noise                  ....   0.010
   Quad. conv. algorithm                .... NR
 SOSCF                  CNVSOSCF        .... on
   Start iteration      SOSCFMaxIt      ....   150
   Startup grad/error   SOSCFStart      ....  0.003300
 Level Shifting         CNVShift        .... on
   Level shift para.    LevelShift      ....    0.2500
   Turn off err/grad.   ShiftErr        ....    0.0010
 Zerner damping         CNVZerner       .... off
 Static damping         CNVDamp         .... on
   Fraction old density DampFac         ....    0.7000
   Max. Damping (<1)    DampMax         ....    0.9800
   Min. Damping (>=0)   DampMin         ....    0.0000
   Turn off err/grad.   DampErr         ....    0.1000
 Fernandez-Rico         CNVRico         .... off

SCF Procedure:
 Maximum # iterations   MaxIter         ....   125
 SCF integral mode      SCFMode         .... Direct
   Integral package                     .... SHARK and LIBINT hybrid scheme
 Reset frequency        DirectResetFreq ....    20
 Integral Threshold     Thresh          ....  2.500e-11 Eh
 Primitive CutOff       TCut            ....  2.500e-12 Eh

Convergence Tolerance:
 Convergence Check Mode ConvCheckMode   .... Total+1el-Energy
 Convergence forced     ConvForced      .... 1
 Energy Change          TolE            ....  1.000e-08 Eh
 1-El. energy change                    ....  1.000e-05 Eh
 Orbital Gradient       TolG            ....  1.000e-05
 Orbital Rotation angle TolX            ....  1.000e-05
 DIIS Error             TolErr          ....  5.000e-07


Diagonalization of the overlap matrix:
Smallest eigenvalue                        ... 4.724e-05
Time for diagonalization                   ...    0.133 sec
Threshold for overlap eigenvalues          ... 1.000e-08
Number of eigenvalues below threshold      ... 0
Time for construction of square roots      ...    0.060 sec
Total time needed                          ...    0.195 sec

Time for model grid setup =    1.406 sec

------------------------------
INITIAL GUESS: MODEL POTENTIAL
------------------------------
Loading Hartree-Fock densities                     ... done
Calculating cut-offs                               ... done
Initializing the effective Hamiltonian             ... done
Setting up the integral package (SHARK)            ... done
Starting the Coulomb interaction                   ... done (   4.1 sec)
Reading the grid                                   ... done
Mapping shells                                     ... done
Starting the XC term evaluation                    ... done (   1.4 sec)
Transforming the Hamiltonian                       ... done (   0.1 sec)
Diagonalizing the Hamiltonian                      ... done (   0.1 sec)
Back transforming the eigenvectors                 ... done (   0.0 sec)
Now organizing SCF variables                       ... done
                      ------------------
                      INITIAL GUESS DONE (   7.1 sec)
                      ------------------
--------------
SCF ITERATIONS
--------------
ITER       Energy         Delta-E        Max-DP      RMS-DP      [F,P]     Damp
               ***  Starting incremental Fock matrix formation  ***
  0  -1270.0522141716   0.000000000000 0.04767246  0.00047604  0.3700568 0.7000
  1  -1270.3421146631  -0.289900491484 0.03549205  0.00038628  0.2143529 0.7000
                               ***Turning on DIIS***
  2  -1270.5217472446  -0.179632581433 0.02580344  0.00025232  0.1125684 0.7000
  3  -1272.6460124849  -2.124265240382 0.06450226  0.00052072  0.0841487 0.0000
  4  -1270.8647150900   1.781297394962 0.01073033  0.00011435  0.0091811 0.0000
  5  -1270.9148924873  -0.050177397378 0.00580545  0.00005821  0.0058006 0.0000
                      *** Initiating the SOSCF procedure ***
                           *** Shutting down DIIS ***
                      *** Re-Reading the Fockian *** 
                      *** Removing any level shift *** 
ITER      Energy       Delta-E        Grad      Rot      Max-DP    RMS-DP
  6  -1270.89436663   0.0205258621  0.002222  0.002222  0.003184  0.000029
               *** Restarting incremental Fock matrix formation ***
  7  -1270.91033717  -0.0159705408  0.000989  0.002031  0.001946  0.000016
  8  -1270.91039124  -0.0000540729  0.000485  0.002379  0.001938  0.000017
  9  -1270.91041071  -0.0000194725  0.000151  0.000372  0.000601  0.000004
 10  -1270.91041302  -0.0000023111  0.000044  0.000130  0.000165  0.000001
 11  -1270.91041322  -0.0000001933  0.000023  0.000139  0.000099  0.000001
 12  -1270.91041328  -0.0000000679  0.000013  0.000046  0.000031  0.000000
 13  -1270.91041329  -0.0000000057  0.000004  0.000012  0.000016  0.000000
                  ***Gradient check signals convergence***
              ***Rediagonalizing the Fockian in SOSCF/NRSCF***

               *****************************************************
               *                     SUCCESS                       *
               *           SCF CONVERGED AFTER  14 CYCLES          *
               *****************************************************


----------------
TOTAL SCF ENERGY
----------------

Total Energy       :        -1270.91041328 Eh          -34583.23052 eV

Components:
Nuclear Repulsion  :         2076.63089037 Eh           56507.99934 eV
Electronic Energy  :        -3347.54130365 Eh          -91091.22986 eV
One Electron Energy:        -5482.10838466 Eh         -149175.75310 eV
Two Electron Energy:         2134.56708100 Eh           58084.52323 eV

Virial components:
Potential Energy   :        -2540.15912700 Eh          -69121.24390 eV
Kinetic Energy     :         1269.24871372 Eh           34538.01338 eV
Virial Ratio       :            2.00130920


---------------
SCF CONVERGENCE
---------------

  Last Energy change         ...    9.2837e-09  Tolerance :   1.0000e-08
  Last MAX-Density change    ...    3.3130e-06  Tolerance :   1.0000e-07
  Last RMS-Density change    ...    4.3232e-08  Tolerance :   5.0000e-09
  Last Orbital Gradient      ...    1.6140e-06  Tolerance :   1.0000e-05
  Last Orbital Rotation      ...    4.8999e-06  Tolerance :   1.0000e-05

             **** THE GBW FILE WAS UPDATED (qm_input.solv.gbw) ****
             **** DENSITY qm_input.solv.scfp WAS UPDATED ****
             **** ENERGY FILE WAS UPDATED (qm_input.solv.en.tmp) ****
             **** THE GBW FILE WAS UPDATED (qm_input.solv.gbw) ****
             **** DENSITY qm_input.solv.scfp WAS UPDATED ****
----------------
ORBITAL ENERGIES
----------------

  NO   OCC          E(Eh)            E(eV) 
   0   2.0000     -94.472958     -2570.7399 
   1   2.0000     -23.138090      -629.6194 
   2   2.0000     -23.133407      -629.4920 
   3   2.0000     -23.106649      -628.7639 
   4   2.0000     -18.181306      -494.7385 
   5   2.0000     -18.156991      -494.0768 
   6   2.0000     -13.953829      -379.7030 
   7   2.0000     -13.948278      -379.5519 
   8   2.0000     -13.879812      -377.6889 
   9   2.0000     -13.850495      -376.8911 
  10   2.0000     -13.845913      -376.7664 
  11   2.0000     -13.830546      -376.3483 
  12   2.0000     -13.809178      -375.7668 
  13   2.0000     -13.797153      -375.4396 
  14   2.0000     -13.795718      -375.4006 
  15   2.0000     -13.792724      -375.3191 
  16   2.0000     -13.783350      -375.0640 
  17   2.0000     -13.782168      -375.0319 
  18   2.0000     -13.780250      -374.9797 
  19   2.0000     -13.753407      -374.2492 
  20   2.0000     -11.478156      -312.3365 
  21   2.0000      -9.160022      -249.2569 
  22   2.0000      -9.158125      -249.2052 
  23   2.0000      -9.157714      -249.1941 
  24   2.0000      -4.016283      -109.2886 
  25   2.0000      -3.951551      -107.5272 
  26   2.0000      -3.922216      -106.7289 
  27   2.0000      -3.913783      -106.4995 
  28   2.0000      -3.783583      -102.9565 
  29   2.0000      -3.700657      -100.7000 
  30   2.0000      -3.672170       -99.9248 
  31   2.0000      -3.586621       -97.5969 
  32   2.0000      -3.575668       -97.2989 
  33   2.0000      -3.558564       -96.8335 
  34   2.0000      -3.539958       -96.3272 
  35   2.0000      -3.534411       -96.1762 
  36   2.0000      -3.470333       -94.4325 
  37   2.0000      -3.437761       -93.5462 
  38   2.0000      -3.418048       -93.0098 
  39   2.0000      -3.383204       -92.0617 
  40   2.0000      -3.373115       -91.7871 
  41   2.0000      -3.361213       -91.4633 
  42   2.0000      -3.299938       -89.7959 
  43   2.0000      -3.284202       -89.3677 
  44   2.0000      -3.272242       -89.0422 
  45   2.0000      -3.242205       -88.2249 
  46   2.0000      -3.238456       -88.1229 
  47   2.0000      -3.229369       -87.8756 
  48   2.0000      -3.216286       -87.5196 
  49   2.0000      -3.202720       -87.1505 
  50   2.0000      -3.198150       -87.0261 
  51   2.0000      -3.192907       -86.8834 
  52   2.0000      -3.182603       -86.6030 
  53   2.0000      -3.153599       -85.8138 
  54   2.0000      -3.152960       -85.7964 
  55   2.0000      -3.141588       -85.4870 
  56   2.0000      -3.136820       -85.3572 
  57   2.0000      -3.124199       -85.0138 
  58   2.0000      -3.111877       -84.6785 
  59   2.0000      -3.106121       -84.5218 
  60   2.0000      -3.096427       -84.2580 
  61   2.0000      -3.086770       -83.9953 
  62   2.0000      -3.080349       -83.8206 
  63   2.0000      -3.076387       -83.7127 
  64   2.0000      -3.073132       -83.6242 
  65   2.0000      -3.053767       -83.0972 
  66   2.0000      -3.042954       -82.8030 
  67   2.0000      -3.037385       -82.6514 
  68   2.0000      -3.020347       -82.1878 
  69   2.0000      -3.009763       -81.8998 
  70   2.0000      -3.002835       -81.7113 
  71   2.0000      -2.997499       -81.5661 
  72   2.0000      -2.923037       -79.5399 
  73   2.0000      -2.912699       -79.2586 
  74   2.0000      -2.894304       -78.7580 
  75   2.0000      -2.879746       -78.3619 
  76   2.0000      -2.868028       -78.0430 
  77   0.0000      -2.490962       -67.7825 
  78   0.0000      -2.437032       -66.3150 
  79   0.0000      -2.413977       -65.6877 
  80   0.0000      -2.397706       -65.2449 
  81   0.0000      -2.392368       -65.0996 
  82   0.0000      -2.378485       -64.7219 
  83   0.0000      -2.374253       -64.6067 
  84   0.0000      -2.372397       -64.5562 
  85   0.0000      -2.359578       -64.2074 
  86   0.0000      -2.351541       -63.9887 
  87   0.0000      -2.343874       -63.7801 
  88   0.0000      -2.332510       -63.4708 
  89   0.0000      -2.327581       -63.3367 
  90   0.0000      -2.325424       -63.2780 
  91   0.0000      -2.319732       -63.1231 
  92   0.0000      -2.317196       -63.0541 
  93   0.0000      -2.300660       -62.6042 
  94   0.0000      -2.294753       -62.4434 
  95   0.0000      -2.287852       -62.2556 
  96   0.0000      -2.285207       -62.1837 
  97   0.0000      -2.282960       -62.1225 
  98   0.0000      -2.270400       -61.7807 
  99   0.0000      -2.260965       -61.5240 
 100   0.0000      -2.249160       -61.2028 
 101   0.0000      -2.240473       -60.9664 
 102   0.0000      -2.230542       -60.6961 
 103   0.0000      -2.220461       -60.4218 
 104   0.0000      -2.208171       -60.0874 
 105   0.0000      -2.204694       -59.9928 
 106   0.0000      -2.196549       -59.7711 
 107   0.0000      -2.191613       -59.6368 
 108   0.0000      -2.184813       -59.4518 
 109   0.0000      -2.177797       -59.2609 
 110   0.0000      -2.164171       -58.8901 
 111   0.0000      -2.155686       -58.6592 
 112   0.0000      -2.150756       -58.5250 
 113   0.0000      -2.147868       -58.4464 
 114   0.0000      -2.136907       -58.1482 
 115   0.0000      -2.134897       -58.0935 
 116   0.0000      -2.131613       -58.0041 
 117   0.0000      -2.123090       -57.7722 
 118   0.0000      -2.120056       -57.6897 
 119   0.0000      -2.115356       -57.5618 
 120   0.0000      -2.102403       -57.2093 
 121   0.0000      -2.098392       -57.1002 
 122   0.0000      -2.091379       -56.9093 
 123   0.0000      -2.083942       -56.7069 
 124   0.0000      -2.080280       -56.6073 
 125   0.0000      -2.075945       -56.4893 
 126   0.0000      -2.073469       -56.4219 
 127   0.0000      -2.070592       -56.3437 
 128   0.0000      -2.058778       -56.0222 
 129   0.0000      -2.048567       -55.7443 
 130   0.0000      -2.042039       -55.5667 
 131   0.0000      -2.036847       -55.4254 
 132   0.0000      -2.032059       -55.2951 
 133   0.0000      -2.029632       -55.2291 
 134   0.0000      -2.025557       -55.1182 
 135   0.0000      -2.016743       -54.8784 
 136   0.0000      -2.013925       -54.8017 
 137   0.0000      -2.007132       -54.6168 
 138   0.0000      -2.001966       -54.4763 
 139   0.0000      -1.997735       -54.3611 
 140   0.0000      -1.990044       -54.1518 
 141   0.0000      -1.986636       -54.0591 
 142   0.0000      -1.974712       -53.7346 
 143   0.0000      -1.972794       -53.6825 
 144   0.0000      -1.965449       -53.4826 
 145   0.0000      -1.962424       -53.4003 
 146   0.0000      -1.956416       -53.2368 
 147   0.0000      -1.952353       -53.1262 
 148   0.0000      -1.947296       -52.9886 
 149   0.0000      -1.939808       -52.7849 
 150   0.0000      -1.936328       -52.6902 
 151   0.0000      -1.931582       -52.5610 
 152   0.0000      -1.926968       -52.4355 
 153   0.0000      -1.924810       -52.3767 
 154   0.0000      -1.919905       -52.2433 
 155   0.0000      -1.916190       -52.1422 
 156   0.0000      -1.909610       -51.9631 
 157   0.0000      -1.907460       -51.9046 
 158   0.0000      -1.899623       -51.6914 
 159   0.0000      -1.897313       -51.6285 
 160   0.0000      -1.892842       -51.5069 
 161   0.0000      -1.886686       -51.3393 
 162   0.0000      -1.881240       -51.1911 
 163   0.0000      -1.878281       -51.1106 
 164   0.0000      -1.873642       -50.9844 
 165   0.0000      -1.863393       -50.7055 
 166   0.0000      -1.861245       -50.6471 
 167   0.0000      -1.858737       -50.5788 
 168   0.0000      -1.858497       -50.5723 
 169   0.0000      -1.849411       -50.3250 
 170   0.0000      -1.844446       -50.1899 
 171   0.0000      -1.843455       -50.1630 
 172   0.0000      -1.836642       -49.9776 
 173   0.0000      -1.830103       -49.7996 
 174   0.0000      -1.814944       -49.3871 
 175   0.0000      -1.813629       -49.3514 
 176   0.0000      -1.806940       -49.1693 
 177   0.0000      -1.801618       -49.0245 
 178   0.0000      -1.796705       -48.8908 
 179   0.0000      -1.786854       -48.6228 
 180   0.0000      -1.781229       -48.4697 
 181   0.0000      -1.769238       -48.1434 
 182   0.0000      -1.762759       -47.9671 
 183   0.0000      -1.756739       -47.8033 
 184   0.0000      -1.745605       -47.5003 
 185   0.0000      -1.741723       -47.3947 
 186   0.0000      -1.737363       -47.2760 
 187   0.0000      -1.735554       -47.2268 
 188   0.0000      -1.730108       -47.0786 
 189   0.0000      -1.724334       -46.9215 
 190   0.0000      -1.705693       -46.4143 
 191   0.0000      -1.702506       -46.3275 
 192   0.0000      -1.696493       -46.1639 
 193   0.0000      -1.693614       -46.0856 
 194   0.0000      -1.690238       -45.9937 
 195   0.0000      -1.670886       -45.4671 
 196   0.0000      -1.663940       -45.2781 
 197   0.0000      -1.651592       -44.9421 
 198   0.0000      -1.647910       -44.8419 
 199   0.0000      -1.631943       -44.4074 
 200   0.0000      -1.629899       -44.3518 
 201   0.0000      -1.628470       -44.3129 
 202   0.0000      -1.616989       -44.0005 
 203   0.0000      -1.614593       -43.9353 
 204   0.0000      -1.604775       -43.6681 
 205   0.0000      -1.595721       -43.4218 
 206   0.0000      -1.592144       -43.3245 
 207   0.0000      -1.580433       -43.0058 
 208   0.0000      -1.576232       -42.8914 
 209   0.0000      -1.569242       -42.7012 
 210   0.0000      -1.562739       -42.5243 
 211   0.0000      -1.556692       -42.3597 
 212   0.0000      -1.550905       -42.2023 
 213   0.0000      -1.545565       -42.0570 
 214   0.0000      -1.532521       -41.7020 
 215   0.0000      -1.526375       -41.5348 
 216   0.0000      -1.516848       -41.2755 
 217   0.0000      -1.506759       -41.0010 
 218   0.0000      -1.500223       -40.8231 
 219   0.0000      -1.494263       -40.6610 
 220   0.0000      -1.491876       -40.5960 
 221   0.0000      -1.483347       -40.3639 
 222   0.0000      -1.480989       -40.2998 
 223   0.0000      -1.463016       -39.8107 
 224   0.0000      -1.456886       -39.6439 
 225   0.0000      -1.451449       -39.4959 
 226   0.0000      -1.447594       -39.3910 
 227   0.0000      -1.435687       -39.0670 
 228   0.0000      -1.423440       -38.7338 
 229   0.0000      -1.415252       -38.5110 
 230   0.0000      -1.410289       -38.3759 
 231   0.0000      -1.399667       -38.0869 
 232   0.0000      -1.391603       -37.8674 
 233   0.0000      -1.384154       -37.6647 
 234   0.0000      -1.382560       -37.6214 
 235   0.0000      -1.373485       -37.3744 
 236   0.0000      -1.370524       -37.2938 
 237   0.0000      -1.364518       -37.1304 
 238   0.0000      -1.360756       -37.0281 
 239   0.0000      -1.353817       -36.8392 
 240   0.0000      -1.348759       -36.7016 
 241   0.0000      -1.338748       -36.4292 
 242   0.0000      -1.328539       -36.1514 
 243   0.0000      -1.321854       -35.9695 
 244   0.0000      -1.317974       -35.8639 
 245   0.0000      -1.311872       -35.6979 
 246   0.0000      -1.307225       -35.5714 
 247   0.0000      -1.299874       -35.3714 
 248   0.0000      -1.292657       -35.1750 
 249   0.0000      -1.287056       -35.0226 
 250   0.0000      -1.279264       -34.8105 
 251   0.0000      -1.267422       -34.4883 
 252   0.0000      -1.263021       -34.3685 
 253   0.0000      -1.258223       -34.2380 
 254   0.0000      -1.244728       -33.8708 
 255   0.0000      -1.236868       -33.6569 
 256   0.0000      -1.229026       -33.4435 
 257   0.0000      -1.221674       -33.2434 
 258   0.0000      -1.220866       -33.2215 
 259   0.0000      -1.202474       -32.7210 
 260   0.0000      -1.193151       -32.4673 
 261   0.0000      -1.186758       -32.2933 
 262   0.0000      -1.185092       -32.2480 
 263   0.0000      -1.179197       -32.0876 
 264   0.0000      -1.165386       -31.7118 
 265   0.0000      -1.159330       -31.5470 
 266   0.0000      -1.153238       -31.3812 
 267   0.0000      -1.143291       -31.1105 
 268   0.0000      -1.138368       -30.9766 
 269   0.0000      -1.131546       -30.7909 
 270   0.0000      -1.121803       -30.5258 
 271   0.0000      -1.109383       -30.1879 
 272   0.0000      -1.103874       -30.0379 
 273   0.0000      -1.096508       -29.8375 
 274   0.0000      -1.090192       -29.6656 
 275   0.0000      -1.077662       -29.3247 
 276   0.0000      -1.072225       -29.1767 
 277   0.0000      -1.068253       -29.0687 
 278   0.0000      -1.061194       -28.8765 
 279   0.0000      -1.048572       -28.5331 
 280   0.0000      -1.038916       -28.2704 
 281   0.0000      -1.038180       -28.2503 
 282   0.0000      -1.026635       -27.9362 
 283   0.0000      -1.024484       -27.8776 
 284   0.0000      -1.017401       -27.6849 
 285   0.0000      -1.013473       -27.5780 
 286   0.0000      -1.009478       -27.4693 
 287   0.0000      -1.004227       -27.3264 
 288   0.0000      -0.989131       -26.9156 
 289   0.0000      -0.985537       -26.8178 
 290   0.0000      -0.984753       -26.7965 
 291   0.0000      -0.974027       -26.5046 
 292   0.0000      -0.965062       -26.2607 
 293   0.0000      -0.958476       -26.0815 
 294   0.0000      -0.954874       -25.9834 
 295   0.0000      -0.943856       -25.6836 
 296   0.0000      -0.942771       -25.6541 
 297   0.0000      -0.927720       -25.2445 
 298   0.0000      -0.920296       -25.0425 
 299   0.0000      -0.918124       -24.9834 
 300   0.0000      -0.909368       -24.7452 
 301   0.0000      -0.899033       -24.4639 
 302   0.0000      -0.889636       -24.2082 
 303   0.0000      -0.886576       -24.1250 
 304   0.0000      -0.885895       -24.1064 
 305   0.0000      -0.869637       -23.6640 
 306   0.0000      -0.858409       -23.3585 
 307   0.0000      -0.846253       -23.0277 
 308   0.0000      -0.838626       -22.8202 
 309   0.0000      -0.834349       -22.7038 
 310   0.0000      -0.813098       -22.1255 
 311   0.0000      -0.804173       -21.8827 
 312   0.0000      -0.797664       -21.7055 
 313   0.0000      -0.791237       -21.5307 
 314   0.0000      -0.774674       -21.0800 
 315   0.0000      -0.767904       -20.8957 
 316   0.0000      -0.756703       -20.5909 
 317   0.0000      -0.753654       -20.5080 
 318   0.0000      -0.745333       -20.2815 
 319   0.0000      -0.737200       -20.0602 
 320   0.0000      -0.734953       -19.9991 
 321   0.0000      -0.721033       -19.6203 
 322   0.0000      -0.716091       -19.4858 
 323   0.0000      -0.698226       -18.9997 
 324   0.0000      -0.687120       -18.6975 
 325   0.0000      -0.677642       -18.4396 
 326   0.0000      -0.670766       -18.2525 
 327   0.0000      -0.658445       -17.9172 
 328   0.0000      -0.656316       -17.8593 
 329   0.0000      -0.645613       -17.5680 
 330   0.0000      -0.634805       -17.2739 
 331   0.0000      -0.633203       -17.2303 
 332   0.0000      -0.605324       -16.4717 
 333   0.0000      -0.593382       -16.1468 
 334   0.0000      -0.589542       -16.0423 
 335   0.0000      -0.580796       -15.8043 
 336   0.0000      -0.575662       -15.6646 
 337   0.0000      -0.568976       -15.4826 
 338   0.0000      -0.560757       -15.2590 
 339   0.0000      -0.554877       -15.0990 
 340   0.0000      -0.528895       -14.3920 
 341   0.0000      -0.513427       -13.9711 
 342   0.0000      -0.504629       -13.7316 
 343   0.0000      -0.487265       -13.2592 
 344   0.0000      -0.479853       -13.0575 
 345   0.0000      -0.465928       -12.6785 
 346   0.0000      -0.444388       -12.0924 
 347   0.0000      -0.430780       -11.7221 
 348   0.0000      -0.414424       -11.2770 
 349   0.0000      -0.398348       -10.8396 
 350   0.0000      -0.385227       -10.4826 
 351   0.0000      -0.380131       -10.3439 
 352   0.0000      -0.355237        -9.6665 
 353   0.0000      -0.339590        -9.2407 
 354   0.0000      -0.336393        -9.1537 
 355   0.0000      -0.326770        -8.8919 
 356   0.0000      -0.302733        -8.2378 
 357   0.0000      -0.299283        -8.1439 
 358   0.0000      -0.288611        -7.8535 
 359   0.0000      -0.278031        -7.5656 
 360   0.0000      -0.259898        -7.0722 
 361   0.0000      -0.247031        -6.7221 
 362   0.0000      -0.227593        -6.1931 
 363   0.0000      -0.213128        -5.7995 
 364   0.0000      -0.199568        -5.4305 
 365   0.0000      -0.194880        -5.3029 
 366   0.0000      -0.169403        -4.6097 
 367   0.0000      -0.157493        -4.2856 
 368   0.0000      -0.145306        -3.9540 
 369   0.0000      -0.137543        -3.7427 
 370   0.0000      -0.124644        -3.3917 
 371   0.0000      -0.116673        -3.1748 
 372   0.0000      -0.098468        -2.6795 
 373   0.0000      -0.074017        -2.0141 
 374   0.0000      -0.054224        -1.4755 
 375   0.0000      -0.044481        -1.2104 
 376   0.0000      -0.024536        -0.6677 
 377   0.0000      -0.014847        -0.4040 
 378   0.0000      -0.004135        -0.1125 
 379   0.0000       0.005627         0.1531 
 380   0.0000       0.022462         0.6112 
 381   0.0000       0.036812         1.0017 
 382   0.0000       0.042036         1.1438 
 383   0.0000       0.064793         1.7631 
 384   0.0000       0.066939         1.8215 
 385   0.0000       0.086362         2.3500 
 386   0.0000       0.097014         2.6399 
 387   0.0000       0.105225         2.8633 
 388   0.0000       0.118054         3.2124 
 389   0.0000       0.127085         3.4582 
 390   0.0000       0.153978         4.1900 
 391   0.0000       0.160882         4.3778 
 392   0.0000       0.168080         4.5737 
 393   0.0000       0.170948         4.6517 
 394   0.0000       0.178189         4.8488 
 395   0.0000       0.185737         5.0542 
 396   0.0000       0.189968         5.1693 
 397   0.0000       0.197744         5.3809 
 398   0.0000       0.204449         5.5633 
 399   0.0000       0.219154         5.9635 
 400   0.0000       0.232053         6.3145 
 401   0.0000       0.242934         6.6106 
 402   0.0000       0.248867         6.7720 
 403   0.0000       0.256138         6.9699 
 404   0.0000       0.271648         7.3919 
 405   0.0000       0.280330         7.6282 
 406   0.0000       0.285040         7.7563 
 407   0.0000       0.290075         7.8933 
 408   0.0000       0.311094         8.4653 
 409   0.0000       0.319430         8.6921 
 410   0.0000       0.323295         8.7973 
 411   0.0000       0.331231         9.0132 
 412   0.0000       0.336084         9.1453 
 413   0.0000       0.350875         9.5478 
 414   0.0000       0.360551         9.8111 
 415   0.0000       0.365142         9.9360 
 416   0.0000       0.377411        10.2699 
 417   0.0000       0.384712        10.4686 
 418   0.0000       0.388673        10.5763 
 419   0.0000       0.401030        10.9126 
 420   0.0000       0.416856        11.3432 
 421   0.0000       0.426960        11.6182 
 422   0.0000       0.431639        11.7455 
 423   0.0000       0.439396        11.9566 
 424   0.0000       0.446629        12.1534 
 425   0.0000       0.458725        12.4826 
 426   0.0000       0.460533        12.5317 
 427   0.0000       0.480408        13.0726 
 428   0.0000       0.483598        13.1594 
 429   0.0000       0.490859        13.3570 
 430   0.0000       0.506570        13.7845 
 431   0.0000       0.511950        13.9309 
 432   0.0000       0.535005        14.5582 
 433   0.0000       0.538883        14.6637 
 434   0.0000       0.545379        14.8405 
 435   0.0000       0.548473        14.9247 
 436   0.0000       0.553526        15.0622 
 437   0.0000       0.564815        15.3694 
 438   0.0000       0.569254        15.4902 
 439   0.0000       0.576632        15.6910 
 440   0.0000       0.578370        15.7382 
 441   0.0000       0.592258        16.1162 
 442   0.0000       0.599798        16.3213 
 443   0.0000       0.605333        16.4719 
 444   0.0000       0.608151        16.5486 
 445   0.0000       0.617367        16.7994 
 446   0.0000       0.625522        17.0213 
 447   0.0000       0.629209        17.1217 
 448   0.0000       0.638913        17.3857 
 449   0.0000       0.648084        17.6353 
 450   0.0000       0.651086        17.7170 
 451   0.0000       0.656563        17.8660 
 452   0.0000       0.671605        18.2753 
 453   0.0000       0.679265        18.4837 
 454   0.0000       0.686350        18.6765 
 455   0.0000       0.694004        18.8848 
 456   0.0000       0.698783        19.0149 
 457   0.0000       0.703296        19.1377 
 458   0.0000       0.713674        19.4201 
 459   0.0000       0.718890        19.5620 
 460   0.0000       0.727546        19.7975 
 461   0.0000       0.733201        19.9514 
 462   0.0000       0.741374        20.1738 
 463   0.0000       0.746901        20.3242 
 464   0.0000       0.750858        20.4319 
 465   0.0000       0.758045        20.6274 
 466   0.0000       0.764765        20.8103 
 467   0.0000       0.767718        20.8907 
 468   0.0000       0.777879        21.1672 
 469   0.0000       0.784802        21.3556 
 470   0.0000       0.795093        21.6356 
 471   0.0000       0.797718        21.7070 
 472   0.0000       0.803140        21.8545 
 473   0.0000       0.807925        21.9847 
 474   0.0000       0.812893        22.1199 
 475   0.0000       0.817706        22.2509 
 476   0.0000       0.823664        22.4130 
 477   0.0000       0.833541        22.6818 
 478   0.0000       0.836541        22.7634 
 479   0.0000       0.840127        22.8610 
 480   0.0000       0.850554        23.1447 
 481   0.0000       0.859277        23.3821 
 482   0.0000       0.863449        23.4957 
 483   0.0000       0.871134        23.7048 
 484   0.0000       0.874054        23.7842 
 485   0.0000       0.881301        23.9814 
 486   0.0000       0.884857        24.0782 
 487   0.0000       0.888051        24.1651 
 488   0.0000       0.900838        24.5131 
 489   0.0000       0.907211        24.6865 
 490   0.0000       0.913067        24.8458 
 491   0.0000       0.917116        24.9560 
 492   0.0000       0.923732        25.1360 
 493   0.0000       0.931603        25.3502 
 494   0.0000       0.934469        25.4282 
 495   0.0000       0.946090        25.7444 
 496   0.0000       0.949536        25.8382 
 497   0.0000       0.956914        26.0390 
 498   0.0000       0.960173        26.1276 
 499   0.0000       0.969752        26.3883 
 500   0.0000       0.976842        26.5812 
 501   0.0000       0.987673        26.8759 
 502   0.0000       0.989278        26.9196 
 503   0.0000       0.998390        27.1676 
 504   0.0000       1.013264        27.5723 
 505   0.0000       1.019987        27.7553 
 506   0.0000       1.024056        27.8660 
 507   0.0000       1.026062        27.9206 
 508   0.0000       1.036069        28.1929 
 509   0.0000       1.043996        28.4086 
 510   0.0000       1.053754        28.6741 
 511   0.0000       1.056621        28.7521 
 512   0.0000       1.058763        28.8104 
 513   0.0000       1.063524        28.9400 
 514   0.0000       1.073816        29.2200 
 515   0.0000       1.082751        29.4632 
 516   0.0000       1.083336        29.4791 
 517   0.0000       1.089779        29.6544 
 518   0.0000       1.090747        29.6807 
 519   0.0000       1.104026        30.0421 
 520   0.0000       1.107956        30.1490 
 521   0.0000       1.114826        30.3360 
 522   0.0000       1.118407        30.4334 
 523   0.0000       1.139267        31.0010 
 524   0.0000       1.144420        31.1413 
 525   0.0000       1.147112        31.2145 
 526   0.0000       1.159034        31.5389 
 527   0.0000       1.165499        31.7148 
 528   0.0000       1.167679        31.7742 
 529   0.0000       1.170701        31.8564 
 530   0.0000       1.178242        32.0616 
 531   0.0000       1.181236        32.1431 
 532   0.0000       1.186407        32.2838 
 533   0.0000       1.198370        32.6093 
 534   0.0000       1.203389        32.7459 
 535   0.0000       1.211365        32.9629 
 536   0.0000       1.218265        33.1507 
 537   0.0000       1.221074        33.2271 
 538   0.0000       1.224957        33.3328 
 539   0.0000       1.234693        33.5977 
 540   0.0000       1.249999        34.0142 
 541   0.0000       1.255230        34.1565 
 542   0.0000       1.262808        34.3628 
 543   0.0000       1.263734        34.3880 
 544   0.0000       1.268616        34.5208 
 545   0.0000       1.271665        34.6038 
 546   0.0000       1.274397        34.6781 
 547   0.0000       1.285449        34.9788 
 548   0.0000       1.294428        35.2232 
 549   0.0000       1.306302        35.5463 
 550   0.0000       1.316722        35.8298 
 551   0.0000       1.320212        35.9248 
 552   0.0000       1.335614        36.3439 
 553   0.0000       1.342179        36.5225 
 554   0.0000       1.347565        36.6691 
 555   0.0000       1.357586        36.9418 
 556   0.0000       1.370994        37.3067 
 557   0.0000       1.376283        37.4506 
 558   0.0000       1.388390        37.7800 
 559   0.0000       1.394460        37.9452 
 560   0.0000       1.397671        38.0326 
 561   0.0000       1.401914        38.1480 
 562   0.0000       1.420451        38.6524 
 563   0.0000       1.430446        38.9244 
 564   0.0000       1.443889        39.2902 
 565   0.0000       1.449977        39.4559 
 566   0.0000       1.451897        39.5081 
 567   0.0000       1.455604        39.6090 
 568   0.0000       1.472176        40.0599 
 569   0.0000       1.473354        40.0920 
 570   0.0000       1.488100        40.4933 
 571   0.0000       1.492926        40.6246 
 572   0.0000       1.498009        40.7629 
 573   0.0000       1.501459        40.8568 
 574   0.0000       1.517858        41.3030 
 575   0.0000       1.522308        41.4241 
 576   0.0000       1.536446        41.8088 
 577   0.0000       1.544164        42.0188 
 578   0.0000       1.548932        42.1486 
 579   0.0000       1.562430        42.5159 
 580   0.0000       1.571476        42.7620 
 581   0.0000       1.577547        42.9272 
 582   0.0000       1.583407        43.0867 
 583   0.0000       1.588976        43.2382 
 584   0.0000       1.606378        43.7118 
 585   0.0000       1.611698        43.8565 
 586   0.0000       1.615180        43.9513 
 587   0.0000       1.620332        44.0915 
 588   0.0000       1.629298        44.3355 
 589   0.0000       1.637164        44.5495 
 590   0.0000       1.643000        44.7083 
 591   0.0000       1.646235        44.7963 
 592   0.0000       1.652085        44.9555 
 593   0.0000       1.658931        45.1418 
 594   0.0000       1.668693        45.4074 
 595   0.0000       1.679393        45.6986 
 596   0.0000       1.689455        45.9724 
 597   0.0000       1.691644        46.0320 
 598   0.0000       1.699625        46.2492 
 599   0.0000       1.700155        46.2636 
 600   0.0000       1.712508        46.5997 
 601   0.0000       1.719831        46.7990 
 602   0.0000       1.724786        46.9338 
 603   0.0000       1.739369        47.3306 
 604   0.0000       1.744234        47.4630 
 605   0.0000       1.756221        47.7892 
 606   0.0000       1.765693        48.0469 
 607   0.0000       1.774760        48.2937 
 608   0.0000       1.793706        48.8092 
 609   0.0000       1.799446        48.9654 
 610   0.0000       1.802049        49.0362 
 611   0.0000       1.808737        49.2182 
 612   0.0000       1.811514        49.2938 
 613   0.0000       1.819710        49.5168 
 614   0.0000       1.826127        49.6915 
 615   0.0000       1.846693        50.2511 
 616   0.0000       1.853190        50.4279 
 617   0.0000       1.858072        50.5607 
 618   0.0000       1.868688        50.8496 
 619   0.0000       1.879014        51.1306 
 620   0.0000       1.883236        51.2455 
 621   0.0000       1.890462        51.4421 
 622   0.0000       1.898457        51.6596 
 623   0.0000       1.911536        52.0155 
 624   0.0000       1.912393        52.0389 
 625   0.0000       1.921524        52.2873 
 626   0.0000       1.926236        52.4156 
 627   0.0000       1.930358        52.5277 
 628   0.0000       1.937213        52.7142 
 629   0.0000       1.949573        53.0506 
 630   0.0000       1.950601        53.0786 
 631   0.0000       1.963814        53.4381 
 632   0.0000       1.966489        53.5109 
 633   0.0000       1.978173        53.8288 
 634   0.0000       1.988872        54.1199 
 635   0.0000       1.995396        54.2975 
 636   0.0000       2.000132        54.4264 
 637   0.0000       2.011122        54.7254 
 638   0.0000       2.013638        54.7939 
 639   0.0000       2.027942        55.1831 
 640   0.0000       2.038880        55.4807 
 641   0.0000       2.049186        55.7612 
 642   0.0000       2.052261        55.8449 
 643   0.0000       2.057357        55.9835 
 644   0.0000       2.072042        56.3831 
 645   0.0000       2.090340        56.8810 
 646   0.0000       2.091262        56.9061 
 647   0.0000       2.097265        57.0695 
 648   0.0000       2.106267        57.3144 
 649   0.0000       2.117703        57.6256 
 650   0.0000       2.126773        57.8724 
 651   0.0000       2.142814        58.3089 
 652   0.0000       2.148104        58.4529 
 653   0.0000       2.157882        58.7190 
 654   0.0000       2.164374        58.8956 
 655   0.0000       2.170451        59.0610 
 656   0.0000       2.190416        59.6043 
 657   0.0000       2.197327        59.7923 
 658   0.0000       2.210729        60.1570 
 659   0.0000       2.212948        60.2174 
 660   0.0000       2.234021        60.7908 
 661   0.0000       2.254186        61.3395 
 662   0.0000       2.255703        61.3808 
 663   0.0000       2.262930        61.5775 
 664   0.0000       2.278264        61.9947 
 665   0.0000       2.297654        62.5223 
 666   0.0000       2.310197        62.8637 
 667   0.0000       2.313360        62.9497 
 668   0.0000       2.349489        63.9329 
 669   0.0000       2.362449        64.2855 
 670   0.0000       2.364594        64.3439 
 671   0.0000       2.369644        64.4813 
 672   0.0000       2.407005        65.4979 
 673   0.0000       2.416767        65.7636 
 674   0.0000       2.447735        66.6063 
 675   0.0000       2.451026        66.6958 
 676   0.0000       2.463277        67.0292 
 677   0.0000       2.471399        67.2502 
 678   0.0000       2.494251        67.8720 
 679   0.0000       2.510098        68.3032 
 680   0.0000       2.522328        68.6360 
 681   0.0000       2.530319        68.8535 
 682   0.0000       2.537838        69.0581 
 683   0.0000       2.539841        69.1126 
 684   0.0000       2.559861        69.6574 
 685   0.0000       2.565974        69.8237 
 686   0.0000       2.573947        70.0407 
 687   0.0000       2.584323        70.3230 
 688   0.0000       2.591894        70.5290 
 689   0.0000       2.604812        70.8805 
 690   0.0000       2.621149        71.3251 
 691   0.0000       2.631638        71.6105 
 692   0.0000       2.646356        72.0110 
 693   0.0000       2.657938        72.3262 
 694   0.0000       2.659223        72.3611 
 695   0.0000       2.668882        72.6240 
 696   0.0000       2.675992        72.8174 
 697   0.0000       2.681765        72.9745 
 698   0.0000       2.711544        73.7849 
 699   0.0000       2.716878        73.9300 
 700   0.0000       2.723150        74.1007 
 701   0.0000       2.730781        74.3083 
 702   0.0000       2.753353        74.9225 
 703   0.0000       2.762643        75.1753 
 704   0.0000       2.772300        75.4381 
 705   0.0000       2.800342        76.2012 
 706   0.0000       2.808172        76.4142 
 707   0.0000       2.830474        77.0211 
 708   0.0000       2.839512        77.2670 
 709   0.0000       2.845645        77.4339 
 710   0.0000       2.865151        77.9647 
 711   0.0000       2.872982        78.1778 
 712   0.0000       2.882660        78.4412 
 713   0.0000       2.908281        79.1383 
 714   0.0000       2.924263        79.5732 
 715   0.0000       2.935342        79.8747 
 716   0.0000       2.950052        80.2750 
 717   0.0000       2.963809        80.6493 
 718   0.0000       2.969948        80.8164 
 719   0.0000       2.995212        81.5039 
 720   0.0000       3.007951        81.8505 
 721   0.0000       3.023631        82.2772 
 722   0.0000       3.036022        82.6144 
 723   0.0000       3.046431        82.8976 
 724   0.0000       3.056810        83.1800 
 725   0.0000       3.062944        83.3469 
 726   0.0000       3.068292        83.4925 
 727   0.0000       3.079552        83.7989 
 728   0.0000       3.084141        83.9237 
 729   0.0000       3.096524        84.2607 
 730   0.0000       3.113857        84.7323 
 731   0.0000       3.135502        85.3213 
 732   0.0000       3.154281        85.8323 
 733   0.0000       3.163942        86.0952 
 734   0.0000       3.174641        86.3864 
 735   0.0000       3.187538        86.7373 
 736   0.0000       3.203541        87.1728 
 737   0.0000       3.218903        87.5908 
 738   0.0000       3.231567        87.9354 
 739   0.0000       3.244933        88.2991 
 740   0.0000       3.248161        88.3870 
 741   0.0000       3.260789        88.7306 
 742   0.0000       3.269187        88.9591 
 743   0.0000       3.281049        89.2819 
 744   0.0000       3.297073        89.7179 
 745   0.0000       3.316242        90.2395 
 746   0.0000       3.321951        90.3949 
 747   0.0000       3.340179        90.8909 
 748   0.0000       3.355844        91.3172 
 749   0.0000       3.365973        91.5928 
 750   0.0000       3.383742        92.0763 
 751   0.0000       3.444193        93.7212 
 752   0.0000       3.457243        94.0764 
 753   0.0000       3.481270        94.7302 
 754   0.0000       3.481812        94.7449 
 755   0.0000       3.519526        95.7712 
 756   0.0000       3.528907        96.0264 
 757   0.0000       3.530945        96.0819 
 758   0.0000       3.549608        96.5898 
 759   0.0000       3.559613        96.8620 
 760   0.0000       3.597532        97.8938 
 761   0.0000       3.658801        99.5610 
 762   0.0000       3.667084        99.7864 
 763   0.0000       3.691191       100.4424 
 764   0.0000       3.715403       101.1013 
 765   0.0000       3.719296       101.2072 
 766   0.0000       3.752225       102.1032 
 767   0.0000       3.771569       102.6296 
 768   0.0000       3.777884       102.8014 
 769   0.0000       3.792314       103.1941 
 770   0.0000       3.843054       104.5748 
 771   0.0000       3.859908       105.0334 
 772   0.0000       3.879916       105.5779 
 773   0.0000       3.899043       106.0983 
 774   0.0000       3.904281       106.2409 
 775   0.0000       3.935413       107.0880 
 776   0.0000       3.975544       108.1801 
 777   0.0000       4.015095       109.2563 
 778   0.0000       4.026068       109.5549 
 779   0.0000       4.105686       111.7214 
 780   0.0000       4.124830       112.2423 
 781   0.0000       4.168551       113.4320 
 782   0.0000       4.234841       115.2359 
 783   0.0000       4.248081       115.5961 
 784   0.0000       4.254502       115.7709 
 785   0.0000       4.284867       116.5972 
 786   0.0000       4.368663       118.8774 
 787   0.0000       4.390343       119.4673 
 788   0.0000       4.398148       119.6797 
 789   0.0000       4.457644       121.2987 
 790   0.0000       4.487128       122.1010 
 791   0.0000       4.548717       123.7769 
 792   0.0000       4.587697       124.8376 
 793   0.0000       4.640528       126.2752 
 794   0.0000       4.665865       126.9646 
 795   0.0000       4.684495       127.4716 
 796   0.0000       4.744710       129.1101 
 797   0.0000       4.750989       129.2810 
 798   0.0000       4.805237       130.7572 
 799   0.0000       4.806139       130.7817 
 800   0.0000       4.958358       134.9238 
 801   0.0000       4.967331       135.1680 
 802   0.0000       5.023085       136.6851 
 803   0.0000       5.033590       136.9710 
 804   0.0000       5.150003       140.1387 
 805   0.0000       5.220187       142.0485 
 806   0.0000       5.349639       145.5711 
 807   0.0000       5.358941       145.8242 
 808   0.0000       5.454483       148.4240 
 809   0.0000       6.714119       182.7005 
 810   0.0000       7.320089       199.1898 
 811   0.0000       8.464688       230.3359 
 812   0.0000       9.048672       246.2269 
 813   0.0000       9.534374       259.4435 
 814   0.0000       9.747477       265.2423 
 815   0.0000      10.222443       278.1668 
 816   0.0000      10.341909       281.4176 
 817   0.0000      10.395732       282.8822 
 818   0.0000      10.481271       285.2099 
 819   0.0000      10.726162       291.8737 
 820   0.0000      11.044322       300.5313 
 821   0.0000      11.210699       305.0586 
 822   0.0000      11.373627       309.4921 
 823   0.0000      11.456483       311.7468 
 824   0.0000      11.802061       321.1504 
 825   0.0000      12.297802       334.6402 
 826   0.0000      12.657431       344.4262 
 827   0.0000      13.146768       357.7418 

                    ********************************
                    * MULLIKEN POPULATION ANALYSIS *
                    ********************************

-----------------------
MULLIKEN ATOMIC CHARGES
-----------------------
   0 C :   -0.315412
   1 C :    0.027927
   2 O :   -0.323737
   3 C :    0.471407
   4 O :   -0.555140
   5 C :   -0.183707
   6 C :    0.145615
   7 C :   -0.287787
   8 N :   -0.054110
   9 C :    0.344067
  10 S :   -0.721374
  11 N :   -0.258367
  12 C :    0.035806
  13 C :    0.040005
  14 C :   -0.203991
  15 C :   -0.173551
  16 C :   -0.271652
  17 C :    0.314833
  18 O :   -0.458552
  19 C :   -0.277946
  20 H :    0.111128
  21 H :    0.112633
  22 H :    0.098243
  23 H :    0.125287
  24 H :    0.117266
  25 H :    0.138131
  26 H :    0.127050
  27 H :    0.135957
  28 H :    0.259720
  29 H :    0.243379
  30 H :    0.175186
  31 H :    0.193855
  32 H :    0.187416
  33 H :    0.183629
  34 H :    0.324357
  35 H :    0.172428
Sum of atomic charges:    0.0000000

--------------------------------
MULLIKEN REDUCED ORBITAL CHARGES
--------------------------------
  0 C s       :     3.270899  s :     3.270899
      pz      :     1.000834  p :     2.969146
      px      :     1.033991
      py      :     0.934321
      dz2     :     0.026360  d :     0.070835
      dxz     :     0.002894
      dyz     :     0.011147
      dx2y2   :     0.010942
      dxy     :     0.019493
      f0      :     0.001073  f :     0.004532
      f+1     :     0.000163
      f-1     :     0.000763
      f+2     :     0.000679
      f-2     :     0.000166
      f+3     :     0.000628
      f-3     :     0.001060
  1 C s       :     3.174439  s :     3.174439
      pz      :     1.042584  p :     2.631712
      px      :     0.711925
      py      :     0.877203
      dz2     :     0.036316  d :     0.153972
      dxz     :     0.021985
      dyz     :     0.017670
      dx2y2   :     0.032220
      dxy     :     0.045781
      f0      :     0.001735  f :     0.011950
      f+1     :     0.001009
      f-1     :     0.001076
      f+2     :     0.001056
      f-2     :     0.001476
      f+3     :     0.003170
      f-3     :     0.002427
  2 O s       :     3.705479  s :     3.705479
      pz      :     1.477995  p :     4.580751
      px      :     1.447180
      py      :     1.655576
      dz2     :     0.010933  d :     0.035109
      dxz     :     0.006726
      dyz     :     0.006061
      dx2y2   :     0.006053
      dxy     :     0.005335
      f0      :     0.000306  f :     0.002398
      f+1     :     0.000415
      f-1     :     0.000376
      f+2     :     0.000208
      f-2     :     0.000368
[...]
 15 C s       :     2.707371  s :     2.707371
      pz      :     0.962628  p :     2.807147
      px      :     0.839896
      py      :     1.004623
      dz2     :     0.101110  d :     0.419680
      dxz     :     0.036077
      dyz     :     0.110017
      dx2y2   :     0.077652
      dxy     :     0.094825
      f0      :     0.003544  f :     0.040813
      f+1     :     0.002276
      f-1     :     0.011926
      f+2     :     0.005989
      f-2     :     0.007202
      f+3     :     0.004381
      f-3     :     0.005495
 16 C s       :     2.699737  s :     2.699737
      pz      :     0.984906  p :     2.852399
      px      :     0.887536
      py      :     0.979956
      dz2     :     0.112791  d :     0.392847
      dxz     :     0.063288
      dyz     :     0.131467
      dx2y2   :     0.049769
      dxy     :     0.035532
      f0      :     0.008098  f :     0.041474
      f+1     :     0.005085
      f-1     :     0.013070
      f+2     :     0.004871
      f-2     :     0.004372
      f+3     :     0.002774
      f-3     :     0.003203
 17 C s       :     2.696449  s :     2.696449
      pz      :     0.985158  p :     2.691009
      px      :     0.826167
      py      :     0.879685
      dz2     :     0.155790  d :     0.718411
      dxz     :     0.110561
      dyz     :     0.229243
      dx2y2   :     0.095705
      dxy     :     0.127113
      f0      :     0.010435  f :     0.100410
      f+1     :     0.006400
      f-1     :     0.033211
      f+2     :     0.013049
      f-2     :     0.017744
      f+3     :     0.010667
      f-3     :     0.008905
 18 O s       :     3.187252  s :     3.187252
      pz      :     1.517246  p :     4.393053
      px      :     1.651537
      py      :     1.224271
      dz2     :     0.009444  d :     0.069892
      dxz     :     0.005264
      dyz     :     0.031947
      dx2y2   :     0.014575
      dxy     :     0.008663
      f0      :     0.000604  f :     0.005030
      f+1     :     0.000065
      f-1     :     0.001757
      f+2     :     0.001067
      f-2     :     0.000641
      f+3     :     0.000538
      f-3     :     0.000358
 19 C s       :     2.697248  s :     2.697248
      pz      :     0.967323  p :     2.851460
      px      :     0.892415
      py      :     0.991723
      dz2     :     0.109978  d :     0.392926
      dxz     :     0.022835
      dyz     :     0.111241
      dx2y2   :     0.071084
      dxy     :     0.077789
      f0      :     0.005017  f :     0.041509
      f+1     :     0.001030
      f-1     :     0.011674
      f+2     :     0.006213
      f-2     :     0.006819
      f+3     :     0.004786
      f-3     :     0.005970
 20 H s       :     0.843559  s :     0.843559
      pz      :     0.041495  p :     0.150559
      px      :     0.066853
      py      :     0.042211
      dz2     :     0.003057  d :     0.027754
      dxz     :     0.006874
      dyz     :     0.001934
      dx2y2   :     0.007578
      dxy     :     0.008311
 21 H s       :     0.840038  s :     0.840038
      pz      :     0.044252  p :     0.154052
      px      :     0.055323
      py      :     0.054477
      dz2     :     0.003385  d :     0.027770
      dxz     :     0.004172
      dyz     :     0.005000
      dx2y2   :     0.008620
      dxy     :     0.006594
 22 H s       :     0.844189  s :     0.844189
      pz      :     0.074418  p :     0.157677
      px      :     0.042574
      py      :     0.040685
      dz2     :     0.009252  d :     0.028275
      dxz     :     0.009352
      dyz     :     0.009085
      dx2y2   :     0.000248
      dxy     :     0.000338
 23 H s       :     0.845075  s :     0.845075
      pz      :     0.078759  p :     0.143837
      px      :     0.027767
      py      :     0.037312
      dz2     :     0.009665  d :     0.027011
      dxz     :     0.007297
      dyz     :     0.008897
      dx2y2   :     0.000466
      dxy     :     0.000686
 24 H s       :     0.853994  s :     0.853994
      pz      :     0.044737  p :     0.145001
      px      :     0.052034
      py      :     0.048230
      dz2     :     0.004571  d :     0.026791
      dxz     :     0.004895
      dyz     :     0.004042
      dx2y2   :     0.006014
      dxy     :     0.007268
 25 H s       :     0.825360  s :     0.825360
      pz      :     0.056402  p :     0.153976
      px      :     0.050214
      py      :     0.047359
      dz2     :     0.007937  d :     0.027947
      dxz     :     0.006402
      dyz     :     0.005762
      dx2y2   :     0.004481
      dxy     :     0.003365
 26 H s       :     0.824057  s :     0.824057
      pz      :     0.034993  p :     0.152325
      px      :     0.068278
      py      :     0.049054
      dz2     :     0.002533  d :     0.028177
      dxz     :     0.006711
      dyz     :     0.002053
      dx2y2   :     0.009586
      dxy     :     0.007294
 27 H s       :     0.820836  s :     0.820836
      pz      :     0.040008  p :     0.155841
      px      :     0.044426
      py      :     0.071407
      dz2     :     0.003203  d :     0.028309
      dxz     :     0.001242
      dyz     :     0.008020
      dx2y2   :     0.006667
      dxy     :     0.009178
 28 H s       :     0.701024  s :     0.701024
      pz      :     0.108439  p :     0.242515
      px      :     0.051562
      py      :     0.082514
      dz2     :     0.018771  d :     0.060074
      dxz     :     0.014936
      dyz     :     0.017679
      dx2y2   :     0.004734
      dxy     :     0.003955
 29 H s       :     0.728348  s :     0.728348
      pz      :     0.093966  p :     0.257713
      px      :     0.074786
      py      :     0.088960
      dz2     :     0.014799  d :     0.061267
      dxz     :     0.016261
      dyz     :     0.015912
      dx2y2   :     0.005855
      dxy     :     0.008440
 30 H s       :     0.817962  s :     0.817962
      pz      :     0.052813  p :     0.150672
      px      :     0.036062
      py      :     0.061797
      dz2     :     0.007097  d :     0.029378
      dxz     :     0.003609
      dyz     :     0.007936
      dx2y2   :     0.006106
      dxy     :     0.004630
 31 H s       :     0.837159  s :     0.837159
      pz      :     0.042937  p :     0.159635
      px      :     0.044769
      py      :     0.071929
      dz2     :     0.004667  d :     0.027471
      dxz     :     0.001801
      dyz     :     0.008341
      dx2y2   :     0.006217
      dxy     :     0.006447
 32 H s       :     0.832448  s :     0.832448
      pz      :     0.074968  p :     0.154905
      px      :     0.046320
      py      :     0.033617
      dz2     :     0.008877  d :     0.027224
      dxz     :     0.007828
      dyz     :     0.007775
      dx2y2   :     0.001374
      dxy     :     0.001370
 33 H s       :     0.829244  s :     0.829244
      pz      :     0.042561  p :     0.155789
      px      :     0.045836
      py      :     0.067392
      dz2     :     0.004746  d :     0.027418
      dxz     :     0.002109
      dyz     :     0.008035
      dx2y2   :     0.006108
      dxy     :     0.006419
 34 H s       :     0.669082  s :     0.669082
      pz      :     0.131009  p :     0.345480
      px      :     0.100845
      py      :     0.113626
      dz2     :     0.022337  d :     0.099525
      dxz     :     0.015926
      dyz     :     0.025968
      dx2y2   :     0.014953
      dxy     :     0.020342
 35 H s       :     0.835844  s :     0.835844
      pz      :     0.080539  p :     0.158573
      px      :     0.045849
      py      :     0.032184
      dz2     :     0.010322  d :     0.028081
      dxz     :     0.008396
      dyz     :     0.008822
      dx2y2   :     0.000267
      dxy     :     0.000274


                      *****************************
                      * MAYER POPULATION ANALYSIS *
                      *****************************

  NA   - Mulliken gross atomic population
  ZA   - Total nuclear charge
  QA   - Mulliken gross atomic charge
  VA   - Mayer's total valence
  BVA  - Mayer's bonded valence
  FA   - Mayer's free valence

  ATOM       NA         ZA         QA         VA         BVA        FA
  0 C      6.3154     6.0000    -0.3154     3.8679     3.8679     0.0000
  1 C      5.9721     6.0000     0.0279     3.8220     3.8220     0.0000
  2 O      8.3237     8.0000    -0.3237     2.0778     2.0778     0.0000
  3 C      5.5286     6.0000     0.4714     4.2909     4.2909     0.0000
  4 O      8.5551     8.0000    -0.5551     1.9933     1.9933    -0.0000
  5 C      6.1837     6.0000    -0.1837     3.6132     3.6132     0.0000
  6 C      5.8544     6.0000     0.1456     3.8523     3.8523     0.0000
  7 C      6.2878     6.0000    -0.2878     3.8776     3.8776    -0.0000
  8 N      7.0541     7.0000    -0.0541     3.4507     3.4507     0.0000
  9 C      5.6559     6.0000     0.3441     4.0020     4.0020    -0.0000
 10 S     16.7214    16.0000    -0.7214     1.3842     1.3842    -0.0000
 11 N      7.2584     7.0000    -0.2584     3.2816     3.2816    -0.0000
 12 C      5.9642     6.0000     0.0358     3.9073     3.9073    -0.0000
 13 C      5.9600     6.0000     0.0400     3.6890     3.6890     0.0000
 14 C      6.2040     6.0000    -0.2040     3.8303     3.8303     0.0000
 15 C      6.1736     6.0000    -0.1736     3.7656     3.7656     0.0000
 16 C      6.2717     6.0000    -0.2717     3.7635     3.7635    -0.0000
 17 C      5.6852     6.0000     0.3148     3.8790     3.8790    -0.0000
 18 O      8.4586     8.0000    -0.4586     2.0347     2.0347    -0.0000
 19 C      6.2779     6.0000    -0.2779     3.7949     3.7949     0.0000
 20 H      0.8889     1.0000     0.1111     0.9823     0.9823     0.0000
 21 H      0.8874     1.0000     0.1126     0.9790     0.9790    -0.0000
 22 H      0.9018     1.0000     0.0982     0.9893     0.9893    -0.0000
 23 H      0.8747     1.0000     0.1253     0.9734     0.9734     0.0000
 24 H      0.8827     1.0000     0.1173     0.9832     0.9832    -0.0000
 25 H      0.8619     1.0000     0.1381     0.9811     0.9811     0.0000
 26 H      0.8729     1.0000     0.1271     0.9782     0.9782    -0.0000
 27 H      0.8640     1.0000     0.1360     0.9788     0.9788    -0.0000
 28 H      0.7403     1.0000     0.2597     0.9585     0.9585    -0.0000
 29 H      0.7566     1.0000     0.2434     0.9764     0.9764     0.0000
 30 H      0.8248     1.0000     0.1752     0.9911     0.9911     0.0000
 31 H      0.8061     1.0000     0.1939     0.9758     0.9758     0.0000
 32 H      0.8126     1.0000     0.1874     0.9652     0.9652     0.0000
 33 H      0.8164     1.0000     0.1836     0.9735     0.9735    -0.0000
 34 H      0.6756     1.0000     0.3244     0.9388     0.9388     0.0000
 35 H      0.8276     1.0000     0.1724     0.9868     0.9868     0.0000

  Mayer bond orders larger than 0.100000
B(  0-C ,  1-C ) :   0.9586 B(  0-C , 20-H ) :   0.9734 B(  0-C , 21-H ) :   0.9760 
B(  0-C , 22-H ) :   0.9777 B(  1-C ,  2-O ) :   0.8798 B(  1-C , 23-H ) :   0.9811 
B(  1-C , 24-H ) :   0.9786 B(  2-O ,  3-C ) :   1.2133 B(  3-C ,  4-O ) :   1.9252 
B(  3-C ,  5-C ) :   1.0945 B(  5-C ,  6-C ) :   1.6123 B(  5-C , 12-C ) :   0.9549 
B(  6-C ,  7-C ) :   0.9716 B(  6-C ,  8-N ) :   1.1671 B(  7-C , 25-H ) :   0.9790 
B(  7-C , 26-H ) :   0.9676 B(  7-C , 27-H ) :   0.9537 B(  8-N ,  9-C ) :   1.3234 
B(  8-N , 28-H ) :   0.9166 B(  9-C , 10-S ) :   1.2416 B(  9-C , 11-N ) :   1.3620 
B( 11-N , 12-C ) :   0.9345 B( 11-N , 29-H ) :   0.9304 B( 12-C , 13-C ) :   0.9500 
B( 12-C , 30-H ) :   1.0031 B( 13-C , 14-C ) :   1.3436 B( 13-C , 19-C ) :   1.3460 
B( 14-C , 15-C ) :   1.3936 B( 14-C , 31-H ) :   0.9565 B( 15-C , 16-C ) :   1.3380 
B( 15-C , 32-H ) :   0.9627 B( 16-C , 17-C ) :   1.3491 B( 16-C , 33-H ) :   0.9675 
B( 17-C , 18-O ) :   1.0850 B( 17-C , 19-C ) :   1.3703 B( 18-O , 34-H ) :   0.9217 
B( 19-C , 35-H ) :   0.9542 

-------
TIMINGS
-------

Total SCF time: 0 days 1 hours 48 min 2 sec 

Total time                  ....    6482.475 sec
Sum of individual times     ....    6478.648 sec  ( 99.9%)

Fock matrix formation       ....    6466.713 sec  ( 99.8%)
Diagonalization             ....       1.367 sec  (  0.0%)
Density matrix formation    ....       0.188 sec  (  0.0%)
Population analysis         ....       0.210 sec  (  0.0%)
Initial guess               ....       5.693 sec  (  0.1%)
Orbital Transformation      ....       0.000 sec  (  0.0%)
Orbital Orthonormalization  ....       0.000 sec  (  0.0%)
DIIS solution               ....       1.290 sec  (  0.0%)
SOSCF solution              ....       1.781 sec  (  0.0%)

Maximum memory used throughout the entire SCF-calculation: 716.7 MB

------------------------------------------------------------------------------
                                ORCA  MP2 
------------------------------------------------------------------------------

Freezing NCore=48 chemical core electrons

-------------
RI-MP2 ENERGY
-------------
Dimension of the basis                    ...  828
Memory devoted to MP2                     ...  256 MB   
Data format for buffers                   ... DOUBLE
Compression type for matrix containers    ... UNCOMPRESSED
Overall scaling of the MP2 energy         ...   1.000e+00
Calculating two index integrals           ... done (    0.043 sec)
Cholesky decomposition of V**-1           ... done (    0.532 sec)

-----------------
RI-TRANSFORMATION (AUX index driven)
-----------------

Dimension of the orbital-basis         ... 828
Dimension of the aux-basis             ... 2141
Transformation of internal/external MOs...   24-  76 to   77- 827
Number Format for Storage              ... Double (8 Byte)
Integral mode                          ... Direct

First Phase: integral generation and transformation of MO indices
  Aux angular momentum 0               ... done (    4.834 sec)
  Aux angular momentum 1               ... done (    8.087 sec)
  Aux angular momentum 2               ... done (   10.675 sec)
  Aux angular momentum 3               ... done (    8.603 sec)
  Aux angular momentum 4               ... done (    2.953 sec)
Closing buffer VIA ( 0.63 GB; CompressionRatio= 1.00)
  Phase 1 completed in    35.322 sec
Second Phase: sorting and transformation of aux index

IA-Transformation
Memory available                       ... 158 MB 
Max. # MO pairs treated in a batch     ... 11    
# of internal orbitals                 ... 53
# batches for internal orbitals        ... 5
Closing buffer IAV ( 0.63 GB; CompressionRatio= 1.00)
(ia|v) transformation done in    19.342 sec

  Phase 2 completed in    19.351 sec
RI-Integral transformation completed in    54.678 sec
Opening buffers                              ... done

Starting loop over batches of integrals:

Operator 0  - window                       ... ( 24- 76)x( 77-827)
Operator 0  - Memory available             ...   256 MB
Operator 0  - Memory needed per MO         ...  12.3 MB
Operator 0  - Number of orbitals per batch ... 13
Operator 0  - Number of batches            ... 5

OPERATOR  0   PASS   0:  MOs    24 ...   36
  Reading integrals       ... ok
  Internal MO  26
  Internal MO  29
  Internal MO  32
  Internal MO  35
OPERATOR  0   PASS   1:  MOs    37 ...   49
  Reading integrals       ... ok
  Internal MO  38
  Internal MO  41
  Internal MO  44
  Internal MO  47
OPERATOR  0   PASS   2:  MOs    50 ...   62
  Reading integrals       ... ok
  Internal MO  50
  Internal MO  53
  Internal MO  56
  Internal MO  59
  Internal MO  62
OPERATOR  0   PASS   3:  MOs    63 ...   75
  Reading integrals       ... ok
  Internal MO  65
  Internal MO  68
  Internal MO  71
  Internal MO  74
OPERATOR  0   PASS   4:  MOs    76 ...   76
  Reading integrals       ... ok
Time spent in pair loops =    88.237 sec
Deleting buffer (Ka|jb)[aa] ...done

-----------------------------------------------
 RI-MP2 CORRELATION ENERGY:     -3.522236279 Eh
-----------------------------------------------


-------
TIMINGS
-------

Total time                :  143.590 sec
Integral trafo            :   54.699 sec ( 38.1%)
I/O of integrals          :    1.122 sec (  0.8%)
K(i,j) Operators          :   60.710 sec ( 42.3%)
T(i,j) pair energies      :    8.721 sec (  6.1%)
V-calculation             :    0.043 sec (  0.0%)
V**(-1/2)                 :    0.532 sec (  0.4%)
Gamma(ia|P)               :    0.000 sec (  0.0%)
Gamma-Trafo               :    0.000 sec (  0.0%)
D(virtual)                :    0.000 sec (  0.0%)
D(internal)               :    0.000 sec (  0.0%)
W(virtual)                :    0.000 sec (  0.0%)
W(internal)               :    0.000 sec (  0.0%)
L(virtual)                :    0.000 sec (  0.0%)
L(internal)               :    0.000 sec (  0.0%)
G(D)                      :    0.000 sec (  0.0%)
G(Z)                      :    0.000 sec (  0.0%)
Z-Vector Solution         :    0.000 sec (  0.0%)
3-Index Derivative        :    0.000 sec (  0.0%)
2-Index Derivative        :    0.000 sec (  0.0%)
Separable Gradient        :    0.000 sec (  0.0%)


---------------------------------------
MP2 TOTAL ENERGY:    -1274.432649559 Eh
---------------------------------------

Maximum memory used throughout the entire MP2-calculation: 302.7 MB

-------------------------   --------------------
FINAL SINGLE POINT ENERGY     -1274.432649558871
-------------------------   --------------------


                            ***************************************
                            *     ORCA property calculations      *
                            ***************************************


  WARNING: The energy has been calculated at the MP2 level but the densities
           used in the property calculations are still SCF densities
           MP2 response densities have not been calculated 
           use %mp2 Density relaxed end
           or  %mp2 Density unrelaxed end

                                    ---------------------
                                    Active property flags
                                    ---------------------
   (+) Dipole Moment


------------------------------------------------------------------------------
                       ORCA ELECTRIC PROPERTIES CALCULATION
------------------------------------------------------------------------------

Dipole Moment Calculation                       ... on
Quadrupole Moment Calculation                   ... off
Polarizability Calculation                      ... off
GBWName                                         ... qm_input.solv.gbw
Electron density file                           ... qm_input.solv.scfp
The origin for moment calculation is the CENTER OF MASS  = (11.118793,  4.249572 23.774323)

-------------
DIPOLE MOMENT
-------------
                                X             Y             Z
Electronic contribution:    -12.58437      -7.69297       3.48617
Nuclear contribution   :     15.11603       7.74932      -4.37648
                        -----------------------------------------
Total Dipole Moment    :      2.53166       0.05635      -0.89031
                        -----------------------------------------
Magnitude (a.u.)       :      2.68424
Magnitude (Debye)      :      6.82279



--------------------
Rotational spectrum 
--------------------
 
Rotational constants in cm-1:     0.010936     0.008190     0.005791 
Rotational constants in MHz :   327.846477   245.537756   173.611653 

 Dipole components along the rotational axes: 
x,y,z [a.u.] :    -1.682327     1.697550    -1.221977 
x,y,z [Debye]:    -4.276136     4.314828    -3.106020 

 

Timings for individual modules:

Sum of individual times         ...     6856.414 sec (= 114.274 min)
GTO integral calculation        ...      229.846 sec (=   3.831 min)   3.4 %
SCF iterations                  ...     6482.551 sec (= 108.043 min)  94.5 %
MP2 module                      ...      144.017 sec (=   2.400 min)   2.1 %
                             ****ORCA TERMINATED NORMALLY****
TOTAL RUN TIME: 0 days 1 hours 54 minutes 17 seconds 389 msec
