
                                        *****************
                                        * O   R   C   A *
                                        *****************

                                            #,                                       
                                            ###                                      
                                            ####                                     
                                            #####                                    
                                            ######                                   
                                           ########,                                 
                                     ,,################,,,,,                         
                               ,,#################################,,                 
                          ,,##########################################,,             
                       ,#########################################, ''#####,          
                    ,#############################################,,   '####,        
                  ,##################################################,,,,####,       
                ,###########''''           ''''###############################       
              ,#####''   ,,,,##########,,,,          '''####'''          '####       
            ,##' ,,,,###########################,,,                        '##       
           ' ,,###''''                  '''############,,,                           
         ,,##''                                '''############,,,,        ,,,,,,###''
      ,#''                                            '''#######################'''  
     '                                                          ''''####''''         
             ,#######,   #######,   ,#######,      ##                                
            ,#'     '#,  ##    ##  ,#'     '#,    #''#        ######   ,####,        
            ##       ##  ##   ,#'  ##            #'  '#       #        #'  '#        
            ##       ##  #######   ##           ,######,      #####,   #    #        
            '#,     ,#'  ##    ##  '#,     ,#' ,#      #,         ##   #,  ,#        
             '#######'   ##     ##  '#######'  #'      '#     #####' # '####'        



                  #######################################################
                  #                        -***-                        #
                  #          Department of theory and spectroscopy      #
                  #    Directorship and core code : Frank Neese         #
                  #        Max Planck Institute fuer Kohlenforschung    #
                  #                Kaiser Wilhelm Platz 1               #
                  #                 D-45470 Muelheim/Ruhr               #
                  #                      Germany                        #
                  #                                                     #
                  #                  All rights reserved                #
                  #                        -***-                        #
                  #######################################################


                         Program Version 5.0.0 -  RELEASE  -
                                (SVN: $Rev: 19529$)
                ($Date: 2021-06-28 11:36:33 +0200 (Mo, 28 Jun 2021) $)


 With contributions from (in alphabetic order):
   Daniel Aravena         : Magnetic Suceptibility
   Michael Atanasov       : Ab Initio Ligand Field Theory (pilot matlab implementation)
   Alexander A. Auer      : GIAO ZORA, VPT2 properties, NMR spectrum
   Ute Becker             : Parallelization
   Giovanni Bistoni       : ED, misc. LED, open-shell LED, HFLD
   Martin Brehm           : Molecular dynamics
   Dmytro Bykov           : SCF Hessian
   Vijay G. Chilkuri      : MRCI spin determinant printing, contributions to CSF-ICE
   Dipayan Datta          : RHF DLPNO-CCSD density
   Achintya Kumar Dutta   : EOM-CC, STEOM-CC
   Dmitry Ganyushin       : Spin-Orbit,Spin-Spin,Magnetic field MRCI
   Miquel Garcia          : C-PCM Hessian, Gaussian charge scheme
   Yang Guo               : DLPNO-NEVPT2, F12-NEVPT2, CIM, IAO-localization
   Andreas Hansen         : Spin unrestricted coupled pair/coupled cluster methods
   Benjamin Helmich-Paris : MC-RPA, TRAH-SCF, COSX integrals
   Lee Huntington         : MR-EOM, pCC
   Robert Izsak           : Overlap fitted RIJCOSX, COSX-SCS-MP3, EOM
   Marcus Kettner         : VPT2
   Christian Kollmar      : KDIIS, OOCD, Brueckner-CCSD(T), CCSD density, CASPT2, CASPT2-K
   Simone Kossmann        : Meta GGA functionals, TD-DFT gradient, OOMP2, MP2 Hessian
   Martin Krupicka        : Initial AUTO-CI
   Lucas Lang             : DCDCAS
   Marvin Lechner         : AUTO-CI (C++ implementation), FIC-MRCC
   Dagmar Lenk            : GEPOL surface, SMD
   Dimitrios Liakos       : Extrapolation schemes; Compound Job, initial MDCI parallelization
   Dimitrios Manganas     : Further ROCIS development; embedding schemes
   Dimitrios Pantazis     : SARC Basis sets
   Anastasios Papadopoulos: AUTO-CI, single reference methods and gradients
   Taras Petrenko         : DFT Hessian,TD-DFT gradient, ASA, ECA, R-Raman, ABS, FL, XAS/XES, NRVS
   Peter Pinski           : DLPNO-MP2, DLPNO-MP2 Gradient
   Christoph Reimann      : Effective Core Potentials
   Marius Retegan         : Local ZFS, SOC
   Christoph Riplinger    : Optimizer, TS searches, QM/MM, DLPNO-CCSD(T), (RO)-DLPNO pert. Triples
   Tobias Risthaus        : Range-separated hybrids, TD-DFT gradient, RPA, STAB
   Michael Roemelt        : Original ROCIS implementation
   Masaaki Saitow         : Open-shell DLPNO-CCSD energy and density
   Barbara Sandhoefer     : DKH picture change effects
   Avijit Sen             : IP-ROCIS
   Kantharuban Sivalingam : CASSCF convergence, NEVPT2, FIC-MRCI
   Bernardo de Souza      : ESD, SOC TD-DFT
   Georgi Stoychev        : AutoAux, RI-MP2 NMR
   Willem Van den Heuvel  : Paramagnetic NMR
   Boris Wezisla          : Elementary symmetry handling
   Frank Wennmohs         : Technical directorship


 We gratefully acknowledge several colleagues who have allowed us to
 interface, adapt or use parts of their codes:
   Stefan Grimme, W. Hujo, H. Kruse, P. Pracht,  : VdW corrections, initial TS optimization,
                  C. Bannwarth, S. Ehlert          DFT functionals, gCP, sTDA/sTD-DF
   Ed Valeev, F. Pavosevic, A. Kumar             : LibInt (2-el integral package), F12 methods
   Garnet Chan, S. Sharma, J. Yang, R. Olivares  : DMRG
   Ulf Ekstrom                                   : XCFun DFT Library
   Mihaly Kallay                                 : mrcc  (arbitrary order and MRCC methods)
   Jiri Pittner, Ondrej Demel                    : Mk-CCSD
   Frank Weinhold                                : gennbo (NPA and NBO analysis)
   Christopher J. Cramer and Donald G. Truhlar   : smd solvation model
   Lars Goerigk                                  : TD-DFT with DH, B97 family of functionals
   V. Asgeirsson, H. Jonsson                     : NEB implementation
   FAccTs GmbH                                   : IRC, NEB, NEB-TS, DLPNO-Multilevel, CI-OPT
                                                   MM, QMMM, 2- and 3-layer-ONIOM, Crystal-QMMM,
                                                   LR-CPCM, SF, NACMEs, symmetry and pop. for TD-DFT,
                                                   nearIR, NL-DFT gradient (VV10), updates on ESD,
                                                   ML-optimized integration grids
   S Lehtola, MJT Oliveira, MAL Marques          : LibXC Library
   Liviu Ungur et al                             : ANISO software


 Your calculation uses the libint2 library for the computation of 2-el integrals
 For citations please refer to: http://libint.valeyev.net

 Your ORCA version has been built with support for libXC version: 5.1.0
 For citations please refer to: https://tddft.org/programs/libxc/

 This ORCA versions uses:
   CBLAS   interface :  Fast vector & matrix operations
   LAPACKE interface :  Fast linear algebra routines
   SCALAPACK package :  Parallel linear algebra routines
   Shared memory     :  Shared parallel matrices
   BLAS/LAPACK       :  OpenBLAS 0.3.15  USE64BITINT DYNAMIC_ARCH NO_AFFINITY SkylakeX SINGLE_THREADED
        Core in use  :  SkylakeX
   Copyright (c) 2011-2014, The OpenBLAS Project


================================================================================

----- Orbital basis set information -----
Your calculation utilizes the basis: cc-pVTZ 
       H, B-Ne : Obtained from the ccRepo (grant-hill.group.shef.ac.uk/ccrepo) Feb. 2017
                 T. H. Dunning, Jr., J. Chem. Phys. 90, 1007 (1989)
            He : Obtained from the ccRepo (grant-hill.group.shef.ac.uk/ccrepo) Feb. 2017
                 D. E. Woon, T. H. Dunning, Jr., J. Chem. Phys. 100, 2975 (1994)
  Li-Be, Na-Mg : Obtained from the ccRepo (grant-hill.group.shef.ac.uk/ccrepo) Feb. 2017
                 B. P. Prascher, D. E. Woon, K. A. Peterson, T. H. Dunning, Jr., A. K. Wilson, Theor. Chem. Acc. 128, 69 (2011)
         Al-Ar : Obtained from the ccRepo (grant-hill.group.shef.ac.uk/ccrepo) Feb. 2017
                 D. E. Woon, T. H. Dunning, Jr., J. Chem. Phys. 98, 1358 (1993)
            Ca : Obtained from the Peterson Research Group Website (tyr0.chem.wsu.edu/~kipeters) Feb. 2017
                 J. Koput, K. A. Peterson, J. Phys. Chem. 106, 9595 (2002)
         Sc-Zn : Obtained from the ccRepo (grant-hill.group.shef.ac.uk/ccrepo) Feb. 2017
                 N. B. Balabanov, K. A. Peterson, J. Chem. Phys. 123, 064107 (2005)
                 N. B. Balabanov, K. A. Peterson, J. Chem. Phys. 125, 074110 (2006)
         Ga-Kr : Obtained from the ccRepo (grant-hill.group.shef.ac.uk/ccrepo) Feb. 2017
                 A. K. Wilson, D. E. Woon, K. A. Peterson, T. H. Dunning, Jr., J. Chem. Phys. 110, 7667 (1999)
             Y : Obtained from the ccRepo (grant-hill.group.shef.ac.uk/ccrepo) Feb. 2017
                 K. A. Peterson, D. Figgen, M. Dolg, H. Stoll, J. Chem. Phys. 126, 124101 (2007)
        Ag, Au : Obtained from the Peterson Research Group Website (tyr0.chem.wsu.edu/~kipeters) Feb. 2017
                 K. A. Peterson, C. Puzzarini, Theor. Chem. Acc. 114, 283 (2005)

----- AuxC basis set information -----
Your calculation utilizes the auxiliary basis: cc-pVTZ/C 
  Obtained from the EMSL Basis Set Exchange (bse.pnl.gov) Feb. 2017
  H-He, B-F, Al-Ar, Ga-Kr : F. Weigend, A. Kohn, C. Hattig, J. Chem. Phys. 116, 3175 (2002)
             Li-Be, Na-Mg : C. Haettig, Phys. Chem. Chem. Phys. 7, 59 (2005)
                       Ne : C. Haettig, Phys. Chem. Chem. Phys. 7, 59 (2005)
                            F. Weigend, A. Kohn, C. Hattig, J. Chem. Phys. 116, 3175 (2002)
                    Sc-Zn : J. G. Hill, J. A. Platts, J. Chem. Phys. 128, 044104 (2008)

================================================================================
                                        WARNINGS
                       Please study these warnings very carefully!
================================================================================


WARNING: No MP2 level density has been requested!
         To caclulate MP2 level properties use
         %mp2 Density relaxed end
         or
         %mp2 Density unrelaxed end

WARNING: Post HF methods need fully converged wavefunctions
  ===> : Setting SCFConvForced true
         You can overwrite this default with %scf ConvForced false 


INFO   : the flag for use of the SHARK integral package has been found!

================================================================================
                                       INPUT FILE
================================================================================
NAME = qm_input.vacu
|  1> ! RI-MP2 cc-pVTZ cc-pVTZ/c TightSCF KeepDens NoKeepInts
|  2> 
|  3> *xyz  0  1
|  4>     C    10.7485664    5.1789785    2.6255568
|  5>     C    10.7877788    3.6293475    2.8049189
|  6>     O     9.9984599    3.0901979    1.7487977
|  7>     C     9.9797984    1.7131538    1.6002326
|  8>     O    10.2950912    0.8981405    2.4673370
|  9>     C     9.4234519    1.3773321    0.2887474
| 10>     C     8.6157254    2.1385460   -0.4618076
| 11>     C     8.1230015    3.5552848   -0.1940081
| 12>     N     8.1582022    1.6420520   -1.6619569
| 13>     C     8.4598717    0.4642669   -2.2204702
| 14>     S     7.7277049   -0.0484147   -3.6413580
| 15>     N     9.1661538   -0.3253835   -1.3748457
| 16>     C     9.8997763   -0.0115236   -0.1565926
| 17>     C    11.4074903   -0.1860281   -0.2731735
| 18>     C    12.0403583   -1.3105473    0.2314740
| 19>     C    13.3635565   -1.5203080    0.0032710
| 20>     C    14.0866993   -0.5530503   -0.7112493
| 21>     C    13.4781662    0.6640115   -1.1553626
| 22>     O    14.1327520    1.5215250   -1.9176589
| 23>     C    12.1381255    0.9002708   -0.8971461
| 24>     H    11.4033734    5.4442183    1.7864732
| 25>     H    11.1639496    5.7229073    3.4827545
| 26>     H     9.7359644    5.5835974    2.5067507
| 27>     H    11.8275638    3.2888956    2.8832135
| 28>     H    10.3689843    3.4157246    3.7959618
| 29>     H     7.4115528    3.9728823   -0.9169539
| 30>     H     9.0441372    4.1415417   -0.2989008
| 31>     H     7.6375188    3.7097117    0.7774076
| 32>     H     7.7180705    2.3122429   -2.2809032
| 33>     H     9.3734928   -1.2604966   -1.7043006
| 34>     H     9.5692714   -0.6608656    0.6633571
| 35>     H    11.4763383   -2.1051196    0.7109866
| 36>     H    13.7910101   -2.4854297    0.2586703
| 37>     H    15.1097779   -0.7814711   -0.9950278
| 38>     H    13.5019301    2.2493975   -2.0554789
| 39>     H    11.5679777    1.6951670   -1.3688106
| 40> *
| 41> 
| 42>                          ****END OF INPUT****
================================================================================

                       ****************************
                       * Single Point Calculation *
                       ****************************

---------------------------------
CARTESIAN COORDINATES (ANGSTROEM)
---------------------------------
  C     10.748566    5.178978    2.625557
  C     10.787779    3.629348    2.804919
  O      9.998460    3.090198    1.748798
  C      9.979798    1.713154    1.600233
  O     10.295091    0.898141    2.467337
  C      9.423452    1.377332    0.288747
  C      8.615725    2.138546   -0.461808
  C      8.123002    3.555285   -0.194008
  N      8.158202    1.642052   -1.661957
  C      8.459872    0.464267   -2.220470
  S      7.727705   -0.048415   -3.641358
  N      9.166154   -0.325383   -1.374846
  C      9.899776   -0.011524   -0.156593
  C     11.407490   -0.186028   -0.273174
  C     12.040358   -1.310547    0.231474
  C     13.363556   -1.520308    0.003271
  C     14.086699   -0.553050   -0.711249
  C     13.478166    0.664011   -1.155363
  O     14.132752    1.521525   -1.917659
  C     12.138125    0.900271   -0.897146
  H     11.403373    5.444218    1.786473
  H     11.163950    5.722907    3.482754
  H      9.735964    5.583597    2.506751
  H     11.827564    3.288896    2.883214
  H     10.368984    3.415725    3.795962
  H      7.411553    3.972882   -0.916954
  H      9.044137    4.141542   -0.298901
  H      7.637519    3.709712    0.777408
  H      7.718070    2.312243   -2.280903
  H      9.373493   -1.260497   -1.704301
  H      9.569271   -0.660866    0.663357
  H     11.476338   -2.105120    0.710987
  H     13.791010   -2.485430    0.258670
  H     15.109778   -0.781471   -0.995028
  H     13.501930    2.249398   -2.055479
  H     11.567978    1.695167   -1.368811

----------------------------
CARTESIAN COORDINATES (A.U.)
----------------------------
  NO LB      ZA    FRAG     MASS         X           Y           Z
   0 C     6.0000    0    12.011   20.311847    9.786851    4.961583
   1 C     6.0000    0    12.011   20.385948    6.858473    5.300529
   2 O     8.0000    0    15.999   18.894351    5.839628    3.304749
   3 C     6.0000    0    12.011   18.859086    3.237392    3.024001
   4 O     8.0000    0    15.999   19.454903    1.697240    4.662591
   5 C     6.0000    0    12.011   17.807743    2.602780    0.545654
   6 C     6.0000    0    12.011   16.281361    4.041266   -0.872690
   7 C     6.0000    0    12.011   15.350248    6.718515   -0.366622
   8 N     7.0000    0    14.007   15.416768    3.103029   -3.140643
   9 C     6.0000    0    12.011   15.986841    0.877337   -4.196081
  10 S    16.0000    0    32.060   14.603246   -0.091491   -6.881169
  11 N     7.0000    0    14.007   17.321520   -0.614886   -2.598082
  12 C     6.0000    0    12.011   18.707866   -0.021776   -0.295917
  13 C     6.0000    0    12.011   21.557033   -0.351542   -0.516223
  14 C     6.0000    0    12.011   22.752980   -2.476575    0.437422
  15 C     6.0000    0    12.011   25.253462   -2.872966    0.006181
  16 C     6.0000    0    12.011   26.620004   -1.045114   -1.344066
  17 C     6.0000    0    12.011   25.470043    1.254800   -2.183319
  18 O     8.0000    0    15.999   26.707031    2.875266   -3.623850
  19 C     6.0000    0    12.011   22.937733    1.701265   -1.695360
  20 H     1.0000    0     1.008   21.549253   10.288082    3.375945
  21 H     1.0000    0     1.008   21.096807   10.814727    6.581452
  22 H     1.0000    0     1.008   18.398306   10.551470    4.737072
  23 H     1.0000    0     1.008   22.350856    6.215112    5.448484
  24 H     1.0000    0     1.008   19.594541    6.454784    7.173328
  25 H     1.0000    0     1.008   14.005805    7.507660   -1.732792
  26 H     1.0000    0     1.008   17.090942    7.826380   -0.564841
  27 H     1.0000    0     1.008   14.432819    7.010339    1.469087
  28 H     1.0000    0     1.008   14.585040    4.369506   -4.310282
  29 H     1.0000    0     1.008   17.713334   -2.381993   -3.220661
  30 H     1.0000    0     1.008   18.083302   -1.248855    1.253563
  31 H     1.0000    0     1.008   21.687136   -3.978100    1.343570
  32 H     1.0000    0     1.008   26.061232   -4.696781    0.488816
  33 H     1.0000    0     1.008   28.553342   -1.476766   -1.880330
  34 H     1.0000    0     1.008   25.514950    4.250745   -3.884292
  35 H     1.0000    0     1.008   21.860310    3.203401   -2.586677

--------------------------------
INTERNAL COORDINATES (ANGSTROEM)
--------------------------------
 C      0   0   0     0.000000000000     0.00000000     0.00000000
 C      1   0   0     1.560469356121     0.00000000     0.00000000
 O      2   1   0     1.424464322532   106.06457881     0.00000000
 C      3   2   1     1.385160746580   117.59771962   173.64056437
 O      4   3   2     1.231067126280   125.39170405    19.29893385
 C      4   3   2     1.463656746670   109.22754203   194.74296099
 C      6   4   3     1.339851300847   126.92235919   336.91966758
 C      7   6   4     1.523693617909   128.66340009     3.29017997
 N      7   6   4     1.377022916608   118.92606339   181.72550558
 C      9   7   6     1.337953412974   127.32241602   357.69109231
 S     10   9   7     1.678640159829   121.59098385   175.34434386
 N     10   9   7     1.355530506481   111.70759732     8.33603051
 C     12  10   9     1.456314054383   131.20713887   343.15828415
 C     13  12  10     1.522249793090   114.21559353   247.29376440
 C     14  13  12     1.385544815532   121.16796416   259.09857499
 C     15  14  13     1.359017894274   120.58631136   173.28762896
 C     16  15  14     1.403232777024   118.74211211     2.28089373
 C     17  16  15     1.431358998313   121.66843961     2.49087711
 O     18  17  16     1.320949515022   121.35581735   185.45460704
 C     18  17  16     1.384992164370   119.90371230   359.11152199
 H      1   2   3     1.096898193335   108.24337669   284.69229212
 H      1   2   3     1.096900013309   113.14720158   169.27014569
 H      1   2   3     1.096902071307   113.70069658    50.18181006
 H      2   1   3     1.096900354101   109.89180198   127.88260052
 H      2   1   3     1.096899998302   106.71752159   239.71025339
 H      8   7   6     1.096903621325   116.60804776   183.69085107
 H      8   7   6     1.096900455431   102.03946387    68.54314316
 H      8   7   6     1.096899987077   115.44706360   306.33186649
 H      9   7   6     1.012899934876   116.00084773   192.46090874
 H     12  10   9     1.012900045338   116.20288914   175.73459177
 H     13  12  10     1.096902927527   110.24000175   127.14910377
 H     15  14  13     1.086000015601   121.15862273     0.91428021
 H     16  15  14     1.086004271817   118.74453576   190.55693247
 H     17  16  15     1.086000055577   118.26530917   187.37693247
 H     19  18  17     0.972999999063   104.24614827   180.84731494
 H     20  18  17     1.085999946215   123.49370165   192.71122996

---------------------------
INTERNAL COORDINATES (A.U.)
---------------------------
 C      0   0   0     0.000000000000     0.00000000     0.00000000
 C      1   0   0     2.948859723444     0.00000000     0.00000000
 O      2   1   0     2.691847457127   106.06457881     0.00000000
 C      3   2   1     2.617574462493   117.59771962   173.64056437
 O      4   3   2     2.326379721143   125.39170405    19.29893385
 C      4   3   2     2.765910405272   109.22754203   194.74296099
 C      6   4   3     2.531952018778   126.92235919   336.91966758
 C      7   6   4     2.879363649852   128.66340009     3.29017997
 N      7   6   4     2.602196192523   118.92606339   181.72550558
 C      9   7   6     2.528365530466   127.32241602   357.69109231
 S     10   9   7     3.172170179478   121.59098385   175.34434386
 N     10   9   7     2.561581423425   111.70759732     8.33603051
 C     12  10   9     2.752034727765   131.20713887   343.15828415
 C     13  12  10     2.876635216357   114.21559353   247.29376440
 C     14  13  12     2.618300247631   121.16796416   259.09857499
 C     15  14  13     2.568171631276   120.58631136   173.28762896
 C     16  15  14     2.651725650716   118.74211211     2.28089373
 C     17  16  15     2.704876506136   121.66843961     2.49087711
 O     18  17  16     2.496232820128   121.35581735   185.45460704
 C     18  17  16     2.617255888285   119.90371230   359.11152199
 H      1   2   3     2.072837182197   108.24337669   284.69229212
 H      1   2   3     2.072840621448   113.14720158   169.27014569
 H      1   2   3     2.072844510502   113.70069658    50.18181006
 H      2   1   3     2.072841265453   109.89180198   127.88260052
 H      2   1   3     2.072840593090   106.71752159   239.71025339
 H      8   7   6     2.072847439610   116.60804776   183.69085107
 H      8   7   6     2.072841456939   102.03946387    68.54314316
 H      8   7   6     2.072840571877   115.44706360   306.33186649
 H      9   7   6     1.914103477982   116.00084773   192.46090874
 H     12  10   9     1.914103686726   116.20288914   175.73459177
 H     13  12  10     2.072846128523   110.24000175   127.14910377
 H     15  14  13     2.052242610921   121.15862273     0.91428021
 H     16  15  14     2.052250654002   118.74453576   190.55693247
 H     17  16  15     2.052242686463   118.26530917   187.37693247
 H     19  18  17     1.838703526534   104.24614827   180.84731494
 H     20  18  17     2.052242479800   123.49370165   192.71122996

---------------------
BASIS SET INFORMATION
---------------------
There are 5 groups of distinct atoms

 Group   1 Type C   : 18s5p2d1f contracted to 4s3p2d1f pattern {8811/311/11/1}
 Group   2 Type O   : 18s5p2d1f contracted to 4s3p2d1f pattern {8811/311/11/1}
 Group   3 Type N   : 18s5p2d1f contracted to 4s3p2d1f pattern {8811/311/11/1}
 Group   4 Type S   : 41s16p2d1f contracted to 5s4p2d1f pattern {13131311/7711/11/1}
 Group   5 Type H   : 5s2p1d contracted to 3s2p1d pattern {311/11/1}

Atom   0C    basis set group =>   1
Atom   1C    basis set group =>   1
Atom   2O    basis set group =>   2
Atom   3C    basis set group =>   1
Atom   4O    basis set group =>   2
Atom   5C    basis set group =>   1
Atom   6C    basis set group =>   1
Atom   7C    basis set group =>   1
Atom   8N    basis set group =>   3
Atom   9C    basis set group =>   1
Atom  10S    basis set group =>   4
Atom  11N    basis set group =>   3
Atom  12C    basis set group =>   1
Atom  13C    basis set group =>   1
Atom  14C    basis set group =>   1
Atom  15C    basis set group =>   1
Atom  16C    basis set group =>   1
Atom  17C    basis set group =>   1
Atom  18O    basis set group =>   2
Atom  19C    basis set group =>   1
Atom  20H    basis set group =>   5
Atom  21H    basis set group =>   5
Atom  22H    basis set group =>   5
Atom  23H    basis set group =>   5
Atom  24H    basis set group =>   5
Atom  25H    basis set group =>   5
Atom  26H    basis set group =>   5
Atom  27H    basis set group =>   5
Atom  28H    basis set group =>   5
Atom  29H    basis set group =>   5
Atom  30H    basis set group =>   5
Atom  31H    basis set group =>   5
Atom  32H    basis set group =>   5
Atom  33H    basis set group =>   5
Atom  34H    basis set group =>   5
Atom  35H    basis set group =>   5
---------------------------------
AUXILIARY/C BASIS SET INFORMATION
---------------------------------
There are 5 groups of distinct atoms

 Group   1 Type C   : 8s6p5d3f1g contracted to 8s6p5d3f1g pattern {11111111/111111/11111/111/1}
 Group   2 Type O   : 8s6p5d3f1g contracted to 8s6p5d3f1g pattern {11111111/111111/11111/111/1}
 Group   3 Type N   : 8s6p5d3f1g contracted to 8s6p5d3f1g pattern {11111111/111111/11111/111/1}
 Group   4 Type S   : 10s8p7d5f2g contracted to 10s8p7d5f2g pattern {1111111111/11111111/1111111/11111/11}
 Group   5 Type H   : 4s3p2d1f contracted to 4s3p2d1f pattern {1111/111/11/1}

Atom   0C    basis set group =>   1
Atom   1C    basis set group =>   1
Atom   2O    basis set group =>   2
Atom   3C    basis set group =>   1
Atom   4O    basis set group =>   2
Atom   5C    basis set group =>   1
Atom   6C    basis set group =>   1
Atom   7C    basis set group =>   1
Atom   8N    basis set group =>   3
Atom   9C    basis set group =>   1
Atom  10S    basis set group =>   4
Atom  11N    basis set group =>   3
Atom  12C    basis set group =>   1
Atom  13C    basis set group =>   1
Atom  14C    basis set group =>   1
Atom  15C    basis set group =>   1
Atom  16C    basis set group =>   1
Atom  17C    basis set group =>   1
Atom  18O    basis set group =>   2
Atom  19C    basis set group =>   1
Atom  20H    basis set group =>   5
Atom  21H    basis set group =>   5
Atom  22H    basis set group =>   5
Atom  23H    basis set group =>   5
Atom  24H    basis set group =>   5
Atom  25H    basis set group =>   5
Atom  26H    basis set group =>   5
Atom  27H    basis set group =>   5
Atom  28H    basis set group =>   5
Atom  29H    basis set group =>   5
Atom  30H    basis set group =>   5
Atom  31H    basis set group =>   5
Atom  32H    basis set group =>   5
Atom  33H    basis set group =>   5
Atom  34H    basis set group =>   5
Atom  35H    basis set group =>   5
------------------------------------------------------------------------------
                           ORCA GTO INTEGRAL CALCULATION
------------------------------------------------------------------------------
------------------------------------------------------------------------------
                   ___                                                        
                  /   \      - P O W E R E D   B Y -                         
                 /     \                                                     
                 |  |  |   _    _      __       _____    __    __             
                 |  |  |  | |  | |    /  \     |  _  \  |  |  /  |          
                  \  \/   | |  | |   /    \    | | | |  |  | /  /          
                 / \  \   | |__| |  /  /\  \   | |_| |  |  |/  /          
                |  |  |   |  __  | /  /__\  \  |    /   |      \           
                |  |  |   | |  | | |   __   |  |    \   |  |\   \          
                \     /   | |  | | |  |  |  |  | |\  \  |  | \   \       
                 \___/    |_|  |_| |__|  |__|  |_| \__\ |__|  \__/        
                                                                              
                      - O R C A' S   B I G   F R I E N D -                    
                                      &                                       
                       - I N T E G R A L  F E E D E R -                       
                                                                              
 v1 FN, 2020, v2 2021                                                         
------------------------------------------------------------------------------


Reading SHARK input file qm_input.vacu.SHARKINP.tmp ... ok
----------------------
SHARK INTEGRAL PACKAGE
----------------------

Number of atoms                             ...     36
Number of basis functions                   ...    828
Number of shells                            ...    298
Maximum angular momentum                    ...      3
Integral batch strategy                     ... SHARK/LIBINT Hybrid
RI-J (if used) integral strategy            ... SPLIT-RIJ (Revised 2003 algorithm where possible)
Printlevel                                  ...      1
Contraction scheme used                     ... SEGMENTED contraction
Coulomb Range Separation                    ... NOT USED
Exchange Range Separation                   ... NOT USED
Finite Nucleus Model                        ... NOT USED
Auxiliary Coulomb fitting basis             ... NOT available
Auxiliary J/K fitting basis                 ... NOT available
Auxiliary Correlation fitting basis         ... AVAILABLE
   # of basis functions in Aux-C            ...   2141
   # of shells in Aux-C                     ...    629
   Maximum angular momentum in Aux-C        ...      4
Auxiliary 'external' fitting basis          ... NOT available
Integral threshold                          ...     2.500000e-11
Primitive cut-off                           ...     2.500000e-12
Primitive pair pre-selection threshold      ...     2.500000e-12

Calculating pre-screening integrals         ... done (  0.6 sec) Dimension = 298
Organizing shell pair data                  ... done (  0.4 sec)
Shell pair information
Total number of shell pairs                 ...     44551
Shell pairs after pre-screening             ...     32622
Total number of primitive shell pairs       ...    234348
Primitive shell pairs kept                  ...     93867
          la=0 lb=0:   6536 shell pairs
          la=1 lb=0:   9100 shell pairs
          la=1 lb=1:   3227 shell pairs
          la=2 lb=0:   5192 shell pairs
          la=2 lb=1:   3554 shell pairs
          la=2 lb=2:    997 shell pairs
          la=3 lb=0:   1878 shell pairs
          la=3 lb=1:   1278 shell pairs
          la=3 lb=2:    718 shell pairs
          la=3 lb=3:    142 shell pairs

Calculating one electron integrals          ... done (  0.4 sec)
Calculating RI/C V-Matrix + Cholesky decomp.... done (  0.4 sec)
Calculating Nuclear repulsion               ... done (  0.0 sec) ENN=   1693.722984954210 Eh

SHARK setup successfully completed in   1.9 seconds

Maximum memory used throughout the entire GTOINT-calculation: 479.9 MB
-------------------------------------------------------------------------------
                                 ORCA SCF
-------------------------------------------------------------------------------

------------
SCF SETTINGS
------------
Hamiltonian:
 Ab initio Hamiltonian  Method          .... Hartree-Fock(GTOs)


General Settings:
 Integral files         IntName         .... qm_input.vacu
 Hartree-Fock type      HFTyp           .... RHF
 Total Charge           Charge          ....    0
 Multiplicity           Mult            ....    1
 Number of Electrons    NEL             ....  154
 Basis Dimension        Dim             ....  828
 Nuclear Repulsion      ENuc            ....   1693.7229849542 Eh

Convergence Acceleration:
 DIIS                   CNVDIIS         .... on
   Start iteration      DIISMaxIt       ....    12
   Startup error        DIISStart       ....  0.200000
   # of expansion vecs  DIISMaxEq       ....     5
   Bias factor          DIISBfac        ....   1.050
   Max. coefficient     DIISMaxC        ....  10.000
 Trust-Rad. Augm. Hess. CNVTRAH         .... auto
   Auto Start mean grad. ratio tolernc. ....  1.125000
   Auto Start start iteration           ....    20
   Auto Start num. interpolation iter.  ....    10
   Max. Number of Micro iterations      ....    16
   Max. Number of Macro iterations      .... Maxiter - #DIIS iter
   Number of Davidson start vectors     ....     2
   Converg. threshold I  (grad. norm)   ....   1.000e-05
   Converg. threshold II (energy diff.) ....   1.000e-08
   Grad. Scal. Fac. for Micro threshold ....   0.100
   Minimum threshold for Micro iter.    ....   0.010
   NR start threshold (gradient norm)   ....   0.001
   Initial trust radius                 ....   0.400
   Minimum AH scaling param. (alpha)    ....   1.000
   Maximum AH scaling param. (alpha)    .... 1000.000
   Orbital update algorithm             .... Taylor
   White noise on init. David. guess    .... on
   Maximum white noise                  ....   0.010
   Quad. conv. algorithm                .... NR
 SOSCF                  CNVSOSCF        .... on
   Start iteration      SOSCFMaxIt      ....   150
   Startup grad/error   SOSCFStart      ....  0.003300
 Level Shifting         CNVShift        .... on
   Level shift para.    LevelShift      ....    0.2500
   Turn off err/grad.   ShiftErr        ....    0.0010
 Zerner damping         CNVZerner       .... off
 Static damping         CNVDamp         .... on
   Fraction old density DampFac         ....    0.7000
   Max. Damping (<1)    DampMax         ....    0.9800
   Min. Damping (>=0)   DampMin         ....    0.0000
   Turn off err/grad.   DampErr         ....    0.1000
 Fernandez-Rico         CNVRico         .... off

SCF Procedure:
 Maximum # iterations   MaxIter         ....   125
 SCF integral mode      SCFMode         .... Direct
   Integral package                     .... SHARK and LIBINT hybrid scheme
 Reset frequency        DirectResetFreq ....    20
 Integral Threshold     Thresh          ....  2.500e-11 Eh
 Primitive CutOff       TCut            ....  2.500e-12 Eh

Convergence Tolerance:
 Convergence Check Mode ConvCheckMode   .... Total+1el-Energy
 Convergence forced     ConvForced      .... 1
 Energy Change          TolE            ....  1.000e-08 Eh
 1-El. energy change                    ....  1.000e-05 Eh
 Orbital Gradient       TolG            ....  1.000e-05
 Orbital Rotation angle TolX            ....  1.000e-05
 DIIS Error             TolErr          ....  5.000e-07


Diagonalization of the overlap matrix:
Smallest eigenvalue                        ... 4.070e-05
Time for diagonalization                   ...    0.148 sec
Threshold for overlap eigenvalues          ... 1.000e-08
Number of eigenvalues below threshold      ... 0
Time for construction of square roots      ...    0.064 sec
Total time needed                          ...    0.215 sec

Time for model grid setup =    1.431 sec

------------------------------
INITIAL GUESS: MODEL POTENTIAL
------------------------------
Loading Hartree-Fock densities                     ... done
Calculating cut-offs                               ... done
Initializing the effective Hamiltonian             ... done
Setting up the integral package (SHARK)            ... done
Starting the Coulomb interaction                   ... done (   4.5 sec)
Reading the grid                                   ... done
Mapping shells                                     ... done
Starting the XC term evaluation                    ... done (   1.5 sec)
Transforming the Hamiltonian                       ... done (   0.1 sec)
Diagonalizing the Hamiltonian                      ... done (   0.1 sec)
Back transforming the eigenvectors                 ... done (   0.0 sec)
Now organizing SCF variables                       ... done
                      ------------------
                      INITIAL GUESS DONE (   7.7 sec)
                      ------------------
--------------
SCF ITERATIONS
--------------
ITER       Energy         Delta-E        Max-DP      RMS-DP      [F,P]     Damp
               ***  Starting incremental Fock matrix formation  ***
  0  -1269.9731217603   0.000000000000 0.04923929  0.00044128  0.3127740 0.7000
  1  -1270.2442056648  -0.271083904516 0.03678226  0.00035858  0.1859132 0.7000
                               ***Turning on DIIS***
  2  -1270.4132592085  -0.169053543609 0.02579605  0.00024029  0.1099676 0.7000
  3  -1272.5235244312  -2.110265222723 0.06302387  0.00051913  0.0829815 0.0000
  4  -1270.7243581993   1.799166231858 0.01502080  0.00010823  0.0071038 0.0000
  5  -1270.7869044216  -0.062546222259 0.00509972  0.00005529  0.0044076 0.0000
  6  -1270.7650373607   0.021867060835 0.00182885  0.00002729  0.0035980 0.0000
                      *** Initiating the SOSCF procedure ***
                           *** Shutting down DIIS ***
                      *** Re-Reading the Fockian *** 
                      *** Removing any level shift *** 
ITER      Energy       Delta-E        Grad      Rot      Max-DP    RMS-DP
  7  -1270.78050316  -0.0154658020  0.001133  0.001133  0.001271  0.000015
               *** Restarting incremental Fock matrix formation ***
  8  -1270.78053994  -0.0000367799  0.000578  0.001480  0.000696  0.000008
  9  -1270.78055680  -0.0000168616  0.000261  0.001718  0.000914  0.000011
 10  -1270.78056422  -0.0000074165  0.000083  0.000129  0.000198  0.000002
 11  -1270.78056486  -0.0000006414  0.000040  0.000084  0.000075  0.000001
 12  -1270.78056501  -0.0000001487  0.000011  0.000037  0.000036  0.000000
 13  -1270.78056503  -0.0000000231  0.000007  0.000029  0.000015  0.000000
 14  -1270.78056504  -0.0000000070  0.000003  0.000008  0.000003  0.000000
                  ***Gradient check signals convergence***
              ***Rediagonalizing the Fockian in SOSCF/NRSCF***

               *****************************************************
               *                     SUCCESS                       *
               *           SCF CONVERGED AFTER  15 CYCLES          *
               *****************************************************


----------------
TOTAL SCF ENERGY
----------------

Total Energy       :        -1270.78056503 Eh          -34579.69717 eV

Components:
Nuclear Repulsion  :         1693.72298495 Eh           46088.54552 eV
Electronic Energy  :        -2964.50354999 Eh          -80668.24269 eV
One Electron Energy:        -5108.00729409 Eh         -138995.94489 eV
Two Electron Energy:         2143.50374410 Eh           58327.70220 eV

Virial components:
Potential Energy   :        -2540.11598806 Eh          -69120.07003 eV
Kinetic Energy     :         1269.33542303 Eh           34540.37286 eV
Virial Ratio       :            2.00113850


---------------
SCF CONVERGENCE
---------------

  Last Energy change         ...    9.1391e-09  Tolerance :   1.0000e-08
  Last MAX-Density change    ...    3.5186e-06  Tolerance :   1.0000e-07
  Last RMS-Density change    ...    3.1855e-08  Tolerance :   5.0000e-09
  Last Orbital Gradient      ...    8.8339e-07  Tolerance :   1.0000e-05
  Last Orbital Rotation      ...    2.7605e-06  Tolerance :   1.0000e-05

             **** THE GBW FILE WAS UPDATED (qm_input.vacu.gbw) ****
             **** DENSITY qm_input.vacu.scfp WAS UPDATED ****
             **** ENERGY FILE WAS UPDATED (qm_input.vacu.en.tmp) ****
             **** THE GBW FILE WAS UPDATED (qm_input.vacu.gbw) ****
             **** DENSITY qm_input.vacu.scfp WAS UPDATED ****
----------------
ORBITAL ENERGIES
----------------

  NO   OCC          E(Eh)            E(eV) 
   0   2.0000     -91.890775     -2500.4751 
   1   2.0000     -20.611078      -560.8559 
   2   2.0000     -20.602694      -560.6278 
   3   2.0000     -20.555574      -559.3456 
   4   2.0000     -15.627289      -425.2401 
   5   2.0000     -15.607860      -424.7115 
   6   2.0000     -11.397993      -310.1552 
   7   2.0000     -11.384434      -309.7862 
   8   2.0000     -11.335244      -308.4477 
   9   2.0000     -11.317678      -307.9697 
  10   2.0000     -11.303758      -307.5909 
  11   2.0000     -11.300760      -307.5093 
  12   2.0000     -11.263610      -306.4984 
  13   2.0000     -11.263024      -306.4825 
  14   2.0000     -11.253877      -306.2336 
  15   2.0000     -11.248328      -306.0826 
  16   2.0000     -11.243739      -305.9577 
  17   2.0000     -11.240817      -305.8782 
  18   2.0000     -11.236737      -305.7672 
  19   2.0000     -11.230077      -305.5859 
  20   2.0000      -8.894839      -242.0409 
  21   2.0000      -6.576350      -178.9516 
  22   2.0000      -6.574337      -178.8968 
  23   2.0000      -6.573794      -178.8820 
  24   2.0000      -1.453292       -39.5461 
  25   2.0000      -1.438637       -39.1473 
  26   2.0000      -1.362310       -37.0703 
  27   2.0000      -1.359256       -36.9872 
  28   2.0000      -1.244495       -33.8644 
  29   2.0000      -1.161707       -31.6116 
  30   2.0000      -1.130807       -30.7708 
  31   2.0000      -1.044754       -28.4292 
  32   2.0000      -1.039145       -28.2766 
  33   2.0000      -1.022666       -27.8281 
  34   2.0000      -1.003026       -27.2937 
  35   2.0000      -0.983114       -26.7519 
  36   2.0000      -0.929391       -25.2900 
  37   2.0000      -0.892166       -24.2771 
  38   2.0000      -0.860600       -23.4181 
  39   2.0000      -0.853063       -23.2130 
  40   2.0000      -0.831340       -22.6219 
  41   2.0000      -0.819083       -22.2884 
  42   2.0000      -0.760989       -20.7076 
  43   2.0000      -0.750993       -20.4356 
  44   2.0000      -0.743634       -20.2353 
  45   2.0000      -0.704997       -19.1839 
  46   2.0000      -0.686255       -18.6740 
  47   2.0000      -0.678866       -18.4729 
  48   2.0000      -0.677758       -18.4427 
  49   2.0000      -0.665284       -18.1033 
  50   2.0000      -0.653036       -17.7700 
  51   2.0000      -0.645163       -17.5558 
  52   2.0000      -0.640597       -17.4315 
  53   2.0000      -0.624394       -16.9906 
  54   2.0000      -0.612238       -16.6598 
  55   2.0000      -0.606852       -16.5133 
  56   2.0000      -0.597407       -16.2563 
  57   2.0000      -0.584287       -15.8993 
  58   2.0000      -0.580881       -15.8066 
  59   2.0000      -0.566620       -15.4185 
  60   2.0000      -0.555899       -15.1268 
  61   2.0000      -0.551855       -15.0167 
  62   2.0000      -0.538595       -14.6559 
  63   2.0000      -0.527655       -14.3582 
  64   2.0000      -0.518638       -14.1129 
  65   2.0000      -0.509144       -13.8545 
  66   2.0000      -0.506927       -13.7942 
  67   2.0000      -0.505050       -13.7431 
  68   2.0000      -0.486866       -13.2483 
  69   2.0000      -0.464482       -12.6392 
  70   2.0000      -0.462536       -12.5862 
  71   2.0000      -0.456261       -12.4155 
  72   2.0000      -0.357740        -9.7346 
  73   2.0000      -0.348115        -9.4727 
  74   2.0000      -0.328904        -8.9499 
  75   2.0000      -0.322029        -8.7628 
  76   2.0000      -0.315453        -8.5839 
  77   0.0000       0.075429         2.0525 
  78   0.0000       0.096123         2.6156 
  79   0.0000       0.109240         2.9726 
  80   0.0000       0.133176         3.6239 
  81   0.0000       0.135785         3.6949 
  82   0.0000       0.142123         3.8674 
  83   0.0000       0.146326         3.9817 
  84   0.0000       0.159268         4.3339 
  85   0.0000       0.161577         4.3967 
  86   0.0000       0.170809         4.6479 
  87   0.0000       0.173111         4.7106 
  88   0.0000       0.178225         4.8498 
  89   0.0000       0.190399         5.1810 
  90   0.0000       0.198835         5.4106 
  91   0.0000       0.200693         5.4611 
  92   0.0000       0.211670         5.7598 
  93   0.0000       0.219305         5.9676 
  94   0.0000       0.225494         6.1360 
  95   0.0000       0.233935         6.3657 
  96   0.0000       0.240661         6.5487 
  97   0.0000       0.245253         6.6737 
  98   0.0000       0.251039         6.8311 
  99   0.0000       0.267679         7.2839 
 100   0.0000       0.296027         8.0553 
 101   0.0000       0.307005         8.3540 
 102   0.0000       0.314155         8.5486 
 103   0.0000       0.320440         8.7196 
 104   0.0000       0.329025         8.9532 
 105   0.0000       0.334316         9.0972 
 106   0.0000       0.334951         9.1145 
 107   0.0000       0.345627         9.4050 
 108   0.0000       0.351896         9.5756 
 109   0.0000       0.364743         9.9252 
 110   0.0000       0.375974        10.2308 
 111   0.0000       0.386425        10.5152 
 112   0.0000       0.389870        10.6089 
 113   0.0000       0.395429        10.7602 
 114   0.0000       0.399870        10.8810 
 115   0.0000       0.402445        10.9511 
 116   0.0000       0.407378        11.0853 
 117   0.0000       0.415916        11.3176 
 118   0.0000       0.424855        11.5609 
 119   0.0000       0.433667        11.8007 
 120   0.0000       0.434955        11.8357 
 121   0.0000       0.442195        12.0327 
 122   0.0000       0.449909        12.2427 
 123   0.0000       0.461658        12.5623 
 124   0.0000       0.463516        12.6129 
 125   0.0000       0.465912        12.6781 
 126   0.0000       0.474907        12.9229 
 127   0.0000       0.477283        12.9875 
 128   0.0000       0.485209        13.2032 
 129   0.0000       0.489884        13.3304 
 130   0.0000       0.493361        13.4250 
 131   0.0000       0.498937        13.5768 
 132   0.0000       0.503765        13.7081 
 133   0.0000       0.513252        13.9663 
 134   0.0000       0.516396        14.0518 
 135   0.0000       0.522327        14.2133 
 136   0.0000       0.534417        14.5422 
 137   0.0000       0.537318        14.6212 
 138   0.0000       0.543635        14.7931 
 139   0.0000       0.550273        14.9737 
 140   0.0000       0.553807        15.0698 
 141   0.0000       0.558212        15.1897 
 142   0.0000       0.563961        15.3462 
 143   0.0000       0.568098        15.4587 
 144   0.0000       0.571412        15.5489 
 145   0.0000       0.573688        15.6109 
 146   0.0000       0.580915        15.8075 
 147   0.0000       0.582309        15.8454 
 148   0.0000       0.589035        16.0285 
 149   0.0000       0.593390        16.1470 
 150   0.0000       0.594359        16.1733 
 151   0.0000       0.601948        16.3798 
 152   0.0000       0.607193        16.5226 
 153   0.0000       0.613969        16.7069 
 154   0.0000       0.618496        16.8301 
 155   0.0000       0.621100        16.9010 
 156   0.0000       0.629863        17.1394 
 157   0.0000       0.631531        17.1848 
 158   0.0000       0.633497        17.2383 
 159   0.0000       0.643841        17.5198 
 160   0.0000       0.645121        17.5546 
 161   0.0000       0.646786        17.5999 
 162   0.0000       0.650694        17.7063 
 163   0.0000       0.653278        17.7766 
 164   0.0000       0.660155        17.9637 
 165   0.0000       0.666781        18.1440 
 166   0.0000       0.670672        18.2499 
 167   0.0000       0.672095        18.2886 
 168   0.0000       0.679353        18.4861 
 169   0.0000       0.685772        18.6608 
 170   0.0000       0.696937        18.9646 
 171   0.0000       0.700261        19.0551 
 172   0.0000       0.711163        19.3517 
 173   0.0000       0.713119        19.4050 
 174   0.0000       0.715513        19.4701 
 175   0.0000       0.725344        19.7376 
 176   0.0000       0.730620        19.8812 
 177   0.0000       0.740246        20.1431 
 178   0.0000       0.746402        20.3106 
 179   0.0000       0.763404        20.7733 
 180   0.0000       0.764598        20.8058 
 181   0.0000       0.769057        20.9271 
 182   0.0000       0.780628        21.2420 
 183   0.0000       0.786467        21.4009 
 184   0.0000       0.791468        21.5370 
 185   0.0000       0.800799        21.7908 
 186   0.0000       0.802742        21.8437 
 187   0.0000       0.814933        22.1754 
 188   0.0000       0.820361        22.3232 
 189   0.0000       0.821762        22.3613 
 190   0.0000       0.830224        22.5915 
 191   0.0000       0.840989        22.8845 
 192   0.0000       0.847035        23.0490 
 193   0.0000       0.856710        23.3123 
 194   0.0000       0.864697        23.5296 
 195   0.0000       0.872508        23.7421 
 196   0.0000       0.882475        24.0134 
 197   0.0000       0.895350        24.3637 
 198   0.0000       0.899956        24.4890 
 199   0.0000       0.906783        24.6748 
 200   0.0000       0.910087        24.7647 
 201   0.0000       0.919462        25.0198 
 202   0.0000       0.928892        25.2764 
 203   0.0000       0.934039        25.4165 
 204   0.0000       0.938233        25.5306 
 205   0.0000       0.940519        25.5928 
 206   0.0000       0.950590        25.8669 
 207   0.0000       0.957109        26.0443 
 208   0.0000       0.964566        26.2472 
 209   0.0000       0.972258        26.4565 
 210   0.0000       0.980904        26.6918 
 211   0.0000       0.984115        26.7791 
 212   0.0000       0.987412        26.8689 
 213   0.0000       0.992029        26.9945 
 214   0.0000       0.999278        27.1917 
 215   0.0000       1.003372        27.3031 
 216   0.0000       1.015610        27.6362 
 217   0.0000       1.025505        27.9054 
 218   0.0000       1.034353        28.1462 
 219   0.0000       1.040139        28.3036 
 220   0.0000       1.049601        28.5611 
 221   0.0000       1.051848        28.6222 
 222   0.0000       1.065745        29.0004 
 223   0.0000       1.076419        29.2908 
 224   0.0000       1.080614        29.4050 
 225   0.0000       1.087261        29.5859 
 226   0.0000       1.097879        29.8748 
 227   0.0000       1.101587        29.9757 
 228   0.0000       1.109095        30.1800 
 229   0.0000       1.113249        30.2931 
 230   0.0000       1.118376        30.4325 
 231   0.0000       1.123594        30.5745 
 232   0.0000       1.130346        30.7583 
 233   0.0000       1.137410        30.9505 
 234   0.0000       1.143866        31.1262 
 235   0.0000       1.153569        31.3902 
 236   0.0000       1.168961        31.8091 
 237   0.0000       1.169355        31.8198 
 238   0.0000       1.177022        32.0284 
 239   0.0000       1.183496        32.2046 
 240   0.0000       1.187942        32.3255 
 241   0.0000       1.193915        32.4881 
 242   0.0000       1.199196        32.6318 
 243   0.0000       1.205848        32.8128 
 244   0.0000       1.208859        32.8947 
 245   0.0000       1.224765        33.3275 
 246   0.0000       1.229845        33.4658 
 247   0.0000       1.236834        33.6560 
 248   0.0000       1.247982        33.9593 
 249   0.0000       1.255197        34.1556 
 250   0.0000       1.261711        34.3329 
 251   0.0000       1.262509        34.3546 
 252   0.0000       1.278834        34.7988 
 253   0.0000       1.283626        34.9292 
 254   0.0000       1.289696        35.0944 
 255   0.0000       1.301933        35.4274 
 256   0.0000       1.307660        35.5832 
 257   0.0000       1.313138        35.7323 
 258   0.0000       1.316604        35.8266 
 259   0.0000       1.322331        35.9825 
 260   0.0000       1.329865        36.1875 
 261   0.0000       1.341327        36.4994 
 262   0.0000       1.343840        36.5677 
 263   0.0000       1.357574        36.9415 
 264   0.0000       1.362690        37.0807 
 265   0.0000       1.370999        37.3068 
 266   0.0000       1.381290        37.5868 
 267   0.0000       1.392077        37.8804 
 268   0.0000       1.399100        38.0714 
 269   0.0000       1.401249        38.1299 
 270   0.0000       1.416367        38.5413 
 271   0.0000       1.424167        38.7536 
 272   0.0000       1.433826        39.0164 
 273   0.0000       1.438346        39.1394 
 274   0.0000       1.446931        39.3730 
 275   0.0000       1.459179        39.7063 
 276   0.0000       1.468541        39.9610 
 277   0.0000       1.473125        40.0858 
 278   0.0000       1.477337        40.2004 
 279   0.0000       1.484186        40.3868 
 280   0.0000       1.489433        40.5295 
 281   0.0000       1.495572        40.6966 
 282   0.0000       1.499694        40.8088 
 283   0.0000       1.512192        41.1488 
 284   0.0000       1.522882        41.4397 
 285   0.0000       1.528782        41.6003 
 286   0.0000       1.530841        41.6563 
 287   0.0000       1.533961        41.7412 
 288   0.0000       1.543693        42.0060 
 289   0.0000       1.548886        42.1473 
 290   0.0000       1.559282        42.4302 
 291   0.0000       1.566871        42.6367 
 292   0.0000       1.572396        42.7871 
 293   0.0000       1.578199        42.9450 
 294   0.0000       1.586114        43.1604 
 295   0.0000       1.589176        43.2437 
 296   0.0000       1.594122        43.3783 
 297   0.0000       1.603521        43.6340 
 298   0.0000       1.610882        43.8343 
 299   0.0000       1.616970        44.0000 
 300   0.0000       1.621722        44.1293 
 301   0.0000       1.629013        44.3277 
 302   0.0000       1.640665        44.6448 
 303   0.0000       1.645614        44.7794 
 304   0.0000       1.658248        45.1232 
 305   0.0000       1.670444        45.4551 
 306   0.0000       1.673355        45.5343 
 307   0.0000       1.678739        45.6808 
 308   0.0000       1.684480        45.8370 
 309   0.0000       1.689191        45.9652 
 310   0.0000       1.709581        46.5201 
 311   0.0000       1.716591        46.7108 
 312   0.0000       1.719242        46.7830 
 313   0.0000       1.739093        47.3231 
 314   0.0000       1.745330        47.4928 
 315   0.0000       1.759027        47.8655 
 316   0.0000       1.767191        48.0877 
 317   0.0000       1.773865        48.2693 
 318   0.0000       1.786538        48.6142 
 319   0.0000       1.792787        48.7842 
 320   0.0000       1.795869        48.8681 
 321   0.0000       1.822069        49.5810 
 322   0.0000       1.825387        49.6713 
 323   0.0000       1.837515        50.0013 
 324   0.0000       1.842149        50.1274 
 325   0.0000       1.853041        50.4238 
 326   0.0000       1.888679        51.3936 
 327   0.0000       1.899751        51.6948 
 328   0.0000       1.907610        51.9087 
 329   0.0000       1.918338        52.2006 
 330   0.0000       1.923710        52.3468 
 331   0.0000       1.930216        52.5239 
 332   0.0000       1.935989        52.6809 
 333   0.0000       1.956013        53.2258 
 334   0.0000       1.968175        53.5568 
 335   0.0000       1.975844        53.7654 
 336   0.0000       1.985555        54.0297 
 337   0.0000       1.998656        54.3862 
 338   0.0000       2.014387        54.8142 
 339   0.0000       2.019849        54.9629 
 340   0.0000       2.029887        55.2360 
 341   0.0000       2.043539        55.6075 
 342   0.0000       2.060849        56.0786 
 343   0.0000       2.063499        56.1507 
 344   0.0000       2.079543        56.5872 
 345   0.0000       2.102404        57.2093 
 346   0.0000       2.106348        57.3166 
 347   0.0000       2.132962        58.0409 
 348   0.0000       2.143465        58.3267 
 349   0.0000       2.158495        58.7356 
 350   0.0000       2.183271        59.4098 
 351   0.0000       2.193371        59.6847 
 352   0.0000       2.206502        60.0420 
 353   0.0000       2.226252        60.5794 
 354   0.0000       2.234093        60.7928 
 355   0.0000       2.260327        61.5066 
 356   0.0000       2.271097        61.7997 
 357   0.0000       2.289058        62.2884 
 358   0.0000       2.297344        62.5139 
 359   0.0000       2.303438        62.6797 
 360   0.0000       2.318461        63.0885 
 361   0.0000       2.328963        63.3743 
 362   0.0000       2.329698        63.3943 
 363   0.0000       2.344522        63.7977 
 364   0.0000       2.353292        64.0363 
 365   0.0000       2.372013        64.5458 
 366   0.0000       2.378926        64.7339 
 367   0.0000       2.381394        64.8010 
 368   0.0000       2.407516        65.5118 
 369   0.0000       2.411000        65.6066 
 370   0.0000       2.444107        66.5075 
 371   0.0000       2.445880        66.5558 
 372   0.0000       2.454820        66.7991 
 373   0.0000       2.470660        67.2301 
 374   0.0000       2.477349        67.4121 
 375   0.0000       2.482881        67.5626 
 376   0.0000       2.509794        68.2950 
 377   0.0000       2.524713        68.7009 
 378   0.0000       2.539745        69.1100 
 379   0.0000       2.544149        69.2298 
 380   0.0000       2.558660        69.6247 
 381   0.0000       2.566623        69.8413 
 382   0.0000       2.584459        70.3267 
 383   0.0000       2.608156        70.9715 
 384   0.0000       2.613972        71.1298 
 385   0.0000       2.620398        71.3047 
 386   0.0000       2.629151        71.5428 
 387   0.0000       2.640948        71.8638 
 388   0.0000       2.656328        72.2824 
 389   0.0000       2.661367        72.4195 
 390   0.0000       2.676227        72.8238 
 391   0.0000       2.688984        73.1710 
 392   0.0000       2.699771        73.4645 
 393   0.0000       2.700438        73.4826 
 394   0.0000       2.713815        73.8466 
 395   0.0000       2.719093        73.9903 
 396   0.0000       2.729063        74.2616 
 397   0.0000       2.735449        74.4353 
 398   0.0000       2.750205        74.8369 
 399   0.0000       2.754961        74.9663 
 400   0.0000       2.760709        75.1227 
 401   0.0000       2.771195        75.4081 
 402   0.0000       2.791230        75.9532 
 403   0.0000       2.793687        76.0201 
 404   0.0000       2.805705        76.3471 
 405   0.0000       2.815914        76.6249 
 406   0.0000       2.829265        76.9882 
 407   0.0000       2.832740        77.0828 
 408   0.0000       2.841476        77.3205 
 409   0.0000       2.862818        77.9012 
 410   0.0000       2.866431        77.9996 
 411   0.0000       2.876686        78.2786 
 412   0.0000       2.878037        78.3154 
 413   0.0000       2.887717        78.5788 
 414   0.0000       2.895400        78.7878 
 415   0.0000       2.904381        79.0322 
 416   0.0000       2.919516        79.4441 
 417   0.0000       2.929284        79.7099 
 418   0.0000       2.942994        80.0830 
 419   0.0000       2.957955        80.4900 
 420   0.0000       2.959419        80.5299 
 421   0.0000       2.985969        81.2523 
 422   0.0000       2.988251        81.3144 
 423   0.0000       2.991109        81.3922 
 424   0.0000       2.998009        81.5800 
 425   0.0000       3.006099        81.8001 
 426   0.0000       3.014798        82.0368 
 427   0.0000       3.018055        82.1254 
 428   0.0000       3.021472        82.2184 
 429   0.0000       3.032830        82.5275 
 430   0.0000       3.049826        82.9900 
 431   0.0000       3.057757        83.2058 
 432   0.0000       3.063728        83.3683 
 433   0.0000       3.071514        83.5801 
 434   0.0000       3.075085        83.6773 
 435   0.0000       3.078709        83.7759 
 436   0.0000       3.091924        84.1355 
 437   0.0000       3.105867        84.5149 
 438   0.0000       3.110232        84.6337 
 439   0.0000       3.112107        84.6847 
 440   0.0000       3.114853        84.7595 
 441   0.0000       3.116239        84.7972 
 442   0.0000       3.126671        85.0810 
 443   0.0000       3.134764        85.3013 
 444   0.0000       3.142461        85.5107 
 445   0.0000       3.150916        85.7408 
 446   0.0000       3.166511        86.1651 
 447   0.0000       3.173964        86.3679 
 448   0.0000       3.177118        86.4538 
 449   0.0000       3.195969        86.9667 
 450   0.0000       3.197327        87.0037 
 451   0.0000       3.203654        87.1758 
 452   0.0000       3.212072        87.4049 
 453   0.0000       3.223412        87.7135 
 454   0.0000       3.225053        87.7581 
 455   0.0000       3.231987        87.9468 
 456   0.0000       3.238333        88.1195 
 457   0.0000       3.242190        88.2245 
 458   0.0000       3.243707        88.2658 
 459   0.0000       3.258617        88.6715 
 460   0.0000       3.267854        88.9228 
 461   0.0000       3.278424        89.2105 
 462   0.0000       3.284003        89.3623 
 463   0.0000       3.286367        89.4266 
 464   0.0000       3.298383        89.7536 
 465   0.0000       3.304361        89.9162 
 466   0.0000       3.307799        90.0098 
 467   0.0000       3.319768        90.3355 
 468   0.0000       3.324139        90.4544 
 469   0.0000       3.329158        90.5910 
 470   0.0000       3.335477        90.7629 
 471   0.0000       3.341778        90.9344 
 472   0.0000       3.344684        91.0135 
 473   0.0000       3.347538        91.0912 
 474   0.0000       3.358551        91.3908 
 475   0.0000       3.359382        91.4134 
 476   0.0000       3.361057        91.4590 
 477   0.0000       3.375978        91.8650 
 478   0.0000       3.379439        91.9592 
 479   0.0000       3.384565        92.0987 
 480   0.0000       3.388180        92.1971 
 481   0.0000       3.396983        92.4366 
 482   0.0000       3.401858        92.5693 
 483   0.0000       3.407213        92.7150 
 484   0.0000       3.412449        92.8575 
 485   0.0000       3.413821        92.8948 
 486   0.0000       3.424979        93.1984 
 487   0.0000       3.428116        93.2838 
 488   0.0000       3.430681        93.3536 
 489   0.0000       3.434696        93.4628 
 490   0.0000       3.438878        93.5766 
 491   0.0000       3.448634        93.8421 
 492   0.0000       3.450609        93.8958 
 493   0.0000       3.461863        94.2021 
 494   0.0000       3.467724        94.3616 
 495   0.0000       3.470993        94.4505 
 496   0.0000       3.482402        94.7610 
 497   0.0000       3.483267        94.7845 
 498   0.0000       3.496416        95.1423 
 499   0.0000       3.507677        95.4487 
 500   0.0000       3.513462        95.6062 
 501   0.0000       3.520979        95.8107 
 502   0.0000       3.524865        95.9165 
 503   0.0000       3.530049        96.0575 
 504   0.0000       3.541473        96.3684 
 505   0.0000       3.552578        96.6706 
 506   0.0000       3.557510        96.8048 
 507   0.0000       3.561214        96.9056 
 508   0.0000       3.569121        97.1207 
 509   0.0000       3.575598        97.2970 
 510   0.0000       3.586544        97.5948 
 511   0.0000       3.592412        97.7545 
 512   0.0000       3.600910        97.9858 
 513   0.0000       3.606490        98.1376 
 514   0.0000       3.620077        98.5073 
 515   0.0000       3.623916        98.6118 
 516   0.0000       3.629362        98.7600 
 517   0.0000       3.633098        98.8616 
 518   0.0000       3.635274        98.9208 
 519   0.0000       3.645093        99.1880 
 520   0.0000       3.648406        99.2782 
 521   0.0000       3.656996        99.5119 
 522   0.0000       3.664638        99.7199 
 523   0.0000       3.669451        99.8508 
 524   0.0000       3.675376       100.0121 
 525   0.0000       3.685667       100.2921 
 526   0.0000       3.689360       100.3926 
 527   0.0000       3.697284       100.6082 
 528   0.0000       3.701335       100.7184 
 529   0.0000       3.701581       100.7251 
 530   0.0000       3.715926       101.1155 
 531   0.0000       3.719607       101.2156 
 532   0.0000       3.724720       101.3548 
 533   0.0000       3.728812       101.4661 
 534   0.0000       3.735201       101.6400 
 535   0.0000       3.746463       101.9464 
 536   0.0000       3.753443       102.1364 
 537   0.0000       3.759340       102.2969 
 538   0.0000       3.764735       102.4436 
 539   0.0000       3.770101       102.5897 
 540   0.0000       3.781057       102.8878 
 541   0.0000       3.785709       103.0144 
 542   0.0000       3.793876       103.2366 
 543   0.0000       3.801408       103.4416 
 544   0.0000       3.807617       103.6105 
 545   0.0000       3.815364       103.8213 
 546   0.0000       3.825945       104.1093 
 547   0.0000       3.832052       104.2754 
 548   0.0000       3.834731       104.3483 
 549   0.0000       3.841016       104.5194 
 550   0.0000       3.847283       104.6899 
 551   0.0000       3.854797       104.8944 
 552   0.0000       3.858226       104.9877 
 553   0.0000       3.869788       105.3023 
 554   0.0000       3.882705       105.6538 
 555   0.0000       3.897977       106.0693 
 556   0.0000       3.905132       106.2640 
 557   0.0000       3.921532       106.7103 
 558   0.0000       3.924809       106.7995 
 559   0.0000       3.933763       107.0431 
 560   0.0000       3.949212       107.4635 
 561   0.0000       3.953290       107.5745 
 562   0.0000       3.957766       107.6963 
 563   0.0000       3.966065       107.9221 
 564   0.0000       3.974136       108.1417 
 565   0.0000       3.980560       108.3166 
 566   0.0000       3.987502       108.5055 
 567   0.0000       4.001661       108.8907 
 568   0.0000       4.007205       109.0416 
 569   0.0000       4.009657       109.1083 
 570   0.0000       4.027111       109.5833 
 571   0.0000       4.031103       109.6919 
 572   0.0000       4.039218       109.9127 
 573   0.0000       4.045055       110.0715 
 574   0.0000       4.052803       110.2824 
 575   0.0000       4.059654       110.4688 
 576   0.0000       4.071529       110.7919 
 577   0.0000       4.079844       111.0182 
 578   0.0000       4.089302       111.2756 
 579   0.0000       4.094831       111.4260 
 580   0.0000       4.103503       111.6620 
 581   0.0000       4.116935       112.0275 
 582   0.0000       4.121305       112.1464 
 583   0.0000       4.129425       112.3674 
 584   0.0000       4.130406       112.3941 
 585   0.0000       4.135329       112.5280 
 586   0.0000       4.151284       112.9622 
 587   0.0000       4.161809       113.2486 
 588   0.0000       4.163956       113.3070 
 589   0.0000       4.170876       113.4953 
 590   0.0000       4.176723       113.6544 
 591   0.0000       4.180512       113.7575 
 592   0.0000       4.191243       114.0495 
 593   0.0000       4.196447       114.1911 
 594   0.0000       4.201622       114.3319 
 595   0.0000       4.211678       114.6056 
 596   0.0000       4.213985       114.6683 
 597   0.0000       4.223578       114.9294 
 598   0.0000       4.231142       115.1352 
 599   0.0000       4.237750       115.3150 
 600   0.0000       4.243790       115.4794 
 601   0.0000       4.249719       115.6407 
 602   0.0000       4.259785       115.9146 
 603   0.0000       4.283044       116.5475 
 604   0.0000       4.289768       116.7305 
 605   0.0000       4.301633       117.0534 
 606   0.0000       4.302613       117.0800 
 607   0.0000       4.312440       117.3475 
 608   0.0000       4.321316       117.5890 
 609   0.0000       4.328358       117.7806 
 610   0.0000       4.332950       117.9056 
 611   0.0000       4.340708       118.1167 
 612   0.0000       4.351837       118.4195 
 613   0.0000       4.354563       118.4937 
 614   0.0000       4.360119       118.6449 
 615   0.0000       4.374572       119.0382 
 616   0.0000       4.378929       119.1567 
 617   0.0000       4.387971       119.4028 
 618   0.0000       4.393761       119.5603 
 619   0.0000       4.404524       119.8532 
 620   0.0000       4.413184       120.0889 
 621   0.0000       4.421727       120.3213 
 622   0.0000       4.423878       120.3798 
 623   0.0000       4.433721       120.6477 
 624   0.0000       4.441736       120.8658 
 625   0.0000       4.453472       121.1851 
 626   0.0000       4.455215       121.2326 
 627   0.0000       4.463954       121.4704 
 628   0.0000       4.476979       121.8248 
 629   0.0000       4.480475       121.9199 
 630   0.0000       4.495781       122.3364 
 631   0.0000       4.505343       122.5966 
 632   0.0000       4.514156       122.8364 
 633   0.0000       4.529584       123.2563 
 634   0.0000       4.539072       123.5144 
 635   0.0000       4.552396       123.8770 
 636   0.0000       4.559991       124.0837 
 637   0.0000       4.561429       124.1228 
 638   0.0000       4.568577       124.3173 
 639   0.0000       4.576734       124.5393 
 640   0.0000       4.583525       124.7241 
 641   0.0000       4.592516       124.9687 
 642   0.0000       4.598782       125.1392 
 643   0.0000       4.608676       125.4085 
 644   0.0000       4.617928       125.6602 
 645   0.0000       4.623439       125.8102 
 646   0.0000       4.626770       125.9008 
 647   0.0000       4.630221       125.9947 
 648   0.0000       4.648931       126.5039 
 649   0.0000       4.653499       126.6281 
 650   0.0000       4.665983       126.9679 
 651   0.0000       4.678735       127.3149 
 652   0.0000       4.682739       127.4238 
 653   0.0000       4.700786       127.9149 
 654   0.0000       4.702565       127.9633 
 655   0.0000       4.712092       128.2225 
 656   0.0000       4.720037       128.4387 
 657   0.0000       4.727806       128.6501 
 658   0.0000       4.747396       129.1832 
 659   0.0000       4.753877       129.3596 
 660   0.0000       4.757121       129.4478 
 661   0.0000       4.770127       129.8018 
 662   0.0000       4.790430       130.3542 
 663   0.0000       4.801205       130.6474 
 664   0.0000       4.827657       131.3672 
 665   0.0000       4.834287       131.5476 
 666   0.0000       4.845107       131.8421 
 667   0.0000       4.857269       132.1730 
 668   0.0000       4.872190       132.5790 
 669   0.0000       4.906587       133.5150 
 670   0.0000       4.932957       134.2326 
 671   0.0000       4.938976       134.3964 
 672   0.0000       4.967641       135.1764 
 673   0.0000       4.971862       135.2912 
 674   0.0000       4.982581       135.5829 
 675   0.0000       4.991660       135.8300 
 676   0.0000       5.003084       136.1408 
 677   0.0000       5.028118       136.8221 
 678   0.0000       5.035308       137.0177 
 679   0.0000       5.050258       137.4245 
 680   0.0000       5.057479       137.6210 
 681   0.0000       5.068788       137.9287 
 682   0.0000       5.080177       138.2387 
 683   0.0000       5.084630       138.3598 
 684   0.0000       5.104993       138.9139 
 685   0.0000       5.113651       139.1495 
 686   0.0000       5.117364       139.2506 
 687   0.0000       5.126235       139.4919 
 688   0.0000       5.143006       139.9483 
 689   0.0000       5.158933       140.3817 
 690   0.0000       5.159676       140.4019 
 691   0.0000       5.168246       140.6351 
 692   0.0000       5.182424       141.0209 
 693   0.0000       5.200192       141.5044 
 694   0.0000       5.209638       141.7614 
 695   0.0000       5.224163       142.1567 
 696   0.0000       5.226212       142.2125 
 697   0.0000       5.239773       142.5815 
 698   0.0000       5.256740       143.0432 
 699   0.0000       5.263895       143.2379 
 700   0.0000       5.280006       143.6763 
 701   0.0000       5.295357       144.0940 
 702   0.0000       5.301853       144.2708 
 703   0.0000       5.313029       144.5749 
 704   0.0000       5.327665       144.9731 
 705   0.0000       5.333026       145.1190 
 706   0.0000       5.354680       145.7083 
 707   0.0000       5.367686       146.0621 
 708   0.0000       5.381418       146.4358 
 709   0.0000       5.400073       146.9435 
 710   0.0000       5.410101       147.2163 
 711   0.0000       5.432731       147.8321 
 712   0.0000       5.449819       148.2971 
 713   0.0000       5.470164       148.8507 
 714   0.0000       5.473854       148.9511 
 715   0.0000       5.490040       149.3916 
 716   0.0000       5.507796       149.8748 
 717   0.0000       5.512678       150.0076 
 718   0.0000       5.525338       150.3521 
 719   0.0000       5.529492       150.4651 
 720   0.0000       5.544548       150.8748 
 721   0.0000       5.568133       151.5166 
 722   0.0000       5.584722       151.9680 
 723   0.0000       5.597306       152.3105 
 724   0.0000       5.607829       152.5968 
 725   0.0000       5.612035       152.7112 
 726   0.0000       5.619249       152.9075 
 727   0.0000       5.631302       153.2355 
 728   0.0000       5.637489       153.4039 
 729   0.0000       5.645758       153.6289 
 730   0.0000       5.656748       153.9280 
 731   0.0000       5.669111       154.2644 
 732   0.0000       5.678364       154.5161 
 733   0.0000       5.693914       154.9393 
 734   0.0000       5.696670       155.0143 
 735   0.0000       5.711804       155.4261 
 736   0.0000       5.730178       155.9261 
 737   0.0000       5.742855       156.2710 
 738   0.0000       5.756757       156.6493 
 739   0.0000       5.762802       156.8138 
 740   0.0000       5.784593       157.4068 
 741   0.0000       5.800203       157.8315 
 742   0.0000       5.810230       158.1044 
 743   0.0000       5.815077       158.2363 
 744   0.0000       5.835105       158.7813 
 745   0.0000       5.843200       159.0016 
 746   0.0000       5.849861       159.1828 
 747   0.0000       5.866370       159.6320 
 748   0.0000       5.892586       160.3454 
 749   0.0000       5.934309       161.4808 
 750   0.0000       5.949405       161.8915 
 751   0.0000       5.981659       162.7692 
 752   0.0000       5.988973       162.9682 
 753   0.0000       6.015460       163.6890 
 754   0.0000       6.017131       163.7345 
 755   0.0000       6.029843       164.0804 
 756   0.0000       6.057309       164.8278 
 757   0.0000       6.069120       165.1492 
 758   0.0000       6.103400       166.0820 
 759   0.0000       6.124980       166.6692 
 760   0.0000       6.128008       166.7516 
 761   0.0000       6.185670       168.3206 
 762   0.0000       6.194262       168.5544 
 763   0.0000       6.200298       168.7187 
 764   0.0000       6.232358       169.5911 
 765   0.0000       6.273181       170.7019 
 766   0.0000       6.309080       171.6788 
 767   0.0000       6.327997       172.1936 
 768   0.0000       6.333803       172.3515 
 769   0.0000       6.359884       173.0613 
 770   0.0000       6.377292       173.5349 
 771   0.0000       6.392198       173.9406 
 772   0.0000       6.409035       174.3987 
 773   0.0000       6.431606       175.0129 
 774   0.0000       6.466399       175.9597 
 775   0.0000       6.473117       176.1425 
 776   0.0000       6.490033       176.6028 
 777   0.0000       6.604979       179.7306 
 778   0.0000       6.629706       180.4035 
 779   0.0000       6.660248       181.2346 
 780   0.0000       6.674483       181.6219 
 781   0.0000       6.729235       183.1118 
 782   0.0000       6.743807       183.5083 
 783   0.0000       6.763506       184.0444 
 784   0.0000       6.832528       185.9225 
 785   0.0000       6.840123       186.1292 
 786   0.0000       6.894410       187.6064 
 787   0.0000       6.896859       187.6731 
 788   0.0000       6.927249       188.5000 
 789   0.0000       6.997293       190.4060 
 790   0.0000       7.036594       191.4755 
 791   0.0000       7.092775       193.0042 
 792   0.0000       7.099372       193.1837 
 793   0.0000       7.179292       195.3585 
 794   0.0000       7.215690       196.3489 
 795   0.0000       7.227694       196.6755 
 796   0.0000       7.278045       198.0457 
 797   0.0000       7.297111       198.5645 
 798   0.0000       7.338790       199.6986 
 799   0.0000       7.356179       200.1718 
 800   0.0000       7.401081       201.3937 
 801   0.0000       7.479844       203.5369 
 802   0.0000       7.572759       206.0653 
 803   0.0000       7.587394       206.4635 
 804   0.0000       7.670843       208.7342 
 805   0.0000       7.841344       213.3738 
 806   0.0000       7.866029       214.0455 
 807   0.0000       7.933452       215.8802 
 808   0.0000       7.950771       216.3515 
 809   0.0000       9.299919       253.0637 
 810   0.0000       9.623183       261.8601 
 811   0.0000      11.087213       301.6984 
 812   0.0000      11.642661       316.8129 
 813   0.0000      11.892747       323.6181 
 814   0.0000      12.301606       334.7437 
 815   0.0000      12.950750       352.4078 
 816   0.0000      13.148834       357.7980 
 817   0.0000      13.313332       362.2742 
 818   0.0000      13.392470       364.4276 
 819   0.0000      13.419678       365.1680 
 820   0.0000      13.684874       372.3844 
 821   0.0000      13.742731       373.9587 
 822   0.0000      13.893402       378.0587 
 823   0.0000      14.138656       384.7324 
 824   0.0000      14.237201       387.4139 
 825   0.0000      14.845996       403.9801 
 826   0.0000      15.039473       409.2449 
 827   0.0000      16.060338       437.0240 

                    ********************************
                    * MULLIKEN POPULATION ANALYSIS *
                    ********************************

-----------------------
MULLIKEN ATOMIC CHARGES
-----------------------
   0 C :   -0.286314
   1 C :    0.034322
   2 O :   -0.337194
   3 C :    0.413155
   4 O :   -0.418864
   5 C :   -0.185478
   6 C :    0.144763
   7 C :   -0.288366
   8 N :   -0.084749
   9 C :    0.195852
  10 S :   -0.446712
  11 N :   -0.195617
  12 C :    0.062072
  13 C :    0.032219
  14 C :   -0.177026
  15 C :   -0.094481
  16 C :   -0.246745
  17 C :    0.309521
  18 O :   -0.332526
  19 C :   -0.301133
  20 H :    0.090026
  21 H :    0.103160
  22 H :    0.099154
  23 H :    0.096772
  24 H :    0.090064
  25 H :    0.111517
  26 H :    0.123662
  27 H :    0.133652
  28 H :    0.183781
  29 H :    0.181683
  30 H :    0.150548
  31 H :    0.143241
  32 H :    0.161520
  33 H :    0.154911
  34 H :    0.245600
  35 H :    0.134008
Sum of atomic charges:    0.0000000

--------------------------------
MULLIKEN REDUCED ORBITAL CHARGES
--------------------------------
  0 C s       :     3.260484  s :     3.260484
      pz      :     1.022481  p :     2.947923
      px      :     1.014746
      py      :     0.910696
      dz2     :     0.012809  d :     0.073542
      dxz     :     0.014213
      dyz     :     0.013071
      dx2y2   :     0.016842
      dxy     :     0.016606
      f0      :     0.000175  f :     0.004366
      f+1     :     0.000996
      f-1     :     0.000802
      f+2     :     0.000494
      f-2     :     0.000107
      f+3     :     0.000537
      f-3     :     0.001255
  1 C s       :     3.167041  s :     3.167041
      pz      :     0.827872  p :     2.640418
      px      :     0.912122
      py      :     0.900424
      dz2     :     0.035017  d :     0.146421
      dxz     :     0.024315
      dyz     :     0.028653
      dx2y2   :     0.031346
      dxy     :     0.027090
      f0      :     0.001941  f :     0.011798
      f+1     :     0.002416
      f-1     :     0.001504
      f+2     :     0.001990
      f-2     :     0.001470
      f+3     :     0.001022
      f-3     :     0.001454
  2 O s       :     3.716363  s :     3.716363
      pz      :     1.597542  p :     4.582912
      px      :     1.670992
      py      :     1.314379
      dz2     :     0.008072  d :     0.035742
      dxz     :     0.006489
      dyz     :     0.005402
      dx2y2   :     0.010700
      dxy     :     0.005080
      f0      :     0.000216  f :     0.002177
      f+1     :     0.000300
      f-1     :     0.000363
      f+2     :     0.000313
      f-2     :     0.000284
      f+3     :     0.000251
      f-3     :     0.000450
[...]
 15 C s       :     2.695710  s :     2.695710
      pz      :     0.842182  p :     2.784565
      px      :     1.000321
      py      :     0.942062
      dz2     :     0.054634  d :     0.435452
      dxz     :     0.091437
      dyz     :     0.039859
      dx2y2   :     0.115513
      dxy     :     0.134009
      f0      :     0.003997  f :     0.045267
      f+1     :     0.004225
      f-1     :     0.003968
      f+2     :     0.008421
      f-2     :     0.004597
      f+3     :     0.008766
      f-3     :     0.011292
 16 C s       :     2.704924  s :     2.704924
      pz      :     0.925808  p :     2.853415
      px      :     0.963599
      py      :     0.964008
      dz2     :     0.047502  d :     0.371538
      dxz     :     0.045830
      dyz     :     0.067136
      dx2y2   :     0.121000
      dxy     :     0.090070
      f0      :     0.003205  f :     0.038068
      f+1     :     0.003056
      f-1     :     0.004095
      f+2     :     0.006221
      f-2     :     0.005758
      f+3     :     0.006633
      f-3     :     0.009100
 17 C s       :     2.701021  s :     2.701021
      pz      :     0.805717  p :     2.677879
      px      :     0.984558
      py      :     0.887604
      dz2     :     0.123428  d :     0.736254
      dxz     :     0.139811
      dyz     :     0.112691
      dx2y2   :     0.169318
      dxy     :     0.191007
      f0      :     0.010066  f :     0.106786
      f+1     :     0.011514
      f-1     :     0.014864
      f+2     :     0.017833
      f-2     :     0.014444
      f+3     :     0.014544
      f-3     :     0.023520
 18 O s       :     3.165025  s :     3.165025
      pz      :     1.516661  p :     4.325702
      px      :     1.515459
      py      :     1.293582
      dz2     :     0.013481  d :     0.081494
      dxz     :     0.011775
      dyz     :     0.015119
      dx2y2   :     0.012736
      dxy     :     0.028382
      f0      :     0.000355  f :     0.005830
      f+1     :     0.000647
      f-1     :     0.000813
      f+2     :     0.000736
      f-2     :     0.001203
      f+3     :     0.000961
      f-3     :     0.001115
 19 C s       :     2.702695  s :     2.702695
      pz      :     0.936196  p :     2.873182
      px      :     0.982391
      py      :     0.954596
      dz2     :     0.039033  d :     0.376817
      dxz     :     0.078380
      dyz     :     0.042015
      dx2y2   :     0.097443
      dxy     :     0.119945
      f0      :     0.003773  f :     0.040018
      f+1     :     0.003890
      f-1     :     0.002580
      f+2     :     0.006365
      f-2     :     0.005093
      f+3     :     0.008096
      f-3     :     0.010221
 20 H s       :     0.851300  s :     0.851300
      pz      :     0.061268  p :     0.153834
      px      :     0.050364
      py      :     0.042201
      dz2     :     0.008486  d :     0.027730
      dxz     :     0.006416
      dyz     :     0.005582
      dx2y2   :     0.003923
      dxy     :     0.003323
 21 H s       :     0.844190  s :     0.844190
      pz      :     0.060631  p :     0.153192
      px      :     0.046282
      py      :     0.046278
      dz2     :     0.008236  d :     0.027663
      dxz     :     0.006306
      dyz     :     0.006221
      dx2y2   :     0.004047
      dxy     :     0.002853
 22 H s       :     0.851187  s :     0.851187
      pz      :     0.041082  p :     0.151116
      px      :     0.067802
      py      :     0.042232
      dz2     :     0.002441  d :     0.027426
      dxz     :     0.008471
      dyz     :     0.000987
      dx2y2   :     0.007543
      dxy     :     0.007985
 23 H s       :     0.852933  s :     0.852933
      pz      :     0.032002  p :     0.147677
      px      :     0.075671
      py      :     0.040003
      dz2     :     0.002548  d :     0.027240
      dxz     :     0.007875
      dyz     :     0.000677
      dx2y2   :     0.008618
      dxy     :     0.007522
 24 H s       :     0.855417  s :     0.855417
      pz      :     0.068652  p :     0.149532
      px      :     0.040214
      py      :     0.040666
      dz2     :     0.009102  d :     0.027589
      dxz     :     0.007525
      dyz     :     0.007471
      dx2y2   :     0.002381
      dxy     :     0.001109
 25 H s       :     0.841313  s :     0.841313
      pz      :     0.056262  p :     0.151645
      px      :     0.055031
      py      :     0.040352
      dz2     :     0.007519  d :     0.027722
      dxz     :     0.005789
      dyz     :     0.004491
      dx2y2   :     0.005225
      dxy     :     0.004698
 26 H s       :     0.825967  s :     0.825967
      pz      :     0.040123  p :     0.157049
      px      :     0.064868
      py      :     0.052057
      dz2     :     0.002603  d :     0.028629
      dxz     :     0.007381
      dyz     :     0.002244
      dx2y2   :     0.008980
      dxy     :     0.007420
 27 H s       :     0.833012  s :     0.833012
      pz      :     0.069690  p :     0.149809
      px      :     0.044329
      py      :     0.035789
      dz2     :     0.009047  d :     0.027443
      dxz     :     0.008275
      dyz     :     0.006398
      dx2y2   :     0.001900
      dxy     :     0.001822
 28 H s       :     0.738619  s :     0.738619
      pz      :     0.077881  p :     0.248928
      px      :     0.092131
      py      :     0.078915
      dz2     :     0.012012  d :     0.060645
      dxz     :     0.009884
      dyz     :     0.015092
      dx2y2   :     0.012483
      dxy     :     0.011175
 29 H s       :     0.749137  s :     0.749137
      pz      :     0.065015  p :     0.250774
      px      :     0.074843
      py      :     0.110916
      dz2     :     0.007487  d :     0.060878
      dxz     :     0.003588
      dyz     :     0.016184
      dx2y2   :     0.015791
      dxy     :     0.017828
 30 H s       :     0.822644  s :     0.822644
      pz      :     0.061738  p :     0.154119
      px      :     0.038151
      py      :     0.054230
      dz2     :     0.007669  d :     0.029183
      dxz     :     0.005928
      dyz     :     0.007337
      dx2y2   :     0.004976
      dxy     :     0.003273
 31 H s       :     0.838111  s :     0.838111
      pz      :     0.051268  p :     0.154895
      px      :     0.045232
      py      :     0.058395
      dz2     :     0.004443  d :     0.027558
      dxz     :     0.003764
      dyz     :     0.005630
      dx2y2   :     0.007284
      dxy     :     0.006438
 32 H s       :     0.837830  s :     0.837830
      pz      :     0.039577  p :     0.149184
      px      :     0.040387
      py      :     0.069220
      dz2     :     0.002960  d :     0.026600
      dxz     :     0.001623
      dyz     :     0.006286
      dx2y2   :     0.007922
      dxy     :     0.007809
 33 H s       :     0.842843  s :     0.842843
      pz      :     0.046013  p :     0.158914
      px      :     0.076045
      py      :     0.036856
      dz2     :     0.003253  d :     0.027704
      dxz     :     0.007937
      dyz     :     0.000994
      dx2y2   :     0.007416
      dxy     :     0.008103
 34 H s       :     0.697711  s :     0.697711
      pz      :     0.090589  p :     0.342282
      px      :     0.132547
      py      :     0.119146
      dz2     :     0.009479  d :     0.098998
      dxz     :     0.014640
      dyz     :     0.018821
      dx2y2   :     0.030580
      dxy     :     0.025478
 35 H s       :     0.845668  s :     0.845668
      pz      :     0.054229  p :     0.162934
      px      :     0.047629
      py      :     0.061077
      dz2     :     0.004484  d :     0.028264
      dxz     :     0.004154
      dyz     :     0.006010
      dx2y2   :     0.007086
      dxy     :     0.006530


                      *****************************
                      * MAYER POPULATION ANALYSIS *
                      *****************************

  NA   - Mulliken gross atomic population
  ZA   - Total nuclear charge
  QA   - Mulliken gross atomic charge
  VA   - Mayer's total valence
  BVA  - Mayer's bonded valence
  FA   - Mayer's free valence

  ATOM       NA         ZA         QA         VA         BVA        FA
  0 C      6.2863     6.0000    -0.2863     3.8895     3.8895    -0.0000
  1 C      5.9657     6.0000     0.0343     3.8923     3.8923    -0.0000
  2 O      8.3372     8.0000    -0.3372     2.0629     2.0629    -0.0000
  3 C      5.5868     6.0000     0.4132     4.2152     4.2152     0.0000
  4 O      8.4189     8.0000    -0.4189     2.1028     2.1028    -0.0000
  5 C      6.1855     6.0000    -0.1855     3.5535     3.5535    -0.0000
  6 C      5.8552     6.0000     0.1448     3.8522     3.8522    -0.0000
  7 C      6.2884     6.0000    -0.2884     3.8843     3.8843     0.0000
  8 N      7.0847     7.0000    -0.0847     3.3135     3.3135    -0.0000
  9 C      5.8041     6.0000     0.1959     4.1397     4.1397    -0.0000
 10 S     16.4467    16.0000    -0.4467     1.7059     1.7059     0.0000
 11 N      7.1956     7.0000    -0.1956     3.2570     3.2570    -0.0000
 12 C      5.9379     6.0000     0.0621     3.9332     3.9332    -0.0000
 13 C      5.9678     6.0000     0.0322     3.7201     3.7201     0.0000
 14 C      6.1770     6.0000    -0.1770     3.8548     3.8548     0.0000
 15 C      6.0945     6.0000    -0.0945     3.7871     3.7871     0.0000
 16 C      6.2467     6.0000    -0.2467     3.8247     3.8247    -0.0000
 17 C      5.6905     6.0000     0.3095     3.8840     3.8840     0.0000
 18 O      8.3325     8.0000    -0.3325     2.1418     2.1418     0.0000
 19 C      6.3011     6.0000    -0.3011     3.8041     3.8041     0.0000
 20 H      0.9100     1.0000     0.0900     0.9823     0.9823    -0.0000
 21 H      0.8968     1.0000     0.1032     0.9805     0.9805     0.0000
 22 H      0.9008     1.0000     0.0992     0.9822     0.9822     0.0000
 23 H      0.9032     1.0000     0.0968     0.9790     0.9790     0.0000
 24 H      0.9099     1.0000     0.0901     0.9774     0.9774    -0.0000
 25 H      0.8885     1.0000     0.1115     0.9829     0.9829    -0.0000
 26 H      0.8763     1.0000     0.1237     0.9762     0.9762     0.0000
 27 H      0.8663     1.0000     0.1337     0.9811     0.9811    -0.0000
 28 H      0.8162     1.0000     0.1838     1.0261     1.0261    -0.0000
 29 H      0.8183     1.0000     0.1817     1.0178     1.0178     0.0000
 30 H      0.8495     1.0000     0.1505     0.9924     0.9924     0.0000
 31 H      0.8568     1.0000     0.1432     0.9849     0.9849    -0.0000
 32 H      0.8385     1.0000     0.1615     0.9729     0.9729     0.0000
 33 H      0.8451     1.0000     0.1549     0.9869     0.9869    -0.0000
 34 H      0.7544     1.0000     0.2456     1.0055     1.0055    -0.0000
 35 H      0.8660     1.0000     0.1340     0.9956     0.9956    -0.0000

  Mayer bond orders larger than 0.100000
B(  0-C ,  1-C ) :   0.9670 B(  0-C , 20-H ) :   0.9803 B(  0-C , 21-H ) :   0.9797 
B(  0-C , 22-H ) :   0.9765 B(  1-C ,  2-O ) :   0.9352 B(  1-C , 23-H ) :   0.9739 
B(  1-C , 24-H ) :   0.9821 B(  2-O ,  3-C ) :   1.1472 B(  3-C ,  4-O ) :   1.9967 
B(  3-C ,  5-C ) :   1.0282 B(  5-C ,  6-C ) :   1.6350 B(  5-C , 12-C ) :   0.9704 
B(  6-C ,  7-C ) :   0.9584 B(  6-C ,  8-N ) :   1.1685 B(  7-C , 25-H ) :   0.9898 
B(  7-C , 26-H ) :   0.9606 B(  7-C , 27-H ) :   0.9669 B(  8-N ,  9-C ) :   1.1955 
B(  8-N , 28-H ) :   0.9533 B(  9-C , 10-S ) :   1.5624 B(  9-C , 11-N ) :   1.3241 
B( 11-N , 12-C ) :   0.9625 B( 11-N , 29-H ) :   0.9622 B( 12-C , 13-C ) :   0.9600 
B( 12-C , 30-H ) :   0.9867 B( 13-C , 14-C ) :   1.4105 B( 13-C , 19-C ) :   1.2937 
B( 14-C , 15-C ) :   1.3369 B( 14-C , 31-H ) :   0.9744 B( 15-C , 16-C ) :   1.4159 
B( 15-C , 32-H ) :   0.9740 B( 16-C , 17-C ) :   1.3111 B( 16-C , 33-H ) :   0.9716 
B( 17-C , 18-O ) :   1.1392 B( 17-C , 19-C ) :   1.3769 B( 18-O , 34-H ) :   0.9729 
B( 19-C , 35-H ) :   0.9784 

-------
TIMINGS
-------

Total SCF time: 0 days 2 hours 5 min 22 sec 

Total time                  ....    7522.881 sec
Sum of individual times     ....    7519.147 sec  (100.0%)

Fock matrix formation       ....    7505.189 sec  ( 99.8%)
Diagonalization             ....       1.737 sec  (  0.0%)
Density matrix formation    ....       0.222 sec  (  0.0%)
Population analysis         ....       0.217 sec  (  0.0%)
Initial guess               ....       6.243 sec  (  0.1%)
Orbital Transformation      ....       0.000 sec  (  0.0%)
Orbital Orthonormalization  ....       0.000 sec  (  0.0%)
DIIS solution               ....       1.930 sec  (  0.0%)
SOSCF solution              ....       2.177 sec  (  0.0%)

Maximum memory used throughout the entire SCF-calculation: 722.3 MB

------------------------------------------------------------------------------
                                ORCA  MP2 
------------------------------------------------------------------------------

Freezing NCore=48 chemical core electrons

-------------
RI-MP2 ENERGY
-------------
Dimension of the basis                    ...  828
Memory devoted to MP2                     ...  256 MB   
Data format for buffers                   ... DOUBLE
Compression type for matrix containers    ... UNCOMPRESSED
Overall scaling of the MP2 energy         ...   1.000e+00
Calculating two index integrals           ... done (    0.046 sec)
Cholesky decomposition of V**-1           ... done (    0.610 sec)

-----------------
RI-TRANSFORMATION (AUX index driven)
-----------------

Dimension of the orbital-basis         ... 828
Dimension of the aux-basis             ... 2141
Transformation of internal/external MOs...   24-  76 to   77- 827
Number Format for Storage              ... Double (8 Byte)
Integral mode                          ... Direct

First Phase: integral generation and transformation of MO indices
  Aux angular momentum 0               ... done (    5.280 sec)
  Aux angular momentum 1               ... done (    8.846 sec)
  Aux angular momentum 2               ... done (   11.352 sec)
  Aux angular momentum 3               ... done (    9.035 sec)
  Aux angular momentum 4               ... done (    3.112 sec)
Closing buffer VIA ( 0.63 GB; CompressionRatio= 1.00)
  Phase 1 completed in    37.812 sec
Second Phase: sorting and transformation of aux index

IA-Transformation
Memory available                       ... 158 MB 
Max. # MO pairs treated in a batch     ... 11    
# of internal orbitals                 ... 53
# batches for internal orbitals        ... 5
Closing buffer IAV ( 0.63 GB; CompressionRatio= 1.00)
(ia|v) transformation done in    19.858 sec

  Phase 2 completed in    19.874 sec
RI-Integral transformation completed in    57.694 sec
Opening buffers                              ... done

Starting loop over batches of integrals:

Operator 0  - window                       ... ( 24- 76)x( 77-827)
Operator 0  - Memory available             ...   256 MB
Operator 0  - Memory needed per MO         ...  12.3 MB
Operator 0  - Number of orbitals per batch ... 13
Operator 0  - Number of batches            ... 5

OPERATOR  0   PASS   0:  MOs    24 ...   36
  Reading integrals       ... ok
  Internal MO  26
  Internal MO  29
  Internal MO  32
  Internal MO  35
OPERATOR  0   PASS   1:  MOs    37 ...   49
  Reading integrals       ... ok
  Internal MO  38
  Internal MO  41
  Internal MO  44
  Internal MO  47
OPERATOR  0   PASS   2:  MOs    50 ...   62
  Reading integrals       ... ok
  Internal MO  50
  Internal MO  53
  Internal MO  56
  Internal MO  59
  Internal MO  62
OPERATOR  0   PASS   3:  MOs    63 ...   75
  Reading integrals       ... ok
  Internal MO  65
  Internal MO  68
  Internal MO  71
  Internal MO  74
OPERATOR  0   PASS   4:  MOs    76 ...   76
  Reading integrals       ... ok
Time spent in pair loops =    96.554 sec
Deleting buffer (Ka|jb)[aa] ...done

-----------------------------------------------
 RI-MP2 CORRELATION ENERGY:     -3.534326279 Eh
-----------------------------------------------


-------
TIMINGS
-------

Total time                :  155.008 sec
Integral trafo            :   57.717 sec ( 37.2%)
I/O of integrals          :    1.104 sec (  0.7%)
K(i,j) Operators          :   66.280 sec ( 42.8%)
T(i,j) pair energies      :    9.639 sec (  6.2%)
V-calculation             :    0.046 sec (  0.0%)
V**(-1/2)                 :    0.610 sec (  0.4%)
Gamma(ia|P)               :    0.000 sec (  0.0%)
Gamma-Trafo               :    0.000 sec (  0.0%)
D(virtual)                :    0.000 sec (  0.0%)
D(internal)               :    0.000 sec (  0.0%)
W(virtual)                :    0.000 sec (  0.0%)
W(internal)               :    0.000 sec (  0.0%)
L(virtual)                :    0.000 sec (  0.0%)
L(internal)               :    0.000 sec (  0.0%)
G(D)                      :    0.000 sec (  0.0%)
G(Z)                      :    0.000 sec (  0.0%)
Z-Vector Solution         :    0.000 sec (  0.0%)
3-Index Derivative        :    0.000 sec (  0.0%)
2-Index Derivative        :    0.000 sec (  0.0%)
Separable Gradient        :    0.000 sec (  0.0%)


---------------------------------------
MP2 TOTAL ENERGY:    -1274.314891311 Eh
---------------------------------------

Maximum memory used throughout the entire MP2-calculation: 303.4 MB

-------------------------   --------------------
FINAL SINGLE POINT ENERGY     -1274.314891311236
-------------------------   --------------------


                            ***************************************
                            *     ORCA property calculations      *
                            ***************************************


  WARNING: The energy has been calculated at the MP2 level but the densities
           used in the property calculations are still SCF densities
           MP2 response densities have not been calculated 
           use %mp2 Density relaxed end
           or  %mp2 Density unrelaxed end

                                    ---------------------
                                    Active property flags
                                    ---------------------
   (+) Dipole Moment


------------------------------------------------------------------------------
                       ORCA ELECTRIC PROPERTIES CALCULATION
------------------------------------------------------------------------------

Dipole Moment Calculation                       ... on
Quadrupole Moment Calculation                   ... off
Polarizability Calculation                      ... off
GBWName                                         ... qm_input.vacu.gbw
Electron density file                           ... qm_input.vacu.scfp
The origin for moment calculation is the CENTER OF MASS  = (19.686122,  2.147374 -0.629404)

-------------
DIPOLE MOMENT
-------------
                                X             Y             Z
Electronic contribution:     -3.44783     -13.35136     -10.86701
Nuclear contribution   :      3.87860      15.12857      11.92836
                        -----------------------------------------
Total Dipole Moment    :      0.43077       1.77721       1.06135
                        -----------------------------------------
Magnitude (a.u.)       :      2.11436
Magnitude (Debye)      :      5.37427



--------------------
Rotational spectrum 
--------------------
 
Rotational constants in cm-1:     0.010020     0.009287     0.005998 
Rotational constants in MHz :   300.378801   278.428397   179.816335 

 Dipole components along the rotational axes: 
x,y,z [a.u.] :     1.832538    -0.752333    -0.739123 
x,y,z [Debye]:     4.657941    -1.912278    -1.878702 

 

Timings for individual modules:

Sum of individual times         ...     7680.289 sec (= 128.005 min)
GTO integral calculation        ...        1.955 sec (=   0.033 min)   0.0 %
SCF iterations                  ...     7522.939 sec (= 125.382 min)  98.0 %
MP2 module                      ...      155.396 sec (=   2.590 min)   2.0 %
                             ****ORCA TERMINATED NORMALLY****
TOTAL RUN TIME: 0 days 2 hours 8 minutes 1 seconds 156 msec
