
                                        *****************
                                        * O   R   C   A *
                                        *****************

                                            #,                                       
                                            ###                                      
                                            ####                                     
                                            #####                                    
                                            ######                                   
                                           ########,                                 
                                     ,,################,,,,,                         
                               ,,#################################,,                 
                          ,,##########################################,,             
                       ,#########################################, ''#####,          
                    ,#############################################,,   '####,        
                  ,##################################################,,,,####,       
                ,###########''''           ''''###############################       
              ,#####''   ,,,,##########,,,,          '''####'''          '####       
            ,##' ,,,,###########################,,,                        '##       
           ' ,,###''''                  '''############,,,                           
         ,,##''                                '''############,,,,        ,,,,,,###''
      ,#''                                            '''#######################'''  
     '                                                          ''''####''''         
             ,#######,   #######,   ,#######,      ##                                
            ,#'     '#,  ##    ##  ,#'     '#,    #''#        ######   ,####,        
            ##       ##  ##   ,#'  ##            #'  '#       #        #'  '#        
            ##       ##  #######   ##           ,######,      #####,   #    #        
            '#,     ,#'  ##    ##  '#,     ,#' ,#      #,         ##   #,  ,#        
             '#######'   ##     ##  '#######'  #'      '#     #####' # '####'        



                  #######################################################
                  #                        -***-                        #
                  #          Department of theory and spectroscopy      #
                  #    Directorship and core code : Frank Neese         #
                  #        Max Planck Institute fuer Kohlenforschung    #
                  #                Kaiser Wilhelm Platz 1               #
                  #                 D-45470 Muelheim/Ruhr               #
                  #                      Germany                        #
                  #                                                     #
                  #                  All rights reserved                #
                  #                        -***-                        #
                  #######################################################


                         Program Version 5.0.0 -  RELEASE  -
                                (SVN: $Rev: 19529$)
                ($Date: 2021-06-28 11:36:33 +0200 (Mo, 28 Jun 2021) $)


 With contributions from (in alphabetic order):
   Daniel Aravena         : Magnetic Suceptibility
   Michael Atanasov       : Ab Initio Ligand Field Theory (pilot matlab implementation)
   Alexander A. Auer      : GIAO ZORA, VPT2 properties, NMR spectrum
   Ute Becker             : Parallelization
   Giovanni Bistoni       : ED, misc. LED, open-shell LED, HFLD
   Martin Brehm           : Molecular dynamics
   Dmytro Bykov           : SCF Hessian
   Vijay G. Chilkuri      : MRCI spin determinant printing, contributions to CSF-ICE
   Dipayan Datta          : RHF DLPNO-CCSD density
   Achintya Kumar Dutta   : EOM-CC, STEOM-CC
   Dmitry Ganyushin       : Spin-Orbit,Spin-Spin,Magnetic field MRCI
   Miquel Garcia          : C-PCM Hessian, Gaussian charge scheme
   Yang Guo               : DLPNO-NEVPT2, F12-NEVPT2, CIM, IAO-localization
   Andreas Hansen         : Spin unrestricted coupled pair/coupled cluster methods
   Benjamin Helmich-Paris : MC-RPA, TRAH-SCF, COSX integrals
   Lee Huntington         : MR-EOM, pCC
   Robert Izsak           : Overlap fitted RIJCOSX, COSX-SCS-MP3, EOM
   Marcus Kettner         : VPT2
   Christian Kollmar      : KDIIS, OOCD, Brueckner-CCSD(T), CCSD density, CASPT2, CASPT2-K
   Simone Kossmann        : Meta GGA functionals, TD-DFT gradient, OOMP2, MP2 Hessian
   Martin Krupicka        : Initial AUTO-CI
   Lucas Lang             : DCDCAS
   Marvin Lechner         : AUTO-CI (C++ implementation), FIC-MRCC
   Dagmar Lenk            : GEPOL surface, SMD
   Dimitrios Liakos       : Extrapolation schemes; Compound Job, initial MDCI parallelization
   Dimitrios Manganas     : Further ROCIS development; embedding schemes
   Dimitrios Pantazis     : SARC Basis sets
   Anastasios Papadopoulos: AUTO-CI, single reference methods and gradients
   Taras Petrenko         : DFT Hessian,TD-DFT gradient, ASA, ECA, R-Raman, ABS, FL, XAS/XES, NRVS
   Peter Pinski           : DLPNO-MP2, DLPNO-MP2 Gradient
   Christoph Reimann      : Effective Core Potentials
   Marius Retegan         : Local ZFS, SOC
   Christoph Riplinger    : Optimizer, TS searches, QM/MM, DLPNO-CCSD(T), (RO)-DLPNO pert. Triples
   Tobias Risthaus        : Range-separated hybrids, TD-DFT gradient, RPA, STAB
   Michael Roemelt        : Original ROCIS implementation
   Masaaki Saitow         : Open-shell DLPNO-CCSD energy and density
   Barbara Sandhoefer     : DKH picture change effects
   Avijit Sen             : IP-ROCIS
   Kantharuban Sivalingam : CASSCF convergence, NEVPT2, FIC-MRCI
   Bernardo de Souza      : ESD, SOC TD-DFT
   Georgi Stoychev        : AutoAux, RI-MP2 NMR
   Willem Van den Heuvel  : Paramagnetic NMR
   Boris Wezisla          : Elementary symmetry handling
   Frank Wennmohs         : Technical directorship


 We gratefully acknowledge several colleagues who have allowed us to
 interface, adapt or use parts of their codes:
   Stefan Grimme, W. Hujo, H. Kruse, P. Pracht,  : VdW corrections, initial TS optimization,
                  C. Bannwarth, S. Ehlert          DFT functionals, gCP, sTDA/sTD-DF
   Ed Valeev, F. Pavosevic, A. Kumar             : LibInt (2-el integral package), F12 methods
   Garnet Chan, S. Sharma, J. Yang, R. Olivares  : DMRG
   Ulf Ekstrom                                   : XCFun DFT Library
   Mihaly Kallay                                 : mrcc  (arbitrary order and MRCC methods)
   Jiri Pittner, Ondrej Demel                    : Mk-CCSD
   Frank Weinhold                                : gennbo (NPA and NBO analysis)
   Christopher J. Cramer and Donald G. Truhlar   : smd solvation model
   Lars Goerigk                                  : TD-DFT with DH, B97 family of functionals
   V. Asgeirsson, H. Jonsson                     : NEB implementation
   FAccTs GmbH                                   : IRC, NEB, NEB-TS, DLPNO-Multilevel, CI-OPT
                                                   MM, QMMM, 2- and 3-layer-ONIOM, Crystal-QMMM,
                                                   LR-CPCM, SF, NACMEs, symmetry and pop. for TD-DFT,
                                                   nearIR, NL-DFT gradient (VV10), updates on ESD,
                                                   ML-optimized integration grids
   S Lehtola, MJT Oliveira, MAL Marques          : LibXC Library
   Liviu Ungur et al                             : ANISO software


 Your calculation uses the libint2 library for the computation of 2-el integrals
 For citations please refer to: http://libint.valeyev.net

 Your ORCA version has been built with support for libXC version: 5.1.0
 For citations please refer to: https://tddft.org/programs/libxc/

 This ORCA versions uses:
   CBLAS   interface :  Fast vector & matrix operations
   LAPACKE interface :  Fast linear algebra routines
   SCALAPACK package :  Parallel linear algebra routines
   Shared memory     :  Shared parallel matrices
   BLAS/LAPACK       :  OpenBLAS 0.3.15  USE64BITINT DYNAMIC_ARCH NO_AFFINITY SkylakeX SINGLE_THREADED
        Core in use  :  SkylakeX
   Copyright (c) 2011-2014, The OpenBLAS Project


================================================================================

----- Orbital basis set information -----
Your calculation utilizes the basis: cc-pVTZ 
       H, B-Ne : Obtained from the ccRepo (grant-hill.group.shef.ac.uk/ccrepo) Feb. 2017
                 T. H. Dunning, Jr., J. Chem. Phys. 90, 1007 (1989)
            He : Obtained from the ccRepo (grant-hill.group.shef.ac.uk/ccrepo) Feb. 2017
                 D. E. Woon, T. H. Dunning, Jr., J. Chem. Phys. 100, 2975 (1994)
  Li-Be, Na-Mg : Obtained from the ccRepo (grant-hill.group.shef.ac.uk/ccrepo) Feb. 2017
                 B. P. Prascher, D. E. Woon, K. A. Peterson, T. H. Dunning, Jr., A. K. Wilson, Theor. Chem. Acc. 128, 69 (2011)
         Al-Ar : Obtained from the ccRepo (grant-hill.group.shef.ac.uk/ccrepo) Feb. 2017
                 D. E. Woon, T. H. Dunning, Jr., J. Chem. Phys. 98, 1358 (1993)
            Ca : Obtained from the Peterson Research Group Website (tyr0.chem.wsu.edu/~kipeters) Feb. 2017
                 J. Koput, K. A. Peterson, J. Phys. Chem. 106, 9595 (2002)
         Sc-Zn : Obtained from the ccRepo (grant-hill.group.shef.ac.uk/ccrepo) Feb. 2017
                 N. B. Balabanov, K. A. Peterson, J. Chem. Phys. 123, 064107 (2005)
                 N. B. Balabanov, K. A. Peterson, J. Chem. Phys. 125, 074110 (2006)
         Ga-Kr : Obtained from the ccRepo (grant-hill.group.shef.ac.uk/ccrepo) Feb. 2017
                 A. K. Wilson, D. E. Woon, K. A. Peterson, T. H. Dunning, Jr., J. Chem. Phys. 110, 7667 (1999)
             Y : Obtained from the ccRepo (grant-hill.group.shef.ac.uk/ccrepo) Feb. 2017
                 K. A. Peterson, D. Figgen, M. Dolg, H. Stoll, J. Chem. Phys. 126, 124101 (2007)
        Ag, Au : Obtained from the Peterson Research Group Website (tyr0.chem.wsu.edu/~kipeters) Feb. 2017
                 K. A. Peterson, C. Puzzarini, Theor. Chem. Acc. 114, 283 (2005)

----- AuxC basis set information -----
Your calculation utilizes the auxiliary basis: cc-pVTZ/C 
  Obtained from the EMSL Basis Set Exchange (bse.pnl.gov) Feb. 2017
  H-He, B-F, Al-Ar, Ga-Kr : F. Weigend, A. Kohn, C. Hattig, J. Chem. Phys. 116, 3175 (2002)
             Li-Be, Na-Mg : C. Haettig, Phys. Chem. Chem. Phys. 7, 59 (2005)
                       Ne : C. Haettig, Phys. Chem. Chem. Phys. 7, 59 (2005)
                            F. Weigend, A. Kohn, C. Hattig, J. Chem. Phys. 116, 3175 (2002)
                    Sc-Zn : J. G. Hill, J. A. Platts, J. Chem. Phys. 128, 044104 (2008)

================================================================================
                                        WARNINGS
                       Please study these warnings very carefully!
================================================================================


WARNING: No MP2 level density has been requested!
         To caclulate MP2 level properties use
         %mp2 Density relaxed end
         or
         %mp2 Density unrelaxed end

WARNING: Post HF methods need fully converged wavefunctions
  ===> : Setting SCFConvForced true
         You can overwrite this default with %scf ConvForced false 


INFO   : the flag for use of the SHARK integral package has been found!

================================================================================
                                       INPUT FILE
================================================================================
NAME = qm_input.vacu
|  1> ! RI-MP2 cc-pVTZ cc-pVTZ/c TightSCF KeepDens NoKeepInts
|  2> 
|  3> *xyz  0  1
|  4>     C     6.7205893    4.6254973   13.9417838
|  5>     C     6.0951465    6.0122104   13.7996022
|  6>     O     6.1375885    6.2935132   12.4117462
|  7>     C     5.0838928    5.8259890   11.6856296
|  8>     O     4.0971263    5.2776948   12.1312695
|  9>     C     5.2718406    6.1731532   10.1999499
| 10>     C     4.4708351    5.6293941    9.2401526
| 11>     C     3.2293501    4.8343824    9.4887108
| 12>     N     4.8390074    5.7250214    7.9178385
| 13>     C     5.9928817    6.3110828    7.4561444
| 14>     S     6.2923900    6.5057804    5.8721293
| 15>     N     6.7473008    7.0484188    8.3623958
| 16>     C     6.4377867    7.1511272    9.8210368
| 17>     C     6.3473677    8.6268068   10.2614632
| 18>     C     7.3312090    9.0125793   11.1767961
| 19>     C     7.4472767   10.3835391   11.5154782
| 20>     C     6.4901442   11.2513755   11.1111809
| 21>     C     5.4495575   10.7894034   10.3473574
| 22>     O     4.4648601   11.6557551   10.0863815
| 23>     C     5.3476369    9.5028981    9.9042339
| 24>     H     6.5690259    4.0352178   13.0297613
| 25>     H     6.4014966    4.0496282   14.8191345
| 26>     H     7.7971642    4.7628830   14.1008535
| 27>     H     5.0570314    6.0742515   14.1483964
| 28>     H     6.7172282    6.6713928   14.4174084
| 29>     H     3.3691544    3.9595324   10.1354539
| 30>     H     2.8021384    4.5205841    8.5283926
| 31>     H     2.5304145    5.5669990    9.9105537
| 32>     H     4.2072117    5.3752404    7.2075892
| 33>     H     7.4489564    7.6749460    7.9867504
| 34>     H     7.3489617    6.6994922   10.2321088
| 35>     H     8.0842396    8.3105451   11.5224679
| 36>     H     8.1880916   10.8225679   12.1771752
| 37>     H     6.6441747   12.3167813   11.2546417
| 38>     H     4.8805923   12.4808530   10.3915197
| 39>     H     4.5084752    9.1116840    9.3366467
| 40> *
| 41> 
| 42>                          ****END OF INPUT****
================================================================================

                       ****************************
                       * Single Point Calculation *
                       ****************************

---------------------------------
CARTESIAN COORDINATES (ANGSTROEM)
---------------------------------
  C      6.720589    4.625497   13.941784
  C      6.095146    6.012210   13.799602
  O      6.137588    6.293513   12.411746
  C      5.083893    5.825989   11.685630
  O      4.097126    5.277695   12.131270
  C      5.271841    6.173153   10.199950
  C      4.470835    5.629394    9.240153
  C      3.229350    4.834382    9.488711
  N      4.839007    5.725021    7.917839
  C      5.992882    6.311083    7.456144
  S      6.292390    6.505780    5.872129
  N      6.747301    7.048419    8.362396
  C      6.437787    7.151127    9.821037
  C      6.347368    8.626807   10.261463
  C      7.331209    9.012579   11.176796
  C      7.447277   10.383539   11.515478
  C      6.490144   11.251375   11.111181
  C      5.449558   10.789403   10.347357
  O      4.464860   11.655755   10.086381
  C      5.347637    9.502898    9.904234
  H      6.569026    4.035218   13.029761
  H      6.401497    4.049628   14.819135
  H      7.797164    4.762883   14.100853
  H      5.057031    6.074251   14.148396
  H      6.717228    6.671393   14.417408
  H      3.369154    3.959532   10.135454
  H      2.802138    4.520584    8.528393
  H      2.530414    5.566999    9.910554
  H      4.207212    5.375240    7.207589
  H      7.448956    7.674946    7.986750
  H      7.348962    6.699492   10.232109
  H      8.084240    8.310545   11.522468
  H      8.188092   10.822568   12.177175
  H      6.644175   12.316781   11.254642
  H      4.880592   12.480853   10.391520
  H      4.508475    9.111684    9.336647

----------------------------
CARTESIAN COORDINATES (A.U.)
----------------------------
  NO LB      ZA    FRAG     MASS         X           Y           Z
   0 C     6.0000    0    12.011   12.700073    8.740923   26.346153
   1 C     6.0000    0    12.011   11.518158   11.361431   26.077469
   2 O     8.0000    0    15.999   11.598361   11.893016   23.454801
   3 C     6.0000    0    12.011    9.607165   11.009524   22.082640
   4 O     8.0000    0    15.999    7.742447    9.973398   22.924777
   5 C     6.0000    0    12.011    9.962335   11.665569   19.275112
   6 C     6.0000    0    12.011    8.448654   10.638013   17.461358
   7 C     6.0000    0    12.011    6.102587    9.135659   17.931065
   8 N     7.0000    0    14.007    9.144399   10.818723   14.962546
   9 C     6.0000    0    12.011   11.324905   11.926218   14.090071
  10 S    16.0000    0    32.060   11.890894   12.294143   11.096716
  11 N     7.0000    0    14.007   12.750551   13.319581   15.802638
  12 C     6.0000    0    12.011   12.165654   13.513672   18.559070
  13 C     6.0000    0    12.011   11.994787   16.302302   19.391355
  14 C     6.0000    0    12.011   13.853977   17.031307   21.121084
  15 C     6.0000    0    12.011   14.073313   19.622045   21.761100
  16 C     6.0000    0    12.011   12.264595   21.262018   20.997089
  17 C     6.0000    0    12.011   10.298171   20.389018   19.553672
  18 O     8.0000    0    15.999    8.437363   22.026185   19.060499
  19 C     6.0000    0    12.011   10.105569   17.957875   18.716290
  20 H     1.0000    0     1.008   12.413660    7.625457   24.622680
  21 H     1.0000    0     1.008   12.097075    7.652688   28.004106
  22 H     1.0000    0     1.008   14.734505    9.000544   26.646751
  23 H     1.0000    0     1.008    9.556404   11.478672   26.736594
  24 H     1.0000    0     1.008   12.693722   12.607105   27.244953
  25 H     1.0000    0     1.008    6.366779    7.482432   19.153232
  26 H     1.0000    0     1.008    5.295274    8.542666   16.116326
  27 H     1.0000    0     1.008    4.781790   10.520103   18.728232
  28 H     1.0000    0     1.008    7.950478   10.157732   13.620370
  29 H     1.0000    0     1.008   14.076488   14.503546   15.092771
  30 H     1.0000    0     1.008   13.887525   12.660205   19.335883
  31 H     1.0000    0     1.008   15.276999   15.704654   21.774309
  32 H     1.0000    0     1.008   15.473251   20.451689   23.011526
  33 H     1.0000    0     1.008   12.555671   23.275344   21.268191
  34 H     1.0000    0     1.008    9.222983   23.585394   19.637126
  35 H     1.0000    0     1.008    8.519783   17.218587   17.643705

--------------------------------
INTERNAL COORDINATES (ANGSTROEM)
--------------------------------
 C      0   0   0     0.000000000000     0.00000000     0.00000000
 C      1   0   0     1.527863712889     0.00000000     0.00000000
 O      2   1   0     1.416713402699   105.01763106     0.00000000
 C      3   2   1     1.362387177927   115.51887164    86.25776872
 O      4   3   2     1.213643100647   126.02704537     4.91115541
 C      4   3   2     1.537235027014   110.06211960   181.20390358
 C      6   4   3     1.363266161448   121.23266284   169.09285442
 C      7   6   4     1.495028356637   125.65977600     9.80878102
 N      7   6   4     1.375939679656   119.44992901   194.06107185
 C      9   7   6     1.374065248358   125.25757491     1.58393063
 S     10   9   7     1.623796851285   122.26299318   185.74214189
 N     10   9   7     1.390720732334   117.56233848   349.31804485
 C     12  10   9     1.494650982808   124.05856317     5.00893158
 C     13  12  10     1.542653976507   110.88492950   233.37563060
 C     14  13  12     1.398069541605   114.18133313   244.55857805
 C     15  14  13     1.416936148547   118.75827409   171.97832393
 C     16  15  14     1.353772117643   119.40317360     9.89175273
 C     17  16  15     1.371008840434   119.14311628   358.03765098
 O     18  17  16     1.337274339109   116.69944254   173.57612051
 C     18  17  16     1.364493360880   123.73274989   356.56531179
 H      1   2   3     1.096898533524   110.76173037   331.72644619
 H      1   2   3     1.096900005615   115.58467378   205.75351066
 H      1   2   3     1.096900868508   107.55309282    90.60007347
 H      2   1   3     1.096899928385   114.15229914   119.55052068
 H      2   1   3     1.096900897394   105.12111418   238.79830290
 H      8   7   6     1.096897626124   114.60185850   304.13832455
 H      8   7   6     1.096900293988   109.26837760   180.53211376
 H      8   7   6     1.096899944308   103.76264500    67.54264806
 H      9   7   6     1.012900104971   118.87975415   184.19458734
 H     12  10   9     1.012899985138   117.51958225   195.84015873
 H     13  12  10     1.096902111874    99.52143946   118.02421760
 H     15  14  13     1.086000044117   121.19645399     0.40712869
 H     16  15  14     1.085999964595   126.34598041   182.62677896
 H     17  16  15     1.085999960746   119.28575299   188.11062133
 H     19  18  17     0.973000065673    99.99442786    11.31145247
 H     20  18  17     1.086000027804   124.54762390   177.13124761

---------------------------
INTERNAL COORDINATES (A.U.)
---------------------------
 C      0   0   0     0.000000000000     0.00000000     0.00000000
 C      1   0   0     2.887243987316     0.00000000     0.00000000
 O      2   1   0     2.677200341357   105.01763106     0.00000000
 C      3   2   1     2.574538654648   115.51887164    86.25776872
 O      4   3   2     2.293453084546   126.02704537     4.91115541
 C      4   3   2     2.904953204527   110.06211960   181.20390358
 C      6   4   3     2.576199692780   121.23266284   169.09285442
 C      7   6   4     2.825194156491   125.65977600     9.80878102
 N      7   6   4     2.600149171345   119.44992901   194.06107185
 C      9   7   6     2.596607009535   125.25757491     1.58393063
 S     10   9   7     3.068531346052   122.26299318   185.74214189
 N     10   9   7     2.628081312877   117.56233848   349.31804485
 C     12  10   9     2.824481023304   124.05856317     5.00893158
 C     13  12  10     2.915193535004   110.88492950   233.37563060
 C     14  13  12     2.641968549811   114.18133313   244.55857805
 C     15  14  13     2.677621270007   118.75827409   171.97832393
 C     16  15  14     2.558258550085   119.40317360     9.89175273
 C     17  16  15     2.590831235605   119.14311628   358.03765098
 O     18  17  16     2.527082266837   116.69944254   173.57612051
 C     18  17  16     2.578518763616   123.73274989   356.56531179
 H      1   2   3     2.072837825059   110.76173037   331.72644619
 H      1   2   3     2.072840606909   115.58467378   205.75351066
 H      1   2   3     2.072842237540   107.55309282    90.60007347
 H      2   1   3     2.072840460965   114.15229914   119.55052068
 H      2   1   3     2.072842292127   105.12111418   238.79830290
 H      8   7   6     2.072836110322   114.60185850   304.13832455
 H      8   7   6     2.072841151855   109.26837760   180.53211376
 H      8   7   6     2.072840491056   103.76264500    67.54264806
 H      9   7   6     1.914103799415   118.87975415   184.19458734
 H     12  10   9     1.914103572964   117.51958225   195.84015873
 H     13  12  10     2.072844587162    99.52143946   118.02421760
 H     15  14  13     2.052242664807   121.19645399     0.40712869
 H     16  15  14     2.052242514533   126.34598041   182.62677896
 H     17  16  15     2.052242507259   119.28575299   188.11062133
 H     19  18  17     1.838703652410    99.99442786    11.31145247
 H     20  18  17     2.052242633980   124.54762390   177.13124761

---------------------
BASIS SET INFORMATION
---------------------
There are 5 groups of distinct atoms

 Group   1 Type C   : 18s5p2d1f contracted to 4s3p2d1f pattern {8811/311/11/1}
 Group   2 Type O   : 18s5p2d1f contracted to 4s3p2d1f pattern {8811/311/11/1}
 Group   3 Type N   : 18s5p2d1f contracted to 4s3p2d1f pattern {8811/311/11/1}
 Group   4 Type S   : 41s16p2d1f contracted to 5s4p2d1f pattern {13131311/7711/11/1}
 Group   5 Type H   : 5s2p1d contracted to 3s2p1d pattern {311/11/1}

Atom   0C    basis set group =>   1
Atom   1C    basis set group =>   1
Atom   2O    basis set group =>   2
Atom   3C    basis set group =>   1
Atom   4O    basis set group =>   2
Atom   5C    basis set group =>   1
Atom   6C    basis set group =>   1
Atom   7C    basis set group =>   1
Atom   8N    basis set group =>   3
Atom   9C    basis set group =>   1
Atom  10S    basis set group =>   4
Atom  11N    basis set group =>   3
Atom  12C    basis set group =>   1
Atom  13C    basis set group =>   1
Atom  14C    basis set group =>   1
Atom  15C    basis set group =>   1
Atom  16C    basis set group =>   1
Atom  17C    basis set group =>   1
Atom  18O    basis set group =>   2
Atom  19C    basis set group =>   1
Atom  20H    basis set group =>   5
Atom  21H    basis set group =>   5
Atom  22H    basis set group =>   5
Atom  23H    basis set group =>   5
Atom  24H    basis set group =>   5
Atom  25H    basis set group =>   5
Atom  26H    basis set group =>   5
Atom  27H    basis set group =>   5
Atom  28H    basis set group =>   5
Atom  29H    basis set group =>   5
Atom  30H    basis set group =>   5
Atom  31H    basis set group =>   5
Atom  32H    basis set group =>   5
Atom  33H    basis set group =>   5
Atom  34H    basis set group =>   5
Atom  35H    basis set group =>   5
---------------------------------
AUXILIARY/C BASIS SET INFORMATION
---------------------------------
There are 5 groups of distinct atoms

 Group   1 Type C   : 8s6p5d3f1g contracted to 8s6p5d3f1g pattern {11111111/111111/11111/111/1}
 Group   2 Type O   : 8s6p5d3f1g contracted to 8s6p5d3f1g pattern {11111111/111111/11111/111/1}
 Group   3 Type N   : 8s6p5d3f1g contracted to 8s6p5d3f1g pattern {11111111/111111/11111/111/1}
 Group   4 Type S   : 10s8p7d5f2g contracted to 10s8p7d5f2g pattern {1111111111/11111111/1111111/11111/11}
 Group   5 Type H   : 4s3p2d1f contracted to 4s3p2d1f pattern {1111/111/11/1}

Atom   0C    basis set group =>   1
Atom   1C    basis set group =>   1
Atom   2O    basis set group =>   2
Atom   3C    basis set group =>   1
Atom   4O    basis set group =>   2
Atom   5C    basis set group =>   1
Atom   6C    basis set group =>   1
Atom   7C    basis set group =>   1
Atom   8N    basis set group =>   3
Atom   9C    basis set group =>   1
Atom  10S    basis set group =>   4
Atom  11N    basis set group =>   3
Atom  12C    basis set group =>   1
Atom  13C    basis set group =>   1
Atom  14C    basis set group =>   1
Atom  15C    basis set group =>   1
Atom  16C    basis set group =>   1
Atom  17C    basis set group =>   1
Atom  18O    basis set group =>   2
Atom  19C    basis set group =>   1
Atom  20H    basis set group =>   5
Atom  21H    basis set group =>   5
Atom  22H    basis set group =>   5
Atom  23H    basis set group =>   5
Atom  24H    basis set group =>   5
Atom  25H    basis set group =>   5
Atom  26H    basis set group =>   5
Atom  27H    basis set group =>   5
Atom  28H    basis set group =>   5
Atom  29H    basis set group =>   5
Atom  30H    basis set group =>   5
Atom  31H    basis set group =>   5
Atom  32H    basis set group =>   5
Atom  33H    basis set group =>   5
Atom  34H    basis set group =>   5
Atom  35H    basis set group =>   5
------------------------------------------------------------------------------
                           ORCA GTO INTEGRAL CALCULATION
------------------------------------------------------------------------------
------------------------------------------------------------------------------
                   ___                                                        
                  /   \      - P O W E R E D   B Y -                         
                 /     \                                                     
                 |  |  |   _    _      __       _____    __    __             
                 |  |  |  | |  | |    /  \     |  _  \  |  |  /  |          
                  \  \/   | |  | |   /    \    | | | |  |  | /  /          
                 / \  \   | |__| |  /  /\  \   | |_| |  |  |/  /          
                |  |  |   |  __  | /  /__\  \  |    /   |      \           
                |  |  |   | |  | | |   __   |  |    \   |  |\   \          
                \     /   | |  | | |  |  |  |  | |\  \  |  | \   \       
                 \___/    |_|  |_| |__|  |__|  |_| \__\ |__|  \__/        
                                                                              
                      - O R C A' S   B I G   F R I E N D -                    
                                      &                                       
                       - I N T E G R A L  F E E D E R -                       
                                                                              
 v1 FN, 2020, v2 2021                                                         
------------------------------------------------------------------------------


Reading SHARK input file qm_input.vacu.SHARKINP.tmp ... ok
----------------------
SHARK INTEGRAL PACKAGE
----------------------

Number of atoms                             ...     36
Number of basis functions                   ...    828
Number of shells                            ...    298
Maximum angular momentum                    ...      3
Integral batch strategy                     ... SHARK/LIBINT Hybrid
RI-J (if used) integral strategy            ... SPLIT-RIJ (Revised 2003 algorithm where possible)
Printlevel                                  ...      1
Contraction scheme used                     ... SEGMENTED contraction
Coulomb Range Separation                    ... NOT USED
Exchange Range Separation                   ... NOT USED
Finite Nucleus Model                        ... NOT USED
Auxiliary Coulomb fitting basis             ... NOT available
Auxiliary J/K fitting basis                 ... NOT available
Auxiliary Correlation fitting basis         ... AVAILABLE
   # of basis functions in Aux-C            ...   2141
   # of shells in Aux-C                     ...    629
   Maximum angular momentum in Aux-C        ...      4
Auxiliary 'external' fitting basis          ... NOT available
Integral threshold                          ...     2.500000e-11
Primitive cut-off                           ...     2.500000e-12
Primitive pair pre-selection threshold      ...     2.500000e-12

Calculating pre-screening integrals         ... done (  0.6 sec) Dimension = 298
Organizing shell pair data                  ... done (  0.4 sec)
Shell pair information
Total number of shell pairs                 ...     44551
Shell pairs after pre-screening             ...     32263
Total number of primitive shell pairs       ...    234348
Primitive shell pairs kept                  ...     93082
          la=0 lb=0:   6473 shell pairs
          la=1 lb=0:   8987 shell pairs
          la=1 lb=1:   3177 shell pairs
          la=2 lb=0:   5133 shell pairs
          la=2 lb=1:   3516 shell pairs
          la=2 lb=2:   1001 shell pairs
          la=3 lb=0:   1858 shell pairs
          la=3 lb=1:   1272 shell pairs
          la=3 lb=2:    708 shell pairs
          la=3 lb=3:    138 shell pairs

Calculating one electron integrals          ... done (  0.4 sec)
Calculating RI/C V-Matrix + Cholesky decomp.... done (  0.4 sec)
Calculating Nuclear repulsion               ... done (  0.0 sec) ENN=   1686.730966049895 Eh

SHARK setup successfully completed in   1.9 seconds

Maximum memory used throughout the entire GTOINT-calculation: 476.0 MB
-------------------------------------------------------------------------------
                                 ORCA SCF
-------------------------------------------------------------------------------

------------
SCF SETTINGS
------------
Hamiltonian:
 Ab initio Hamiltonian  Method          .... Hartree-Fock(GTOs)


General Settings:
 Integral files         IntName         .... qm_input.vacu
 Hartree-Fock type      HFTyp           .... RHF
 Total Charge           Charge          ....    0
 Multiplicity           Mult            ....    1
 Number of Electrons    NEL             ....  154
 Basis Dimension        Dim             ....  828
 Nuclear Repulsion      ENuc            ....   1686.7309660499 Eh

Convergence Acceleration:
 DIIS                   CNVDIIS         .... on
   Start iteration      DIISMaxIt       ....    12
   Startup error        DIISStart       ....  0.200000
   # of expansion vecs  DIISMaxEq       ....     5
   Bias factor          DIISBfac        ....   1.050
   Max. coefficient     DIISMaxC        ....  10.000
 Trust-Rad. Augm. Hess. CNVTRAH         .... auto
   Auto Start mean grad. ratio tolernc. ....  1.125000
   Auto Start start iteration           ....    20
   Auto Start num. interpolation iter.  ....    10
   Max. Number of Micro iterations      ....    16
   Max. Number of Macro iterations      .... Maxiter - #DIIS iter
   Number of Davidson start vectors     ....     2
   Converg. threshold I  (grad. norm)   ....   1.000e-05
   Converg. threshold II (energy diff.) ....   1.000e-08
   Grad. Scal. Fac. for Micro threshold ....   0.100
   Minimum threshold for Micro iter.    ....   0.010
   NR start threshold (gradient norm)   ....   0.001
   Initial trust radius                 ....   0.400
   Minimum AH scaling param. (alpha)    ....   1.000
   Maximum AH scaling param. (alpha)    .... 1000.000
   Orbital update algorithm             .... Taylor
   White noise on init. David. guess    .... on
   Maximum white noise                  ....   0.010
   Quad. conv. algorithm                .... NR
 SOSCF                  CNVSOSCF        .... on
   Start iteration      SOSCFMaxIt      ....   150
   Startup grad/error   SOSCFStart      ....  0.003300
 Level Shifting         CNVShift        .... on
   Level shift para.    LevelShift      ....    0.2500
   Turn off err/grad.   ShiftErr        ....    0.0010
 Zerner damping         CNVZerner       .... off
 Static damping         CNVDamp         .... on
   Fraction old density DampFac         ....    0.7000
   Max. Damping (<1)    DampMax         ....    0.9800
   Min. Damping (>=0)   DampMin         ....    0.0000
   Turn off err/grad.   DampErr         ....    0.1000
 Fernandez-Rico         CNVRico         .... off

SCF Procedure:
 Maximum # iterations   MaxIter         ....   125
 SCF integral mode      SCFMode         .... Direct
   Integral package                     .... SHARK and LIBINT hybrid scheme
 Reset frequency        DirectResetFreq ....    20
 Integral Threshold     Thresh          ....  2.500e-11 Eh
 Primitive CutOff       TCut            ....  2.500e-12 Eh

Convergence Tolerance:
 Convergence Check Mode ConvCheckMode   .... Total+1el-Energy
 Convergence forced     ConvForced      .... 1
 Energy Change          TolE            ....  1.000e-08 Eh
 1-El. energy change                    ....  1.000e-05 Eh
 Orbital Gradient       TolG            ....  1.000e-05
 Orbital Rotation angle TolX            ....  1.000e-05
 DIIS Error             TolErr          ....  5.000e-07


Diagonalization of the overlap matrix:
Smallest eigenvalue                        ... 4.285e-05
Time for diagonalization                   ...    0.152 sec
Threshold for overlap eigenvalues          ... 1.000e-08
Number of eigenvalues below threshold      ... 0
Time for construction of square roots      ...    0.066 sec
Total time needed                          ...    0.222 sec

Time for model grid setup =    1.449 sec

------------------------------
INITIAL GUESS: MODEL POTENTIAL
------------------------------
Loading Hartree-Fock densities                     ... done
Calculating cut-offs                               ... done
Initializing the effective Hamiltonian             ... done
Setting up the integral package (SHARK)            ... done
Starting the Coulomb interaction                   ... done (   4.4 sec)
Reading the grid                                   ... done
Mapping shells                                     ... done
Starting the XC term evaluation                    ... done (   1.4 sec)
Transforming the Hamiltonian                       ... done (   0.1 sec)
Diagonalizing the Hamiltonian                      ... done (   0.1 sec)
Back transforming the eigenvectors                 ... done (   0.0 sec)
Now organizing SCF variables                       ... done
                      ------------------
                      INITIAL GUESS DONE (   7.5 sec)
                      ------------------
--------------
SCF ITERATIONS
--------------
ITER       Energy         Delta-E        Max-DP      RMS-DP      [F,P]     Damp
               ***  Starting incremental Fock matrix formation  ***
  0  -1269.9541122779   0.000000000000 0.04923279  0.00045344  0.3120715 0.7000
  1  -1270.2298930394  -0.275780761526 0.03600143  0.00038869  0.1855381 0.7000
                               ***Turning on DIIS***
  2  -1270.4016454161  -0.171752376667 0.02577019  0.00025919  0.1095444 0.7000
  3  -1272.5846186825  -2.182973266451 0.06293130  0.00052088  0.0827465 0.0000
  4  -1270.7068014492   1.877817233361 0.01273359  0.00012523  0.0072792 0.0000
  5  -1270.7801163976  -0.073314948441 0.00425019  0.00005584  0.0045805 0.0000
                      *** Initiating the SOSCF procedure ***
                           *** Shutting down DIIS ***
                      *** Re-Reading the Fockian *** 
                      *** Removing any level shift *** 
ITER      Energy       Delta-E        Grad      Rot      Max-DP    RMS-DP
  6  -1270.75924675   0.0208696428  0.001587  0.001587  0.001809  0.000027
               *** Restarting incremental Fock matrix formation ***
  7  -1270.77348614  -0.0142393824  0.000683  0.001679  0.001249  0.000015
  8  -1270.77352749  -0.0000413535  0.000402  0.001749  0.001297  0.000015
  9  -1270.77354226  -0.0000147739  0.000157  0.000279  0.000345  0.000004
 10  -1270.77354398  -0.0000017163  0.000034  0.000089  0.000101  0.000001
 11  -1270.77354413  -0.0000001492  0.000023  0.000111  0.000052  0.000001
 12  -1270.77354417  -0.0000000449  0.000008  0.000035  0.000028  0.000000
 13  -1270.77354418  -0.0000000041  0.000003  0.000012  0.000008  0.000000
                 **** Energy Check signals convergence ****
              ***Rediagonalizing the Fockian in SOSCF/NRSCF***

               *****************************************************
               *                     SUCCESS                       *
               *           SCF CONVERGED AFTER  14 CYCLES          *
               *****************************************************


----------------
TOTAL SCF ENERGY
----------------

Total Energy       :        -1270.77354417 Eh          -34579.50613 eV

Components:
Nuclear Repulsion  :         1686.73096605 Eh           45898.28301 eV
Electronic Energy  :        -2957.50451022 Eh          -80477.78913 eV
One Electron Energy:        -5094.65599035 Eh         -138632.63744 eV
Two Electron Energy:         2137.15148013 Eh           58154.84831 eV

Virial components:
Potential Energy   :        -2540.31035756 Eh          -69125.35909 eV
Kinetic Energy     :         1269.53681339 Eh           34545.85297 eV
Virial Ratio       :            2.00097416


---------------
SCF CONVERGENCE
---------------

  Last Energy change         ...    8.3455e-09  Tolerance :   1.0000e-08
  Last MAX-Density change    ...    1.6947e-06  Tolerance :   1.0000e-07
  Last RMS-Density change    ...    2.6227e-08  Tolerance :   5.0000e-09
  Last Orbital Gradient      ...    1.2899e-06  Tolerance :   1.0000e-05
  Last Orbital Rotation      ...    2.4102e-06  Tolerance :   1.0000e-05

             **** THE GBW FILE WAS UPDATED (qm_input.vacu.gbw) ****
             **** DENSITY qm_input.vacu.scfp WAS UPDATED ****
             **** ENERGY FILE WAS UPDATED (qm_input.vacu.en.tmp) ****
             **** THE GBW FILE WAS UPDATED (qm_input.vacu.gbw) ****
             **** DENSITY qm_input.vacu.scfp WAS UPDATED ****
----------------
ORBITAL ENERGIES
----------------

  NO   OCC          E(Eh)            E(eV) 
   0   2.0000     -91.887688     -2500.3911 
   1   2.0000     -20.607825      -560.7674 
   2   2.0000     -20.592131      -560.3404 
   3   2.0000     -20.546557      -559.1003 
   4   2.0000     -15.628690      -425.2783 
   5   2.0000     -15.600199      -424.5030 
   6   2.0000     -11.396918      -310.1259 
   7   2.0000     -11.382453      -309.7323 
   8   2.0000     -11.329449      -308.2900 
   9   2.0000     -11.304521      -307.6116 
  10   2.0000     -11.302425      -307.5546 
  11   2.0000     -11.292207      -307.2766 
  12   2.0000     -11.257410      -306.3297 
  13   2.0000     -11.255341      -306.2734 
  14   2.0000     -11.249822      -306.1232 
  15   2.0000     -11.248585      -306.0896 
  16   2.0000     -11.235626      -305.7369 
  17   2.0000     -11.231472      -305.6239 
  18   2.0000     -11.231003      -305.6111 
  19   2.0000     -11.223921      -305.4184 
  20   2.0000      -8.894114      -242.0211 
  21   2.0000      -6.575779      -178.9360 
  22   2.0000      -6.573687      -178.8791 
  23   2.0000      -6.573037      -178.8614 
  24   2.0000      -1.462576       -39.7987 
  25   2.0000      -1.427485       -38.8438 
  26   2.0000      -1.366962       -37.1969 
  27   2.0000      -1.335775       -36.3483 
  28   2.0000      -1.231181       -33.5021 
  29   2.0000      -1.168294       -31.7909 
  30   2.0000      -1.116216       -30.3738 
  31   2.0000      -1.051343       -28.6085 
  32   2.0000      -1.041377       -28.3373 
  33   2.0000      -1.018050       -27.7026 
  34   2.0000      -0.995615       -27.0920 
  35   2.0000      -0.986026       -26.8311 
  36   2.0000      -0.917324       -24.9616 
  37   2.0000      -0.893193       -24.3050 
  38   2.0000      -0.845624       -23.0106 
  39   2.0000      -0.840989       -22.8845 
  40   2.0000      -0.835825       -22.7440 
  41   2.0000      -0.810654       -22.0590 
  42   2.0000      -0.763551       -20.7773 
  43   2.0000      -0.728931       -19.8352 
  44   2.0000      -0.721916       -19.6443 
  45   2.0000      -0.701638       -19.0925 
  46   2.0000      -0.687561       -18.7095 
  47   2.0000      -0.685312       -18.6483 
  48   2.0000      -0.671502       -18.2725 
  49   2.0000      -0.659703       -17.9514 
  50   2.0000      -0.643557       -17.5121 
  51   2.0000      -0.636604       -17.3229 
  52   2.0000      -0.633042       -17.2259 
  53   2.0000      -0.617631       -16.8066 
  54   2.0000      -0.608118       -16.5477 
  55   2.0000      -0.603850       -16.4316 
  56   2.0000      -0.602581       -16.3971 
  57   2.0000      -0.580424       -15.7941 
  58   2.0000      -0.569513       -15.4972 
  59   2.0000      -0.567968       -15.4552 
  60   2.0000      -0.561666       -15.2837 
  61   2.0000      -0.540529       -14.7085 
  62   2.0000      -0.538563       -14.6550 
  63   2.0000      -0.534431       -14.5426 
  64   2.0000      -0.525770       -14.3069 
  65   2.0000      -0.514664       -14.0047 
  66   2.0000      -0.497710       -13.5434 
  67   2.0000      -0.489873       -13.3301 
  68   2.0000      -0.486004       -13.2248 
  69   2.0000      -0.460899       -12.5417 
  70   2.0000      -0.458879       -12.4867 
  71   2.0000      -0.448531       -12.2051 
  72   2.0000      -0.359692        -9.7877 
  73   2.0000      -0.346565        -9.4305 
  74   2.0000      -0.328203        -8.9309 
  75   2.0000      -0.318854        -8.6764 
  76   2.0000      -0.316912        -8.6236 
  77   0.0000       0.076687         2.0868 
  78   0.0000       0.112548         3.0626 
  79   0.0000       0.122879         3.3437 
  80   0.0000       0.130645         3.5550 
  81   0.0000       0.137927         3.7532 
  82   0.0000       0.141109         3.8398 
  83   0.0000       0.155300         4.2259 
  84   0.0000       0.159237         4.3331 
  85   0.0000       0.162849         4.4313 
  86   0.0000       0.169314         4.6073 
  87   0.0000       0.175742         4.7822 
  88   0.0000       0.186342         5.0706 
  89   0.0000       0.190858         5.1935 
  90   0.0000       0.198952         5.4137 
  91   0.0000       0.212062         5.7705 
  92   0.0000       0.213607         5.8126 
  93   0.0000       0.222462         6.0535 
  94   0.0000       0.232521         6.3272 
  95   0.0000       0.238645         6.4939 
  96   0.0000       0.246245         6.7007 
  97   0.0000       0.251331         6.8391 
  98   0.0000       0.263354         7.1662 
  99   0.0000       0.269710         7.3392 
 100   0.0000       0.297774         8.1028 
 101   0.0000       0.299863         8.1597 
 102   0.0000       0.315570         8.5871 
 103   0.0000       0.320236         8.7141 
 104   0.0000       0.327284         8.9059 
 105   0.0000       0.335674         9.1342 
 106   0.0000       0.342518         9.3204 
 107   0.0000       0.353368         9.6156 
 108   0.0000       0.355721         9.6797 
 109   0.0000       0.363148         9.8818 
 110   0.0000       0.368003        10.0139 
 111   0.0000       0.378382        10.2963 
 112   0.0000       0.381799        10.3893 
 113   0.0000       0.389560        10.6005 
 114   0.0000       0.395115        10.7516 
 115   0.0000       0.410236        11.1631 
 116   0.0000       0.413027        11.2390 
 117   0.0000       0.420313        11.4373 
 118   0.0000       0.428418        11.6578 
 119   0.0000       0.434765        11.8305 
 120   0.0000       0.436841        11.8870 
 121   0.0000       0.450635        12.2624 
 122   0.0000       0.452098        12.3022 
 123   0.0000       0.457524        12.4499 
 124   0.0000       0.461966        12.5707 
 125   0.0000       0.471174        12.8213 
 126   0.0000       0.472718        12.8633 
 127   0.0000       0.484999        13.1975 
 128   0.0000       0.486907        13.2494 
 129   0.0000       0.490452        13.3459 
 130   0.0000       0.499026        13.5792 
 131   0.0000       0.505199        13.7472 
 132   0.0000       0.518676        14.1139 
 133   0.0000       0.520473        14.1628 
 134   0.0000       0.523756        14.2521 
 135   0.0000       0.527248        14.3471 
 136   0.0000       0.535207        14.5637 
 137   0.0000       0.536750        14.6057 
 138   0.0000       0.544921        14.8280 
 139   0.0000       0.545424        14.8418 
 140   0.0000       0.554470        15.0879 
 141   0.0000       0.561957        15.2916 
 142   0.0000       0.564869        15.3709 
 143   0.0000       0.570155        15.5147 
 144   0.0000       0.572008        15.5651 
 145   0.0000       0.578045        15.7294 
 146   0.0000       0.584857        15.9148 
 147   0.0000       0.586504        15.9596 
 148   0.0000       0.593059        16.1380 
 149   0.0000       0.596766        16.2388 
 150   0.0000       0.599446        16.3117 
 151   0.0000       0.605686        16.4815 
 152   0.0000       0.613876        16.7044 
 153   0.0000       0.615873        16.7588 
 154   0.0000       0.619927        16.8691 
 155   0.0000       0.624532        16.9944 
 156   0.0000       0.625047        17.0084 
 157   0.0000       0.629511        17.1299 
 158   0.0000       0.636012        17.3068 
 159   0.0000       0.637187        17.3387 
 160   0.0000       0.642788        17.4912 
 161   0.0000       0.654880        17.8202 
 162   0.0000       0.655492        17.8368 
 163   0.0000       0.658567        17.9205 
 164   0.0000       0.661537        18.0013 
 165   0.0000       0.669722        18.2241 
 166   0.0000       0.674841        18.3634 
 167   0.0000       0.677521        18.4363 
 168   0.0000       0.682232        18.5645 
 169   0.0000       0.690726        18.7956 
 170   0.0000       0.698320        19.0022 
 171   0.0000       0.701867        19.0988 
 172   0.0000       0.706344        19.2206 
 173   0.0000       0.713443        19.4138 
 174   0.0000       0.724546        19.7159 
 175   0.0000       0.729279        19.8447 
 176   0.0000       0.738711        20.1013 
 177   0.0000       0.741980        20.1903 
 178   0.0000       0.752248        20.4697 
 179   0.0000       0.758238        20.6327 
 180   0.0000       0.761550        20.7228 
 181   0.0000       0.770427        20.9644 
 182   0.0000       0.771837        21.0027 
 183   0.0000       0.780104        21.2277 
 184   0.0000       0.796461        21.6728 
 185   0.0000       0.797326        21.6963 
 186   0.0000       0.805757        21.9258 
 187   0.0000       0.817356        22.2414 
 188   0.0000       0.828050        22.5324 
 189   0.0000       0.837047        22.7772 
 190   0.0000       0.841362        22.8946 
 191   0.0000       0.843876        22.9630 
 192   0.0000       0.851599        23.1732 
 193   0.0000       0.857367        23.3301 
 194   0.0000       0.863625        23.5004 
 195   0.0000       0.875958        23.8360 
 196   0.0000       0.885225        24.0882 
 197   0.0000       0.891546        24.2602 
 198   0.0000       0.899326        24.4719 
 199   0.0000       0.902593        24.5608 
 200   0.0000       0.917230        24.9591 
 201   0.0000       0.921610        25.0783 
 202   0.0000       0.927140        25.2288 
 203   0.0000       0.935930        25.4680 
 204   0.0000       0.947465        25.7818 
 205   0.0000       0.948623        25.8134 
 206   0.0000       0.962608        26.1939 
 207   0.0000       0.966195        26.2915 
 208   0.0000       0.967387        26.3239 
 209   0.0000       0.969364        26.3777 
 210   0.0000       0.978348        26.6222 
 211   0.0000       0.990268        26.9466 
 212   0.0000       0.997340        27.1390 
 213   0.0000       0.999193        27.1894 
 214   0.0000       1.013668        27.5833 
 215   0.0000       1.019709        27.7477 
 216   0.0000       1.028489        27.9866 
 217   0.0000       1.038588        28.2614 
 218   0.0000       1.044141        28.4125 
 219   0.0000       1.046283        28.4708 
 220   0.0000       1.058440        28.8016 
 221   0.0000       1.065961        29.0063 
 222   0.0000       1.078864        29.3574 
 223   0.0000       1.079263        29.3682 
 224   0.0000       1.087316        29.5874 
 225   0.0000       1.098007        29.8783 
 226   0.0000       1.103284        30.0219 
 227   0.0000       1.109151        30.1815 
 228   0.0000       1.113074        30.2883 
 229   0.0000       1.122602        30.5475 
 230   0.0000       1.123692        30.5772 
 231   0.0000       1.129821        30.7440 
 232   0.0000       1.136466        30.9248 
 233   0.0000       1.140347        31.0304 
 234   0.0000       1.147475        31.2244 
 235   0.0000       1.162869        31.6433 
 236   0.0000       1.166745        31.7487 
 237   0.0000       1.171154        31.8687 
 238   0.0000       1.178016        32.0554 
 239   0.0000       1.188836        32.3499 
 240   0.0000       1.188996        32.3542 
 241   0.0000       1.195615        32.5343 
 242   0.0000       1.201018        32.6814 
 243   0.0000       1.215705        33.0810 
 244   0.0000       1.221211        33.2308 
 245   0.0000       1.222107        33.2552 
 246   0.0000       1.236469        33.6460 
 247   0.0000       1.240218        33.7480 
 248   0.0000       1.251362        34.0513 
 249   0.0000       1.253687        34.1146 
 250   0.0000       1.263666        34.3861 
 251   0.0000       1.264945        34.4209 
 252   0.0000       1.267813        34.4990 
 253   0.0000       1.280055        34.8321 
 254   0.0000       1.289262        35.0826 
 255   0.0000       1.304439        35.4956 
 256   0.0000       1.310583        35.6628 
 257   0.0000       1.312284        35.7091 
 258   0.0000       1.319072        35.8938 
 259   0.0000       1.322417        35.9848 
 260   0.0000       1.340013        36.4636 
 261   0.0000       1.343410        36.5561 
 262   0.0000       1.349186        36.7132 
 263   0.0000       1.375917        37.4406 
 264   0.0000       1.378584        37.5132 
 265   0.0000       1.382877        37.6300 
 266   0.0000       1.392174        37.8830 
 267   0.0000       1.395379        37.9702 
 268   0.0000       1.403550        38.1925 
 269   0.0000       1.423891        38.7460 
 270   0.0000       1.434028        39.0219 
 271   0.0000       1.439629        39.1743 
 272   0.0000       1.440817        39.2066 
 273   0.0000       1.448178        39.4069 
 274   0.0000       1.459313        39.7099 
 275   0.0000       1.465779        39.8859 
 276   0.0000       1.467288        39.9269 
 277   0.0000       1.473886        40.1065 
 278   0.0000       1.487609        40.4799 
 279   0.0000       1.488360        40.5003 
 280   0.0000       1.500424        40.8286 
 281   0.0000       1.508470        41.0475 
 282   0.0000       1.511142        41.1203 
 283   0.0000       1.513379        41.1811 
 284   0.0000       1.519653        41.3519 
 285   0.0000       1.527205        41.5574 
 286   0.0000       1.533333        41.7241 
 287   0.0000       1.538443        41.8632 
 288   0.0000       1.548385        42.1337 
 289   0.0000       1.552799        42.2538 
 290   0.0000       1.557502        42.3818 
 291   0.0000       1.563732        42.5513 
 292   0.0000       1.569045        42.6959 
 293   0.0000       1.573093        42.8060 
 294   0.0000       1.584610        43.1194 
 295   0.0000       1.591500        43.3069 
 296   0.0000       1.596331        43.4384 
 297   0.0000       1.606499        43.7151 
 298   0.0000       1.614282        43.9268 
 299   0.0000       1.621483        44.1228 
 300   0.0000       1.626728        44.2655 
 301   0.0000       1.632036        44.4100 
 302   0.0000       1.651778        44.9472 
 303   0.0000       1.658607        45.1330 
 304   0.0000       1.660389        45.1815 
 305   0.0000       1.666636        45.3515 
 306   0.0000       1.670792        45.4646 
 307   0.0000       1.694309        46.1045 
 308   0.0000       1.695652        46.1410 
 309   0.0000       1.696749        46.1709 
 310   0.0000       1.711422        46.5702 
 311   0.0000       1.728242        47.0278 
 312   0.0000       1.733409        47.1685 
 313   0.0000       1.749089        47.5951 
 314   0.0000       1.753919        47.7266 
 315   0.0000       1.765283        48.0358 
 316   0.0000       1.769009        48.1372 
 317   0.0000       1.783172        48.5226 
 318   0.0000       1.793071        48.7919 
 319   0.0000       1.796492        48.8850 
 320   0.0000       1.803081        49.0643 
 321   0.0000       1.812974        49.3335 
 322   0.0000       1.815670        49.4069 
 323   0.0000       1.839680        50.0603 
 324   0.0000       1.851750        50.3887 
 325   0.0000       1.853586        50.4386 
 326   0.0000       1.879454        51.1425 
 327   0.0000       1.884208        51.2719 
 328   0.0000       1.902568        51.7715 
 329   0.0000       1.905679        51.8562 
 330   0.0000       1.909827        51.9690 
 331   0.0000       1.922699        52.3193 
 332   0.0000       1.930366        52.5279 
 333   0.0000       1.943921        52.8968 
 334   0.0000       1.967488        53.5381 
 335   0.0000       1.974632        53.7325 
 336   0.0000       1.988061        54.0979 
 337   0.0000       1.991307        54.1862 
 338   0.0000       2.006496        54.5995 
 339   0.0000       2.019422        54.9513 
 340   0.0000       2.021708        55.0135 
 341   0.0000       2.025885        55.1271 
 342   0.0000       2.042069        55.5675 
 343   0.0000       2.071316        56.3634 
 344   0.0000       2.087002        56.7902 
 345   0.0000       2.091843        56.9219 
 346   0.0000       2.125164        57.8287 
 347   0.0000       2.146644        58.4131 
 348   0.0000       2.152792        58.5805 
 349   0.0000       2.165376        58.9229 
 350   0.0000       2.177167        59.2437 
 351   0.0000       2.183984        59.4292 
 352   0.0000       2.216082        60.3026 
 353   0.0000       2.231105        60.7115 
 354   0.0000       2.234286        60.7980 
 355   0.0000       2.244137        61.0661 
 356   0.0000       2.269655        61.7604 
 357   0.0000       2.287478        62.2455 
 358   0.0000       2.290130        62.3176 
 359   0.0000       2.299360        62.5688 
 360   0.0000       2.311656        62.9034 
 361   0.0000       2.318556        63.0911 
 362   0.0000       2.323619        63.2289 
 363   0.0000       2.347343        63.8744 
 364   0.0000       2.363001        64.3005 
 365   0.0000       2.371378        64.5285 
 366   0.0000       2.373902        64.5972 
 367   0.0000       2.390776        65.0563 
 368   0.0000       2.393008        65.1171 
 369   0.0000       2.418217        65.8030 
 370   0.0000       2.429955        66.1224 
 371   0.0000       2.445457        66.5443 
 372   0.0000       2.465491        67.0894 
 373   0.0000       2.472522        67.2808 
 374   0.0000       2.490254        67.7633 
 375   0.0000       2.503958        68.1362 
 376   0.0000       2.510912        68.3254 
 377   0.0000       2.525561        68.7240 
 378   0.0000       2.535023        68.9815 
 379   0.0000       2.536941        69.0337 
 380   0.0000       2.565663        69.8152 
 381   0.0000       2.573864        70.0384 
 382   0.0000       2.604035        70.8594 
 383   0.0000       2.611778        71.0701 
 384   0.0000       2.617537        71.2268 
 385   0.0000       2.632642        71.6378 
 386   0.0000       2.640572        71.8536 
 387   0.0000       2.649740        72.1031 
 388   0.0000       2.663677        72.4823 
 389   0.0000       2.665949        72.5442 
 390   0.0000       2.683201        73.0136 
 391   0.0000       2.692699        73.2721 
 392   0.0000       2.710156        73.7471 
 393   0.0000       2.721550        74.0571 
 394   0.0000       2.735593        74.4393 
 395   0.0000       2.738464        74.5174 
 396   0.0000       2.745373        74.7054 
 397   0.0000       2.753644        74.9305 
 398   0.0000       2.760155        75.1076 
 399   0.0000       2.765239        75.2460 
 400   0.0000       2.777147        75.5700 
 401   0.0000       2.783017        75.7297 
 402   0.0000       2.793205        76.0070 
 403   0.0000       2.808215        76.4154 
 404   0.0000       2.816486        76.6405 
 405   0.0000       2.823211        76.8235 
 406   0.0000       2.828884        76.9779 
 407   0.0000       2.846460        77.4561 
 408   0.0000       2.854628        77.6784 
 409   0.0000       2.861985        77.8786 
 410   0.0000       2.872075        78.1531 
 411   0.0000       2.880376        78.3790 
 412   0.0000       2.888852        78.6097 
 413   0.0000       2.893416        78.7339 
 414   0.0000       2.902510        78.9813 
 415   0.0000       2.915182        79.3261 
 416   0.0000       2.930619        79.7462 
 417   0.0000       2.939036        79.9752 
 418   0.0000       2.945057        80.1391 
 419   0.0000       2.960673        80.5640 
 420   0.0000       2.965553        80.6968 
 421   0.0000       2.969956        80.8166 
 422   0.0000       2.975080        80.9560 
 423   0.0000       2.979138        81.0665 
 424   0.0000       2.987809        81.3024 
 425   0.0000       2.998480        81.5928 
 426   0.0000       3.000788        81.6556 
 427   0.0000       3.009441        81.8910 
 428   0.0000       3.021311        82.2141 
 429   0.0000       3.030613        82.4672 
 430   0.0000       3.054272        83.1110 
 431   0.0000       3.056892        83.1823 
 432   0.0000       3.075560        83.6902 
 433   0.0000       3.083673        83.9110 
 434   0.0000       3.090483        84.0963 
 435   0.0000       3.097962        84.2998 
 436   0.0000       3.104111        84.4671 
 437   0.0000       3.109732        84.6201 
 438   0.0000       3.115024        84.7641 
 439   0.0000       3.123887        85.0053 
 440   0.0000       3.127890        85.1142 
 441   0.0000       3.132659        85.2440 
 442   0.0000       3.138909        85.4141 
 443   0.0000       3.143080        85.5275 
 444   0.0000       3.150807        85.7378 
 445   0.0000       3.161353        86.0248 
 446   0.0000       3.169214        86.2387 
 447   0.0000       3.171073        86.2893 
 448   0.0000       3.181718        86.5789 
 449   0.0000       3.189747        86.7974 
 450   0.0000       3.198011        87.0223 
 451   0.0000       3.199929        87.0745 
 452   0.0000       3.211638        87.3931 
 453   0.0000       3.215729        87.5044 
 454   0.0000       3.223291        87.7102 
 455   0.0000       3.230722        87.9124 
 456   0.0000       3.238382        88.1208 
 457   0.0000       3.248938        88.4081 
 458   0.0000       3.260367        88.7191 
 459   0.0000       3.267404        88.9106 
 460   0.0000       3.269697        88.9730 
 461   0.0000       3.278450        89.2111 
 462   0.0000       3.282259        89.3148 
 463   0.0000       3.291070        89.5546 
 464   0.0000       3.301375        89.8350 
 465   0.0000       3.309141        90.0463 
 466   0.0000       3.311678        90.1153 
 467   0.0000       3.316122        90.2363 
 468   0.0000       3.324118        90.4538 
 469   0.0000       3.329699        90.6057 
 470   0.0000       3.333363        90.7054 
 471   0.0000       3.342900        90.9649 
 472   0.0000       3.349379        91.1412 
 473   0.0000       3.361252        91.4643 
 474   0.0000       3.366002        91.5936 
 475   0.0000       3.375011        91.8387 
 476   0.0000       3.377149        91.8969 
 477   0.0000       3.383530        92.0705 
 478   0.0000       3.388448        92.2044 
 479   0.0000       3.396498        92.4234 
 480   0.0000       3.404752        92.6480 
 481   0.0000       3.411285        92.8258 
 482   0.0000       3.413089        92.8749 
 483   0.0000       3.417786        93.0027 
 484   0.0000       3.421215        93.0960 
 485   0.0000       3.426052        93.2276 
 486   0.0000       3.430619        93.3519 
 487   0.0000       3.436750        93.5187 
 488   0.0000       3.446800        93.7922 
 489   0.0000       3.449828        93.8746 
 490   0.0000       3.452618        93.9505 
 491   0.0000       3.456258        94.0496 
 492   0.0000       3.465879        94.3114 
 493   0.0000       3.468886        94.3932 
 494   0.0000       3.482581        94.7658 
 495   0.0000       3.486322        94.8676 
 496   0.0000       3.496413        95.1422 
 497   0.0000       3.497985        95.1850 
 498   0.0000       3.507751        95.4508 
 499   0.0000       3.509613        95.5014 
 500   0.0000       3.516039        95.6763 
 501   0.0000       3.520465        95.7967 
 502   0.0000       3.528737        96.0218 
 503   0.0000       3.535777        96.2134 
 504   0.0000       3.546505        96.5053 
 505   0.0000       3.551380        96.6380 
 506   0.0000       3.563134        96.9578 
 507   0.0000       3.572220        97.2051 
 508   0.0000       3.578583        97.3782 
 509   0.0000       3.590181        97.6938 
 510   0.0000       3.593150        97.7746 
 511   0.0000       3.602402        98.0263 
 512   0.0000       3.602972        98.0419 
 513   0.0000       3.607088        98.1539 
 514   0.0000       3.617645        98.4411 
 515   0.0000       3.629328        98.7590 
 516   0.0000       3.637141        98.9716 
 517   0.0000       3.646305        99.2210 
 518   0.0000       3.649772        99.3154 
 519   0.0000       3.651301        99.3569 
 520   0.0000       3.652985        99.4028 
 521   0.0000       3.662756        99.6687 
 522   0.0000       3.670364        99.8757 
 523   0.0000       3.673400        99.9583 
 524   0.0000       3.675012       100.0022 
 525   0.0000       3.678773       100.1045 
 526   0.0000       3.679979       100.1373 
 527   0.0000       3.693138       100.4954 
 528   0.0000       3.696395       100.5840 
 529   0.0000       3.707889       100.8968 
 530   0.0000       3.713047       101.0371 
 531   0.0000       3.718266       101.1792 
 532   0.0000       3.722296       101.2888 
 533   0.0000       3.735085       101.6368 
 534   0.0000       3.738244       101.7228 
 535   0.0000       3.748286       101.9960 
 536   0.0000       3.750514       102.0567 
 537   0.0000       3.752982       102.1238 
 538   0.0000       3.760203       102.3203 
 539   0.0000       3.765447       102.4630 
 540   0.0000       3.778708       102.8239 
 541   0.0000       3.785918       103.0201 
 542   0.0000       3.795279       103.2748 
 543   0.0000       3.800642       103.4207 
 544   0.0000       3.811196       103.7079 
 545   0.0000       3.818962       103.9192 
 546   0.0000       3.825780       104.1048 
 547   0.0000       3.828783       104.1865 
 548   0.0000       3.850224       104.7699 
 549   0.0000       3.854398       104.8835 
 550   0.0000       3.857570       104.9698 
 551   0.0000       3.868384       105.2641 
 552   0.0000       3.874993       105.4439 
 553   0.0000       3.880239       105.5867 
 554   0.0000       3.896365       106.0255 
 555   0.0000       3.907116       106.3180 
 556   0.0000       3.922445       106.7352 
 557   0.0000       3.926354       106.8415 
 558   0.0000       3.936009       107.1043 
 559   0.0000       3.942992       107.2943 
 560   0.0000       3.949196       107.4631 
 561   0.0000       3.956139       107.6520 
 562   0.0000       3.958169       107.7072 
 563   0.0000       3.970731       108.0491 
 564   0.0000       3.979370       108.2842 
 565   0.0000       3.981625       108.3455 
 566   0.0000       3.999958       108.8444 
 567   0.0000       4.004486       108.9676 
 568   0.0000       4.012981       109.1988 
 569   0.0000       4.023460       109.4839 
 570   0.0000       4.029647       109.6523 
 571   0.0000       4.041163       109.9656 
 572   0.0000       4.044393       110.0535 
 573   0.0000       4.054984       110.3417 
 574   0.0000       4.059948       110.4768 
 575   0.0000       4.063648       110.5775 
 576   0.0000       4.070417       110.7617 
 577   0.0000       4.082626       111.0939 
 578   0.0000       4.084374       111.1415 
 579   0.0000       4.093687       111.3949 
 580   0.0000       4.100719       111.5862 
 581   0.0000       4.116834       112.0248 
 582   0.0000       4.119339       112.0929 
 583   0.0000       4.135721       112.5387 
 584   0.0000       4.139136       112.6316 
 585   0.0000       4.147262       112.8527 
 586   0.0000       4.157806       113.1396 
 587   0.0000       4.171595       113.5149 
 588   0.0000       4.174348       113.5898 
 589   0.0000       4.178789       113.7106 
 590   0.0000       4.184230       113.8587 
 591   0.0000       4.186469       113.9196 
 592   0.0000       4.192480       114.0832 
 593   0.0000       4.193987       114.1242 
 594   0.0000       4.206445       114.4632 
 595   0.0000       4.214283       114.6765 
 596   0.0000       4.218039       114.7787 
 597   0.0000       4.231645       115.1489 
 598   0.0000       4.238654       115.3396 
 599   0.0000       4.243245       115.4646 
 600   0.0000       4.262560       115.9901 
 601   0.0000       4.273839       116.2971 
 602   0.0000       4.283761       116.5671 
 603   0.0000       4.285798       116.6225 
 604   0.0000       4.299586       116.9977 
 605   0.0000       4.305094       117.1476 
 606   0.0000       4.309118       117.2571 
 607   0.0000       4.314325       117.3988 
 608   0.0000       4.319971       117.5524 
 609   0.0000       4.335413       117.9726 
 610   0.0000       4.339508       118.0840 
 611   0.0000       4.350072       118.3715 
 612   0.0000       4.356034       118.5337 
 613   0.0000       4.363035       118.7242 
 614   0.0000       4.372022       118.9688 
 615   0.0000       4.375342       119.0591 
 616   0.0000       4.381999       119.2402 
 617   0.0000       4.393498       119.5532 
 618   0.0000       4.395133       119.5976 
 619   0.0000       4.403018       119.8122 
 620   0.0000       4.405390       119.8768 
 621   0.0000       4.418237       120.2263 
 622   0.0000       4.425198       120.4158 
 623   0.0000       4.427277       120.4723 
 624   0.0000       4.455492       121.2401 
 625   0.0000       4.458372       121.3185 
 626   0.0000       4.466297       121.5341 
 627   0.0000       4.472374       121.6995 
 628   0.0000       4.482853       121.9846 
 629   0.0000       4.491791       122.2278 
 630   0.0000       4.503029       122.5336 
 631   0.0000       4.513689       122.8237 
 632   0.0000       4.519341       122.9775 
 633   0.0000       4.524463       123.1169 
 634   0.0000       4.539778       123.5336 
 635   0.0000       4.546281       123.7106 
 636   0.0000       4.557830       124.0249 
 637   0.0000       4.565265       124.2272 
 638   0.0000       4.571323       124.3920 
 639   0.0000       4.571675       124.4016 
 640   0.0000       4.591250       124.9343 
 641   0.0000       4.597566       125.1061 
 642   0.0000       4.605423       125.3199 
 643   0.0000       4.611442       125.4837 
 644   0.0000       4.614136       125.5570 
 645   0.0000       4.633923       126.0955 
 646   0.0000       4.637762       126.1999 
 647   0.0000       4.655085       126.6713 
 648   0.0000       4.662902       126.8840 
 649   0.0000       4.664712       126.9333 
 650   0.0000       4.679808       127.3440 
 651   0.0000       4.694428       127.7419 
 652   0.0000       4.699410       127.8774 
 653   0.0000       4.708531       128.1257 
 654   0.0000       4.714876       128.2983 
 655   0.0000       4.716948       128.3547 
 656   0.0000       4.729093       128.6852 
 657   0.0000       4.737928       128.9256 
 658   0.0000       4.753697       129.3547 
 659   0.0000       4.755021       129.3907 
 660   0.0000       4.769699       129.7901 
 661   0.0000       4.774406       129.9182 
 662   0.0000       4.781001       130.0976 
 663   0.0000       4.795667       130.4967 
 664   0.0000       4.809001       130.8596 
 665   0.0000       4.824677       131.2861 
 666   0.0000       4.849933       131.9734 
 667   0.0000       4.855109       132.1142 
 668   0.0000       4.869611       132.5089 
 669   0.0000       4.899867       133.3322 
 670   0.0000       4.910411       133.6191 
 671   0.0000       4.930223       134.1582 
 672   0.0000       4.953061       134.7796 
 673   0.0000       4.959987       134.9681 
 674   0.0000       4.974656       135.3673 
 675   0.0000       4.992976       135.8658 
 676   0.0000       5.019893       136.5982 
 677   0.0000       5.030860       136.8967 
 678   0.0000       5.044272       137.2616 
 679   0.0000       5.056866       137.6043 
 680   0.0000       5.059401       137.6733 
 681   0.0000       5.064340       137.8077 
 682   0.0000       5.082895       138.3126 
 683   0.0000       5.102173       138.8372 
 684   0.0000       5.113623       139.1488 
 685   0.0000       5.121100       139.3522 
 686   0.0000       5.138840       139.8350 
 687   0.0000       5.145327       140.0115 
 688   0.0000       5.157751       140.3495 
 689   0.0000       5.177983       140.9001 
 690   0.0000       5.186511       141.1321 
 691   0.0000       5.192129       141.2850 
 692   0.0000       5.203420       141.5923 
 693   0.0000       5.211000       141.7985 
 694   0.0000       5.215291       141.9153 
 695   0.0000       5.222019       142.0984 
 696   0.0000       5.241054       142.6163 
 697   0.0000       5.252368       142.9242 
 698   0.0000       5.261517       143.1732 
 699   0.0000       5.270659       143.4219 
 700   0.0000       5.281198       143.7087 
 701   0.0000       5.295280       144.0919 
 702   0.0000       5.305263       144.3636 
 703   0.0000       5.318371       144.7202 
 704   0.0000       5.339067       145.2834 
 705   0.0000       5.348247       145.5332 
 706   0.0000       5.359689       145.8446 
 707   0.0000       5.362425       145.9190 
 708   0.0000       5.386148       146.5645 
 709   0.0000       5.408858       147.1825 
 710   0.0000       5.421562       147.5282 
 711   0.0000       5.452686       148.3751 
 712   0.0000       5.457318       148.5012 
 713   0.0000       5.464584       148.6989 
 714   0.0000       5.481348       149.1551 
 715   0.0000       5.490568       149.4059 
 716   0.0000       5.511427       149.9735 
 717   0.0000       5.520170       150.2115 
 718   0.0000       5.524844       150.3386 
 719   0.0000       5.534291       150.5957 
 720   0.0000       5.554670       151.1503 
 721   0.0000       5.562812       151.3718 
 722   0.0000       5.571855       151.6179 
 723   0.0000       5.589749       152.1048 
 724   0.0000       5.592967       152.1924 
 725   0.0000       5.612348       152.7198 
 726   0.0000       5.617648       152.8640 
 727   0.0000       5.623188       153.0147 
 728   0.0000       5.636701       153.3824 
 729   0.0000       5.645778       153.6294 
 730   0.0000       5.665386       154.1630 
 731   0.0000       5.680599       154.5770 
 732   0.0000       5.683566       154.6577 
 733   0.0000       5.694882       154.9656 
 734   0.0000       5.710111       155.3800 
 735   0.0000       5.721264       155.6835 
 736   0.0000       5.738456       156.1513 
 737   0.0000       5.745133       156.3330 
 738   0.0000       5.747160       156.3882 
 739   0.0000       5.768170       156.9599 
 740   0.0000       5.783106       157.3663 
 741   0.0000       5.807720       158.0361 
 742   0.0000       5.815755       158.2547 
 743   0.0000       5.828803       158.6098 
 744   0.0000       5.858666       159.4224 
 745   0.0000       5.868144       159.6803 
 746   0.0000       5.886133       160.1698 
 747   0.0000       5.903561       160.6441 
 748   0.0000       5.917942       161.0354 
 749   0.0000       5.939582       161.6242 
 750   0.0000       5.963944       162.2872 
 751   0.0000       5.970939       162.4775 
 752   0.0000       5.990578       163.0119 
 753   0.0000       5.994447       163.1172 
 754   0.0000       6.031984       164.1386 
 755   0.0000       6.056074       164.7942 
 756   0.0000       6.064480       165.0229 
 757   0.0000       6.082756       165.5202 
 758   0.0000       6.090263       165.7245 
 759   0.0000       6.119404       166.5175 
 760   0.0000       6.156095       167.5159 
 761   0.0000       6.173999       168.0031 
 762   0.0000       6.179956       168.1652 
 763   0.0000       6.228561       169.4878 
 764   0.0000       6.266611       170.5232 
 765   0.0000       6.285165       171.0280 
 766   0.0000       6.304323       171.5493 
 767   0.0000       6.326325       172.1481 
 768   0.0000       6.363022       173.1466 
 769   0.0000       6.366196       173.2330 
 770   0.0000       6.388672       173.8446 
 771   0.0000       6.423966       174.8050 
 772   0.0000       6.447462       175.4444 
 773   0.0000       6.469542       176.0452 
 774   0.0000       6.486429       176.5047 
 775   0.0000       6.487010       176.5205 
 776   0.0000       6.506403       177.0482 
 777   0.0000       6.584638       179.1771 
 778   0.0000       6.616407       180.0416 
 779   0.0000       6.654771       181.0855 
 780   0.0000       6.702197       182.3760 
 781   0.0000       6.709716       182.5807 
 782   0.0000       6.733447       183.2264 
 783   0.0000       6.756487       183.8534 
 784   0.0000       6.829359       185.8363 
 785   0.0000       6.837372       186.0544 
 786   0.0000       6.863424       186.7632 
 787   0.0000       6.902920       187.8380 
 788   0.0000       6.938473       188.8054 
 789   0.0000       7.012119       190.8095 
 790   0.0000       7.066062       192.2773 
 791   0.0000       7.115861       193.6324 
 792   0.0000       7.133056       194.1003 
 793   0.0000       7.139392       194.2727 
 794   0.0000       7.241613       197.0543 
 795   0.0000       7.254269       197.3987 
 796   0.0000       7.297772       198.5825 
 797   0.0000       7.301880       198.6943 
 798   0.0000       7.359378       200.2588 
 799   0.0000       7.368404       200.5045 
 800   0.0000       7.439641       202.4429 
 801   0.0000       7.485794       203.6988 
 802   0.0000       7.583703       206.3630 
 803   0.0000       7.621925       207.4031 
 804   0.0000       7.684099       209.0950 
 805   0.0000       7.814339       212.6390 
 806   0.0000       7.838816       213.3050 
 807   0.0000       7.957437       216.5329 
 808   0.0000       7.980955       217.1728 
 809   0.0000       9.375721       255.1263 
 810   0.0000       9.447166       257.0705 
 811   0.0000      10.711219       291.4671 
 812   0.0000      11.111423       302.3572 
 813   0.0000      11.971770       325.7684 
 814   0.0000      12.719088       346.1040 
 815   0.0000      12.749185       346.9229 
 816   0.0000      12.834487       349.2441 
 817   0.0000      13.160223       358.1079 
 818   0.0000      13.238803       360.2461 
 819   0.0000      13.505172       367.4944 
 820   0.0000      13.720040       373.3413 
 821   0.0000      13.866105       377.3159 
 822   0.0000      14.018295       381.4572 
 823   0.0000      14.028385       381.7318 
 824   0.0000      14.629521       398.0895 
 825   0.0000      14.649040       398.6207 
 826   0.0000      14.811472       403.0406 
 827   0.0000      16.416090       446.7045 

                    ********************************
                    * MULLIKEN POPULATION ANALYSIS *
                    ********************************

-----------------------
MULLIKEN ATOMIC CHARGES
-----------------------
   0 C :   -0.270136
   1 C :    0.021596
   2 O :   -0.324683
   3 C :    0.463904
   4 O :   -0.428528
   5 C :   -0.253361
   6 C :    0.153232
   7 C :   -0.269933
   8 N :   -0.114792
   9 C :    0.219110
  10 S :   -0.424301
  11 N :   -0.225132
  12 C :    0.030676
  13 C :    0.075565
  14 C :   -0.203262
  15 C :   -0.112213
  16 C :   -0.273811
  17 C :    0.355773
  18 O :   -0.359411
  19 C :   -0.282279
  20 H :    0.095828
  21 H :    0.094436
  22 H :    0.085469
  23 H :    0.107850
  24 H :    0.106723
  25 H :    0.138762
  26 H :    0.087251
  27 H :    0.128434
  28 H :    0.194981
  29 H :    0.199526
  30 H :    0.157545
  31 H :    0.151029
  32 H :    0.155143
  33 H :    0.116706
  34 H :    0.240395
  35 H :    0.161905
Sum of atomic charges:   -0.0000000

--------------------------------
MULLIKEN REDUCED ORBITAL CHARGES
--------------------------------
  0 C s       :     3.258386  s :     3.258386
      pz      :     1.020804  p :     2.936973
      px      :     0.992422
      py      :     0.923747
      dz2     :     0.014573  d :     0.070090
      dxz     :     0.004005
      dyz     :     0.015790
      dx2y2   :     0.022511
      dxy     :     0.013212
      f0      :     0.000193  f :     0.004686
      f+1     :     0.000509
      f-1     :     0.001443
      f+2     :     0.000387
      f-2     :     0.000220
      f+3     :     0.001247
      f-3     :     0.000688
  1 C s       :     3.165611  s :     3.165611
      pz      :     0.686726  p :     2.652486
      px      :     1.023294
      py      :     0.942467
      dz2     :     0.039010  d :     0.148315
      dxz     :     0.028051
      dyz     :     0.038167
      dx2y2   :     0.024449
      dxy     :     0.018638
      f0      :     0.003453  f :     0.011991
      f+1     :     0.002382
      f-1     :     0.002918
      f+2     :     0.000579
      f-2     :     0.000615
      f+3     :     0.001275
      f-3     :     0.000769
  2 O s       :     3.714334  s :     3.714334
      pz      :     1.290929  p :     4.570950
      px      :     1.547288
      py      :     1.732733
      dz2     :     0.010678  d :     0.037093
      dxz     :     0.009120
      dyz     :     0.006948
      dx2y2   :     0.004826
      dxy     :     0.005521
      f0      :     0.000624  f :     0.002306
      f+1     :     0.000358
      f-1     :     0.000312
      f+2     :     0.000308
      f-2     :     0.000306
      f+3     :     0.000162
      f-3     :     0.000236
  3 C s       :     3.052636  s :     3.052636
      pz      :     0.817059  p :     2.150998
      px      :     0.677483
[...]
 15 C s       :     2.695205  s :     2.695205
      pz      :     0.856675  p :     2.784986
      px      :     0.931419
      py      :     0.996891
      dz2     :     0.037510  d :     0.433675
      dxz     :     0.058529
      dyz     :     0.100059
      dx2y2   :     0.115324
      dxy     :     0.122254
      f0      :     0.003480  f :     0.045211
      f+1     :     0.002577
      f-1     :     0.006846
      f+2     :     0.005296
      f-2     :     0.006388
      f+3     :     0.012232
      f-3     :     0.008392
 16 C s       :     2.682858  s :     2.682858
      pz      :     0.924281  p :     2.861582
      px      :     0.979049
      py      :     0.958252
      dz2     :     0.063871  d :     0.420930
      dxz     :     0.076785
      dyz     :     0.045713
      dx2y2   :     0.140972
      dxy     :     0.093588
      f0      :     0.003651  f :     0.047077
      f+1     :     0.005009
      f-1     :     0.004913
      f+2     :     0.006160
      f-2     :     0.007959
      f+3     :     0.010358
      f-3     :     0.009026
 17 C s       :     2.682235  s :     2.682235
      pz      :     0.854942  p :     2.671683
      px      :     0.883256
      py      :     0.933485
      dz2     :     0.101996  d :     0.750767
      dxz     :     0.113745
      dyz     :     0.138652
      dx2y2   :     0.195677
      dxy     :     0.200698
      f0      :     0.010128  f :     0.111803
      f+1     :     0.009286
      f-1     :     0.012141
      f+2     :     0.009751
      f-2     :     0.020767
      f+3     :     0.026744
      f-3     :     0.022985
 18 O s       :     3.177183  s :     3.177183
      pz      :     1.611954  p :     4.329613
      px      :     1.497817
      py      :     1.219842
      dz2     :     0.008467  d :     0.077888
      dxz     :     0.009196
      dyz     :     0.011144
      dx2y2   :     0.021094
      dxy     :     0.027988
      f0      :     0.000472  f :     0.005924
      f+1     :     0.000441
      f-1     :     0.000388
      f+2     :     0.000349
      f-2     :     0.001152
      f+3     :     0.001557
      f-3     :     0.001565
 19 C s       :     2.682858  s :     2.682858
      pz      :     0.910812  p :     2.845623
      px      :     0.949883
      py      :     0.984928
      dz2     :     0.034279  d :     0.400494
      dxz     :     0.056496
      dyz     :     0.078972
      dx2y2   :     0.116105
      dxy     :     0.114642
      f0      :     0.003817  f :     0.045379
      f+1     :     0.002060
      f-1     :     0.006720
      f+2     :     0.005691
      f-2     :     0.006449
      f+3     :     0.011923
      f-3     :     0.008719
 20 H s       :     0.848867  s :     0.848867
      pz      :     0.062068  p :     0.149433
      px      :     0.040448
      py      :     0.046917
      dz2     :     0.008392  d :     0.027859
      dxz     :     0.006020
      dyz     :     0.007928
      dx2y2   :     0.002795
      dxy     :     0.002724
 21 H s       :     0.847731  s :     0.847731
      pz      :     0.059999  p :     0.151619
      px      :     0.043848
      py      :     0.047771
      dz2     :     0.008473  d :     0.027308
      dxz     :     0.005480
      dyz     :     0.006775
      dx2y2   :     0.003396
      dxy     :     0.003184
 22 H s       :     0.847314  s :     0.847314
      pz      :     0.041721  p :     0.153400
      px      :     0.072671
      py      :     0.039008
      dz2     :     0.002522  d :     0.028038
      dxz     :     0.009109
      dyz     :     0.000565
      dx2y2   :     0.006948
      dxy     :     0.008895
 23 H s       :     0.853529  s :     0.853529
      pz      :     0.030564  p :     0.150352
      px      :     0.081028
      py      :     0.038760
      dz2     :     0.003466  d :     0.027421
      dxz     :     0.007823
      dyz     :     0.000754
      dx2y2   :     0.006786
      dxy     :     0.008592
 24 H s       :     0.851669  s :     0.851669
      pz      :     0.037768  p :     0.145337
      px      :     0.052544
      py      :     0.055025
      dz2     :     0.004816  d :     0.027151
      dxz     :     0.004682
      dyz     :     0.005429
      dx2y2   :     0.007536
      dxy     :     0.004689
 25 H s       :     0.828243  s :     0.828243
      pz      :     0.054445  p :     0.149860
      px      :     0.035961
      py      :     0.059454
      dz2     :     0.006527  d :     0.027291
      dxz     :     0.002913
      dyz     :     0.007303
      dx2y2   :     0.004809
      dxy     :     0.005739
 26 H s       :     0.845204  s :     0.845204
      pz      :     0.064935  p :     0.150529
      px      :     0.043262
      py      :     0.042333
      dz2     :     0.008281  d :     0.027917
      dxz     :     0.007563
      dyz     :     0.007653
      dx2y2   :     0.002069
      dxy     :     0.002351
 27 H s       :     0.821838  s :     0.821838
      pz      :     0.045207  p :     0.152361
      px      :     0.053655
      py      :     0.053499
      dz2     :     0.004572  d :     0.028258
      dxz     :     0.004471
      dyz     :     0.005087
      dx2y2   :     0.007719
      dxy     :     0.006409
 28 H s       :     0.740372  s :     0.740372
      pz      :     0.081041  p :     0.250246
      px      :     0.079355
      py      :     0.089850
      dz2     :     0.012725  d :     0.060651
      dxz     :     0.015458
      dyz     :     0.012912
      dx2y2   :     0.010372
      dxy     :     0.009183
 29 H s       :     0.753231  s :     0.753231
      pz      :     0.057582  p :     0.256294
      px      :     0.102332
      py      :     0.096380
      dz2     :     0.007922  d :     0.061563
      dxz     :     0.009819
      dyz     :     0.009444
      dx2y2   :     0.021440
      dxy     :     0.012938
 30 H s       :     0.833937  s :     0.833937
      pz      :     0.045234  p :     0.157607
      px      :     0.069890
      py      :     0.042483
      dz2     :     0.005522  d :     0.029781
      dxz     :     0.006257
      dyz     :     0.002521
      dx2y2   :     0.007576
      dxy     :     0.007906
 31 H s       :     0.844171  s :     0.844171
      pz      :     0.044379  p :     0.158014
      px      :     0.060103
      py      :     0.053532
      dz2     :     0.003630  d :     0.027699
      dxz     :     0.004604
      dyz     :     0.004437
      dx2y2   :     0.007884
      dxy     :     0.007145
 32 H s       :     0.839910  s :     0.839910
      pz      :     0.054447  p :     0.152208
      px      :     0.057179
      py      :     0.040581
      dz2     :     0.005209  d :     0.026968
      dxz     :     0.006494
      dyz     :     0.004485
      dx2y2   :     0.005565
      dxy     :     0.005215
 33 H s       :     0.839502  s :     0.839502
      pz      :     0.044915  p :     0.156302
      px      :     0.037718
      py      :     0.073669
      dz2     :     0.002657  d :     0.027851
      dxz     :     0.000401
      dyz     :     0.008537
      dx2y2   :     0.007267
      dxy     :     0.008988
 34 H s       :     0.698172  s :     0.698172
      pz      :     0.109585  p :     0.352040
      px      :     0.111789
      py      :     0.130667
      dz2     :     0.013684  d :     0.100672
      dxz     :     0.008887
      dyz     :     0.026190
      dx2y2   :     0.023590
      dxy     :     0.028321
 35 H s       :     0.834240  s :     0.834240
      pz      :     0.054613  p :     0.154085
      px      :     0.061924
      py      :     0.037548
      dz2     :     0.005183  d :     0.027606
      dxz     :     0.006752
      dyz     :     0.003360
      dx2y2   :     0.006055
      dxy     :     0.006256


                      *****************************
                      * MAYER POPULATION ANALYSIS *
                      *****************************

  NA   - Mulliken gross atomic population
  ZA   - Total nuclear charge
  QA   - Mulliken gross atomic charge
  VA   - Mayer's total valence
  BVA  - Mayer's bonded valence
  FA   - Mayer's free valence

  ATOM       NA         ZA         QA         VA         BVA        FA
  0 C      6.2701     6.0000    -0.2701     3.8755     3.8755    -0.0000
  1 C      5.9784     6.0000     0.0216     3.8389     3.8389     0.0000
  2 O      8.3247     8.0000    -0.3247     2.0902     2.0902     0.0000
  3 C      5.5361     6.0000     0.4639     4.2372     4.2372    -0.0000
  4 O      8.4285     8.0000    -0.4285     2.0841     2.0841    -0.0000
  5 C      6.2534     6.0000    -0.2534     3.6223     3.6223    -0.0000
  6 C      5.8468     6.0000     0.1532     3.8672     3.8672    -0.0000
  7 C      6.2699     6.0000    -0.2699     3.9003     3.9003     0.0000
  8 N      7.1148     7.0000    -0.1148     3.3163     3.3163    -0.0000
  9 C      5.7809     6.0000     0.2191     4.1574     4.1574    -0.0000
 10 S     16.4243    16.0000    -0.4243     1.7868     1.7868     0.0000
 11 N      7.2251     7.0000    -0.2251     3.2130     3.2130    -0.0000
 12 C      5.9693     6.0000     0.0307     3.9173     3.9173    -0.0000
 13 C      5.9244     6.0000     0.0756     3.7029     3.7029    -0.0000
 14 C      6.2033     6.0000    -0.2033     3.8397     3.8397    -0.0000
 15 C      6.1122     6.0000    -0.1122     3.7899     3.7899     0.0000
 16 C      6.2738     6.0000    -0.2738     3.7910     3.7910     0.0000
 17 C      5.6442     6.0000     0.3558     3.8077     3.8077     0.0000
 18 O      8.3594     8.0000    -0.3594     2.1133     2.1133    -0.0000
 19 C      6.2823     6.0000    -0.2823     3.8619     3.8619    -0.0000
 20 H      0.9042     1.0000     0.0958     0.9909     0.9909    -0.0000
 21 H      0.9056     1.0000     0.0944     0.9847     0.9847    -0.0000
 22 H      0.9145     1.0000     0.0855     0.9801     0.9801    -0.0000
 23 H      0.8921     1.0000     0.1079     0.9906     0.9906     0.0000
 24 H      0.8933     1.0000     0.1067     0.9776     0.9776     0.0000
 25 H      0.8612     1.0000     0.1388     0.9867     0.9867    -0.0000
 26 H      0.9127     1.0000     0.0873     0.9863     0.9863     0.0000
 27 H      0.8716     1.0000     0.1284     0.9770     0.9770     0.0000
 28 H      0.8050     1.0000     0.1950     1.0233     1.0233     0.0000
 29 H      0.8005     1.0000     0.1995     1.0166     1.0166     0.0000
 30 H      0.8425     1.0000     0.1575     0.9916     0.9916    -0.0000
 31 H      0.8490     1.0000     0.1510     0.9894     0.9894    -0.0000
 32 H      0.8449     1.0000     0.1551     0.9743     0.9743     0.0000
 33 H      0.8833     1.0000     0.1167     0.9934     0.9934    -0.0000
 34 H      0.7596     1.0000     0.2404     1.0112     1.0112     0.0000
 35 H      0.8381     1.0000     0.1619     0.9888     0.9888     0.0000

  Mayer bond orders larger than 0.100000
B(  0-C ,  1-C ) :   0.9464 B(  0-C , 20-H ) :   0.9804 B(  0-C , 21-H ) :   0.9787 
B(  0-C , 22-H ) :   0.9841 B(  1-C ,  2-O ) :   0.9119 B(  1-C , 23-H ) :   0.9798 
B(  1-C , 24-H ) :   0.9864 B(  2-O ,  3-C ) :   1.1780 B(  3-C ,  4-O ) :   1.9683 
B(  3-C ,  5-C ) :   1.0512 B(  5-C ,  6-C ) :   1.6461 B(  5-C , 12-C ) :   0.9653 
B(  6-C ,  7-C ) :   0.9623 B(  6-C ,  8-N ) :   1.1770 B(  7-C , 25-H ) :   0.9595 
B(  7-C , 26-H ) :   0.9908 B(  7-C , 27-H ) :   0.9632 B(  8-N ,  9-C ) :   1.1741 
B(  8-N , 28-H ) :   0.9465 B(  9-C , 10-S ) :   1.6393 B(  9-C , 11-N ) :   1.2893 
B( 11-N , 12-C ) :   0.9573 B( 11-N , 29-H ) :   0.9482 B( 12-C , 13-C ) :   0.9599 
B( 12-C , 30-H ) :   1.0098 B( 13-C , 14-C ) :   1.3777 B( 13-C , 19-C ) :   1.3432 
B( 14-C , 15-C ) :   1.3604 B( 14-C , 31-H ) :   0.9735 B( 15-C , 16-C ) :   1.3962 
B( 15-C , 32-H ) :   0.9707 B( 16-C , 17-C ) :   1.2921 B( 16-C , 33-H ) :   0.9940 
B( 17-C , 18-O ) :   1.0968 B( 17-C , 19-C ) :   1.3829 B( 18-O , 34-H ) :   0.9801 
B( 19-C , 35-H ) :   0.9599 

-------
TIMINGS
-------

Total SCF time: 0 days 1 hours 59 min 53 sec 

Total time                  ....    7193.574 sec
Sum of individual times     ....    7190.040 sec  (100.0%)

Fock matrix formation       ....    7177.141 sec  ( 99.8%)
Diagonalization             ....       1.537 sec  (  0.0%)
Density matrix formation    ....       0.215 sec  (  0.0%)
Population analysis         ....       0.206 sec  (  0.0%)
Initial guess               ....       6.056 sec  (  0.1%)
Orbital Transformation      ....       0.000 sec  (  0.0%)
Orbital Orthonormalization  ....       0.000 sec  (  0.0%)
DIIS solution               ....       1.464 sec  (  0.0%)
SOSCF solution              ....       1.971 sec  (  0.0%)

Maximum memory used throughout the entire SCF-calculation: 718.3 MB

------------------------------------------------------------------------------
                                ORCA  MP2 
------------------------------------------------------------------------------

Freezing NCore=48 chemical core electrons

-------------
RI-MP2 ENERGY
-------------
Dimension of the basis                    ...  828
Memory devoted to MP2                     ...  256 MB   
Data format for buffers                   ... DOUBLE
Compression type for matrix containers    ... UNCOMPRESSED
Overall scaling of the MP2 energy         ...   1.000e+00
Calculating two index integrals           ... done (    0.048 sec)
Cholesky decomposition of V**-1           ... done (    0.630 sec)

-----------------
RI-TRANSFORMATION (AUX index driven)
-----------------

Dimension of the orbital-basis         ... 828
Dimension of the aux-basis             ... 2141
Transformation of internal/external MOs...   24-  76 to   77- 827
Number Format for Storage              ... Double (8 Byte)
Integral mode                          ... Direct

First Phase: integral generation and transformation of MO indices
  Aux angular momentum 0               ... done (    5.472 sec)
  Aux angular momentum 1               ... done (    9.029 sec)
  Aux angular momentum 2               ... done (   11.557 sec)
  Aux angular momentum 3               ... done (    9.034 sec)
  Aux angular momentum 4               ... done (    3.127 sec)
Closing buffer VIA ( 0.63 GB; CompressionRatio= 1.00)
  Phase 1 completed in    38.407 sec
Second Phase: sorting and transformation of aux index

IA-Transformation
Memory available                       ... 158 MB 
Max. # MO pairs treated in a batch     ... 11    
# of internal orbitals                 ... 53
# batches for internal orbitals        ... 5
Closing buffer IAV ( 0.63 GB; CompressionRatio= 1.00)
(ia|v) transformation done in    19.965 sec

  Phase 2 completed in    19.987 sec
RI-Integral transformation completed in    58.404 sec
Opening buffers                              ... done

Starting loop over batches of integrals:

Operator 0  - window                       ... ( 24- 76)x( 77-827)
Operator 0  - Memory available             ...   256 MB
Operator 0  - Memory needed per MO         ...  12.3 MB
Operator 0  - Number of orbitals per batch ... 13
Operator 0  - Number of batches            ... 5

OPERATOR  0   PASS   0:  MOs    24 ...   36
  Reading integrals       ... ok
  Internal MO  26
  Internal MO  29
  Internal MO  32
  Internal MO  35
OPERATOR  0   PASS   1:  MOs    37 ...   49
  Reading integrals       ... ok
  Internal MO  38
  Internal MO  41
  Internal MO  44
  Internal MO  47
OPERATOR  0   PASS   2:  MOs    50 ...   62
  Reading integrals       ... ok
  Internal MO  50
  Internal MO  53
  Internal MO  56
  Internal MO  59
  Internal MO  62
OPERATOR  0   PASS   3:  MOs    63 ...   75
  Reading integrals       ... ok
  Internal MO  65
  Internal MO  68
  Internal MO  71
  Internal MO  74
OPERATOR  0   PASS   4:  MOs    76 ...   76
  Reading integrals       ... ok
Time spent in pair loops =    99.545 sec
Deleting buffer (Ka|jb)[aa] ...done

-----------------------------------------------
 RI-MP2 CORRELATION ENERGY:     -3.531413210 Eh
-----------------------------------------------


-------
TIMINGS
-------

Total time                :  158.740 sec
Integral trafo            :   58.433 sec ( 36.8%)
I/O of integrals          :    0.908 sec (  0.6%)
K(i,j) Operators          :   70.294 sec ( 44.3%)
T(i,j) pair energies      :   10.313 sec (  6.5%)
V-calculation             :    0.048 sec (  0.0%)
V**(-1/2)                 :    0.630 sec (  0.4%)
Gamma(ia|P)               :    0.000 sec (  0.0%)
Gamma-Trafo               :    0.000 sec (  0.0%)
D(virtual)                :    0.000 sec (  0.0%)
D(internal)               :    0.000 sec (  0.0%)
W(virtual)                :    0.000 sec (  0.0%)
W(internal)               :    0.000 sec (  0.0%)
L(virtual)                :    0.000 sec (  0.0%)
L(internal)               :    0.000 sec (  0.0%)
G(D)                      :    0.000 sec (  0.0%)
G(Z)                      :    0.000 sec (  0.0%)
Z-Vector Solution         :    0.000 sec (  0.0%)
3-Index Derivative        :    0.000 sec (  0.0%)
2-Index Derivative        :    0.000 sec (  0.0%)
Separable Gradient        :    0.000 sec (  0.0%)


---------------------------------------
MP2 TOTAL ENERGY:    -1274.304957381 Eh
---------------------------------------

Maximum memory used throughout the entire MP2-calculation: 302.9 MB

-------------------------   --------------------
FINAL SINGLE POINT ENERGY     -1274.304957381149
-------------------------   --------------------


                            ***************************************
                            *     ORCA property calculations      *
                            ***************************************


  WARNING: The energy has been calculated at the MP2 level but the densities
           used in the property calculations are still SCF densities
           MP2 response densities have not been calculated 
           use %mp2 Density relaxed end
           or  %mp2 Density unrelaxed end

                                    ---------------------
                                    Active property flags
                                    ---------------------
   (+) Dipole Moment


------------------------------------------------------------------------------
                       ORCA ELECTRIC PROPERTIES CALCULATION
------------------------------------------------------------------------------

Dipole Moment Calculation                       ... on
Quadrupole Moment Calculation                   ... off
Polarizability Calculation                      ... off
GBWName                                         ... qm_input.vacu.gbw
Electron density file                           ... qm_input.vacu.scfp
The origin for moment calculation is the CENTER OF MASS  = (10.820368, 13.878882 19.081349)

-------------
DIPOLE MOMENT
-------------
                                X             Y             Z
Electronic contribution:     -0.54925       5.22717     -14.96783
Nuclear contribution   :      0.82965      -4.73231      16.71454
                        -----------------------------------------
Total Dipole Moment    :      0.28041       0.49487       1.74671
                        -----------------------------------------
Magnitude (a.u.)       :      1.83699
Magnitude (Debye)      :      4.66925



--------------------
Rotational spectrum 
--------------------
 
Rotational constants in cm-1:     0.009714     0.009287     0.005837 
Rotational constants in MHz :   291.211439   278.412224   174.977161 

 Dipole components along the rotational axes: 
x,y,z [a.u.] :     1.784193    -0.419158    -0.124407 
x,y,z [Debye]:     4.535058    -1.065414    -0.316217 

 

Timings for individual modules:

Sum of individual times         ...     7354.737 sec (= 122.579 min)
GTO integral calculation        ...        1.951 sec (=   0.033 min)   0.0 %
SCF iterations                  ...     7193.642 sec (= 119.894 min)  97.8 %
MP2 module                      ...      159.144 sec (=   2.652 min)   2.2 %
                             ****ORCA TERMINATED NORMALLY****
TOTAL RUN TIME: 0 days 2 hours 2 minutes 35 seconds 761 msec
