
                                        *****************
                                        * O   R   C   A *
                                        *****************

                                            #,                                       
                                            ###                                      
                                            ####                                     
                                            #####                                    
                                            ######                                   
                                           ########,                                 
                                     ,,################,,,,,                         
                               ,,#################################,,                 
                          ,,##########################################,,             
                       ,#########################################, ''#####,          
                    ,#############################################,,   '####,        
                  ,##################################################,,,,####,       
                ,###########''''           ''''###############################       
              ,#####''   ,,,,##########,,,,          '''####'''          '####       
            ,##' ,,,,###########################,,,                        '##       
           ' ,,###''''                  '''############,,,                           
         ,,##''                                '''############,,,,        ,,,,,,###''
      ,#''                                            '''#######################'''  
     '                                                          ''''####''''         
             ,#######,   #######,   ,#######,      ##                                
            ,#'     '#,  ##    ##  ,#'     '#,    #''#        ######   ,####,        
            ##       ##  ##   ,#'  ##            #'  '#       #        #'  '#        
            ##       ##  #######   ##           ,######,      #####,   #    #        
            '#,     ,#'  ##    ##  '#,     ,#' ,#      #,         ##   #,  ,#        
             '#######'   ##     ##  '#######'  #'      '#     #####' # '####'        



                  #######################################################
                  #                        -***-                        #
                  #          Department of theory and spectroscopy      #
                  #    Directorship and core code : Frank Neese         #
                  #        Max Planck Institute fuer Kohlenforschung    #
                  #                Kaiser Wilhelm Platz 1               #
                  #                 D-45470 Muelheim/Ruhr               #
                  #                      Germany                        #
                  #                                                     #
                  #                  All rights reserved                #
                  #                        -***-                        #
                  #######################################################


                         Program Version 5.0.0 -  RELEASE  -
                                (SVN: $Rev: 19529$)
                ($Date: 2021-06-28 11:36:33 +0200 (Mo, 28 Jun 2021) $)


 With contributions from (in alphabetic order):
   Daniel Aravena         : Magnetic Suceptibility
   Michael Atanasov       : Ab Initio Ligand Field Theory (pilot matlab implementation)
   Alexander A. Auer      : GIAO ZORA, VPT2 properties, NMR spectrum
   Ute Becker             : Parallelization
   Giovanni Bistoni       : ED, misc. LED, open-shell LED, HFLD
   Martin Brehm           : Molecular dynamics
   Dmytro Bykov           : SCF Hessian
   Vijay G. Chilkuri      : MRCI spin determinant printing, contributions to CSF-ICE
   Dipayan Datta          : RHF DLPNO-CCSD density
   Achintya Kumar Dutta   : EOM-CC, STEOM-CC
   Dmitry Ganyushin       : Spin-Orbit,Spin-Spin,Magnetic field MRCI
   Miquel Garcia          : C-PCM Hessian, Gaussian charge scheme
   Yang Guo               : DLPNO-NEVPT2, F12-NEVPT2, CIM, IAO-localization
   Andreas Hansen         : Spin unrestricted coupled pair/coupled cluster methods
   Benjamin Helmich-Paris : MC-RPA, TRAH-SCF, COSX integrals
   Lee Huntington         : MR-EOM, pCC
   Robert Izsak           : Overlap fitted RIJCOSX, COSX-SCS-MP3, EOM
   Marcus Kettner         : VPT2
   Christian Kollmar      : KDIIS, OOCD, Brueckner-CCSD(T), CCSD density, CASPT2, CASPT2-K
   Simone Kossmann        : Meta GGA functionals, TD-DFT gradient, OOMP2, MP2 Hessian
   Martin Krupicka        : Initial AUTO-CI
   Lucas Lang             : DCDCAS
   Marvin Lechner         : AUTO-CI (C++ implementation), FIC-MRCC
   Dagmar Lenk            : GEPOL surface, SMD
   Dimitrios Liakos       : Extrapolation schemes; Compound Job, initial MDCI parallelization
   Dimitrios Manganas     : Further ROCIS development; embedding schemes
   Dimitrios Pantazis     : SARC Basis sets
   Anastasios Papadopoulos: AUTO-CI, single reference methods and gradients
   Taras Petrenko         : DFT Hessian,TD-DFT gradient, ASA, ECA, R-Raman, ABS, FL, XAS/XES, NRVS
   Peter Pinski           : DLPNO-MP2, DLPNO-MP2 Gradient
   Christoph Reimann      : Effective Core Potentials
   Marius Retegan         : Local ZFS, SOC
   Christoph Riplinger    : Optimizer, TS searches, QM/MM, DLPNO-CCSD(T), (RO)-DLPNO pert. Triples
   Tobias Risthaus        : Range-separated hybrids, TD-DFT gradient, RPA, STAB
   Michael Roemelt        : Original ROCIS implementation
   Masaaki Saitow         : Open-shell DLPNO-CCSD energy and density
   Barbara Sandhoefer     : DKH picture change effects
   Avijit Sen             : IP-ROCIS
   Kantharuban Sivalingam : CASSCF convergence, NEVPT2, FIC-MRCI
   Bernardo de Souza      : ESD, SOC TD-DFT
   Georgi Stoychev        : AutoAux, RI-MP2 NMR
   Willem Van den Heuvel  : Paramagnetic NMR
   Boris Wezisla          : Elementary symmetry handling
   Frank Wennmohs         : Technical directorship


 We gratefully acknowledge several colleagues who have allowed us to
 interface, adapt or use parts of their codes:
   Stefan Grimme, W. Hujo, H. Kruse, P. Pracht,  : VdW corrections, initial TS optimization,
                  C. Bannwarth, S. Ehlert          DFT functionals, gCP, sTDA/sTD-DF
   Ed Valeev, F. Pavosevic, A. Kumar             : LibInt (2-el integral package), F12 methods
   Garnet Chan, S. Sharma, J. Yang, R. Olivares  : DMRG
   Ulf Ekstrom                                   : XCFun DFT Library
   Mihaly Kallay                                 : mrcc  (arbitrary order and MRCC methods)
   Jiri Pittner, Ondrej Demel                    : Mk-CCSD
   Frank Weinhold                                : gennbo (NPA and NBO analysis)
   Christopher J. Cramer and Donald G. Truhlar   : smd solvation model
   Lars Goerigk                                  : TD-DFT with DH, B97 family of functionals
   V. Asgeirsson, H. Jonsson                     : NEB implementation
   FAccTs GmbH                                   : IRC, NEB, NEB-TS, DLPNO-Multilevel, CI-OPT
                                                   MM, QMMM, 2- and 3-layer-ONIOM, Crystal-QMMM,
                                                   LR-CPCM, SF, NACMEs, symmetry and pop. for TD-DFT,
                                                   nearIR, NL-DFT gradient (VV10), updates on ESD,
                                                   ML-optimized integration grids
   S Lehtola, MJT Oliveira, MAL Marques          : LibXC Library
   Liviu Ungur et al                             : ANISO software


 Your calculation uses the libint2 library for the computation of 2-el integrals
 For citations please refer to: http://libint.valeyev.net

 Your ORCA version has been built with support for libXC version: 5.1.0
 For citations please refer to: https://tddft.org/programs/libxc/

 This ORCA versions uses:
   CBLAS   interface :  Fast vector & matrix operations
   LAPACKE interface :  Fast linear algebra routines
   SCALAPACK package :  Parallel linear algebra routines
   Shared memory     :  Shared parallel matrices
   BLAS/LAPACK       :  OpenBLAS 0.3.15  USE64BITINT DYNAMIC_ARCH NO_AFFINITY SkylakeX SINGLE_THREADED
        Core in use  :  SkylakeX
   Copyright (c) 2011-2014, The OpenBLAS Project


================================================================================

----- Orbital basis set information -----
Your calculation utilizes the basis: STO-3G
   H-Ne       : W. J. Hehre, R. F. Stewart and J. A. Pople, J. Chem. Phys. 2657 (1969).
   Na-Ar      : W. J. Hehre, R. Ditchfield, R. F. Stewart and J. A. Pople, J. Chem. Phys. 2769 (1970).
   K,Ca,Ga-Kr : W. J. Pietro, B. A. Levy, W. J. Hehre and R. F. Stewart, J. Am. Chem. Soc. 19, 2225 (1980).
   Sc-Zn,Y-Cd : W. J. Pietro and W. J. Hehre, J. Comp. Chem. 4, 241 (1983).

================================================================================
                                        WARNINGS
                       Please study these warnings very carefully!
================================================================================


INFO   : the flag for use of the SHARK integral package has been found!

================================================================================
                                       INPUT FILE
================================================================================
NAME = qm_input.vacu
|  1> ! HF STO-3G TightSCF KeepDens NoKeepInts
|  2> 
|  3> *xyz  0  1
|  4>     C    16.6436530   -9.5814510   -0.8365118
|  5>     C    17.4758984  -10.6222675   -0.0929322
|  6>     O    16.6230464  -11.4814942    0.6261052
|  7>     C    16.0235215  -11.1081774    1.7359824
|  8>     O    16.0080225   -9.9179330    2.1587631
|  9>     C    15.1629785  -12.1100163    2.4234731
| 10>     C    14.8396632  -13.3770832    2.0289793
| 11>     C    15.3942554  -13.9991510    0.7373316
| 12>     N    14.0416277  -14.0984269    2.7729633
| 13>     C    13.3706618  -13.6791237    3.8655599
| 14>     S    11.9673991  -14.6298022    4.6003871
| 15>     N    13.5500932  -12.3810264    4.2387398
| 16>     C    14.5684976  -11.5837140    3.7169858
| 17>     C    15.5363876  -11.4725871    4.8974084
| 18>     C    15.4238979  -10.4746017    5.8566432
| 19>     C    16.3137428  -10.4711488    6.9324918
| 20>     C    17.3508831  -11.3665971    7.0609350
| 21>     C    17.4559063  -12.3377865    6.1165616
| 22>     O    18.5724354  -13.1597544    6.1859331
| 23>     C    16.5727175  -12.4241340    5.0615384
| 24>     H    16.7779524   -9.7128833   -1.9101891
| 25>     H    17.1169084   -8.6565469   -0.5068427
| 26>     H    15.5664683   -9.5907953   -0.6701014
| 27>     H    17.9977813  -11.1367423   -0.8998115
| 28>     H    18.2065573  -10.3365196    0.6637618
| 29>     H    15.1259190  -13.3586426   -0.1028140
| 30>     H    14.9454960  -14.9909346    0.6818010
| 31>     H    16.4796720  -13.9670685    0.8318941
| 32>     H    13.7286914  -14.9776011    2.3866687
| 33>     H    13.0427310  -12.1220702    5.0727813
| 34>     H    14.1555359  -10.5889704    3.5495106
| 35>     H    14.7642980   -9.6261542    5.7495687
| 36>     H    16.3759228   -9.6613045    7.6443106
| 37>     H    18.0813445  -11.1660145    7.8307355
| 38>     H    19.1877427  -12.9008447    6.8758338
| 39>     H    16.6702854  -13.2407911    4.3615667
| 40> *
| 41> 
| 42>                          ****END OF INPUT****
================================================================================

                       ****************************
                       * Single Point Calculation *
                       ****************************

---------------------------------
CARTESIAN COORDINATES (ANGSTROEM)
---------------------------------
  C     16.643653   -9.581451   -0.836512
  C     17.475898  -10.622267   -0.092932
  O     16.623046  -11.481494    0.626105
  C     16.023522  -11.108177    1.735982
  O     16.008022   -9.917933    2.158763
  C     15.162978  -12.110016    2.423473
  C     14.839663  -13.377083    2.028979
  C     15.394255  -13.999151    0.737332
  N     14.041628  -14.098427    2.772963
  C     13.370662  -13.679124    3.865560
  S     11.967399  -14.629802    4.600387
  N     13.550093  -12.381026    4.238740
  C     14.568498  -11.583714    3.716986
  C     15.536388  -11.472587    4.897408
  C     15.423898  -10.474602    5.856643
  C     16.313743  -10.471149    6.932492
  C     17.350883  -11.366597    7.060935
  C     17.455906  -12.337786    6.116562
  O     18.572435  -13.159754    6.185933
  C     16.572717  -12.424134    5.061538
  H     16.777952   -9.712883   -1.910189
  H     17.116908   -8.656547   -0.506843
  H     15.566468   -9.590795   -0.670101
  H     17.997781  -11.136742   -0.899811
  H     18.206557  -10.336520    0.663762
  H     15.125919  -13.358643   -0.102814
  H     14.945496  -14.990935    0.681801
  H     16.479672  -13.967068    0.831894
  H     13.728691  -14.977601    2.386669
  H     13.042731  -12.122070    5.072781
  H     14.155536  -10.588970    3.549511
  H     14.764298   -9.626154    5.749569
  H     16.375923   -9.661304    7.644311
  H     18.081344  -11.166014    7.830736
  H     19.187743  -12.900845    6.875834
  H     16.670285  -13.240791    4.361567

----------------------------
CARTESIAN COORDINATES (A.U.)
----------------------------
  NO LB      ZA    FRAG     MASS         X           Y           Z
   0 C     6.0000    0    12.011   31.451946  -18.106318   -1.580778
   1 C     6.0000    0    12.011   33.024662  -20.073176   -0.175616
   2 O     8.0000    0    15.999   31.413005  -21.696880    1.183167
   3 C     6.0000    0    12.011   30.280067  -20.991413    3.280531
   4 O     8.0000    0    15.999   30.250778  -18.742177    4.079471
   5 C     6.0000    0    12.011   28.653877  -22.884614    4.579700
   6 C     6.0000    0    12.011   28.042899  -25.279024    3.834215
   7 C     6.0000    0    12.011   29.090927  -26.454561    1.393355
   8 N     7.0000    0    14.007   26.534831  -26.642166    5.240141
   9 C     6.0000    0    12.011   25.266889  -25.849798    7.304850
  10 S    16.0000    0    32.060   22.615107  -27.646320    8.693472
  11 N     7.0000    0    14.007   25.605965  -23.396749    8.010057
  12 C     6.0000    0    12.011   27.530471  -21.890047    7.024085
  13 C     6.0000    0    12.011   29.359518  -21.680048    9.254761
  14 C     6.0000    0    12.011   29.146943  -19.794129   11.067452
  15 C     6.0000    0    12.011   30.828506  -19.787604   13.100511
  16 C     6.0000    0    12.011   32.788417  -21.479756   13.343233
  17 C     6.0000    0    12.011   32.986882  -23.315038   11.558626
  18 O     8.0000    0    15.999   35.096817  -24.868332   11.689719
  19 C     6.0000    0    12.011   31.317897  -23.478211    9.564921
  20 H     1.0000    0     1.008   31.705735  -18.354689   -3.609734
  21 H     1.0000    0     1.008   32.346269  -16.358503   -0.957794
  22 H     1.0000    0     1.008   29.416362  -18.123977   -1.266308
  23 H     1.0000    0     1.008   34.010878  -21.045393   -1.700397
  24 H     1.0000    0     1.008   34.405407  -19.533191    1.254328
  25 H     1.0000    0     1.008   28.583844  -25.244176   -0.194290
  26 H     1.0000    0     1.008   28.242894  -28.328761    1.288417
  27 H     1.0000    0     1.008   31.142067  -26.393934    1.572052
  28 H     1.0000    0     1.008   25.943467  -28.303564    4.510150
  29 H     1.0000    0     1.008   24.647190  -22.907393    9.586167
  30 H     1.0000    0     1.008   26.750086  -20.010254    6.707603
  31 H     1.0000    0     1.008   27.900480  -18.190795   10.865110
  32 H     1.0000    0     1.008   30.946009  -18.257220   14.445654
  33 H     1.0000    0     1.008   34.168789  -21.100709   14.797946
  34 H     1.0000    0     1.008   36.259579  -24.379063   12.993443
  35 H     1.0000    0     1.008   31.502274  -25.021469    8.242167

--------------------------------
INTERNAL COORDINATES (ANGSTROEM)
--------------------------------
 C      0   0   0     0.000000000000     0.00000000     0.00000000
 C      1   0   0     1.526054394191     0.00000000     0.00000000
 O      2   1   0     1.408063151459   109.55372251     0.00000000
 C      3   2   1     1.315531427964   122.25526335   285.25037608
 O      4   3   2     1.263196529058   123.73475598     9.79997709
 C      4   3   2     1.488911984970   117.51688782   181.04763949
 C      6   4   3     1.365875788836   128.87625253   356.33022961
 C      7   6   4     1.537170984963   122.18779593     1.71798673
 N      7   6   4     1.307940971545   119.45591894   181.11593193
 C      9   7   6     1.348991379818   126.35314730     7.01238276
 S     10   9   7     1.847405431797   122.68462828   164.57115304
 N     10   9   7     1.362540078433   116.90137344   359.36866600
 C     12  10   9     1.394661902272   122.57129665   346.93800572
 C     13  12  10     1.530541653989   102.40122560   252.45835407
 C     14  13  12     1.388798110868   122.25222028   271.47982174
 C     15  14  13     1.396168356143   118.84116491   177.50860143
 C     16  15  14     1.376221390432   123.40977384     3.62333930
 C     17  16  15     1.358705207850   117.28814224   356.57908565
 O     18  17  16     1.388193381626   116.78688766   174.31642907
 C     18  17  16     1.378605200824   121.81403353     0.60919104
 H      1   2   3     1.089997120574   109.30078902   243.74441394
 H      1   2   3     1.089999992349   101.21988634   127.38384763
 H      1   2   3     1.090003034438   117.30377801     4.01339347
 H      2   1   3     1.090000131154   102.84613078   119.64335902
 H      2   1   3     1.090000045936   121.67042618   241.13181599
 H      8   7   6     1.090000029007   108.72609908   302.89019741
 H      8   7   6     1.090001539381   105.21776346   181.32885802
 H      8   7   6     1.090000251728   105.92991893    57.74834730
 H      9   7   6     1.009999960293   116.84401563   171.95001241
 H     12  10   9     1.009999969916   113.84624345   181.26295316
 H     13  12  10     1.090000063313   107.61119509   139.92075006
 H     15  14  13     1.080000063373   123.06021767   349.43170597
 H     16  15  14     1.080000067906   123.12221851   171.63812770
 H     17  16  15     1.080000021349   117.09004668   169.20790880
 H     19  18  17     0.960000146900   113.06252890   355.93502767
 H     20  18  17     1.080004025405   119.04397118   182.77917899

---------------------------
INTERNAL COORDINATES (A.U.)
---------------------------
 C      0   0   0     0.000000000000     0.00000000     0.00000000
 C      1   0   0     2.883824870488     0.00000000     0.00000000
 O      2   1   0     2.660853735523   109.55372251     0.00000000
 C      3   2   1     2.485994119419   122.25526335   285.25037608
 O      4   3   2     2.387095493240   123.73475598     9.79997709
 C      4   3   2     2.813635889107   117.51688782   181.04763949
 C      6   4   3     2.581131173854   128.87625253   356.33022961
 C      7   6   4     2.904832182591   122.18779593     1.71798673
 N      7   6   4     2.471650235555   119.45591894   181.11593193
 C      9   7   6     2.549224264878   126.35314730     7.01238276
 S     10   9   7     3.491090324415   122.68462828   164.57115304
 N     10   9   7     2.574827594731   116.90137344   359.36866600
 C     12  10   9     2.635529044708   122.57129665   346.93800572
 C     13  12  10     2.892304562597   102.40122560   252.45835407
 C     14  13  12     2.624448084848   122.25222028   271.47982174
 C     15  14  13     2.638375829958   118.84116491   177.50860143
 C     16  15  14     2.600681527561   123.40977384     3.62333930
 C     17  16  15     2.567580739569   117.28814224   356.57908565
 O     18  17  16     2.623305312195   116.78688766   174.31642907
 C     18  17  16     2.605186276358   121.81403353     0.60919104
 H      1   2   3     2.059796044647   109.30078902   243.74441394
 H      1   2   3     2.059801471516   101.21988634   127.38384763
 H      1   2   3     2.059807220232   117.30377801     4.01339347
 H      2   1   3     2.059801733819   102.84613078   119.64335902
 H      2   1   3     2.059801572780   121.67042618   241.13181599
 H      8   7   6     2.059801540789   108.72609908   302.89019741
 H      8   7   6     2.059804394983   105.21776346   181.32885802
 H      8   7   6     2.059801961672   105.92991893    57.74834730
 H      9   7   6     1.908623320226   116.84401563   171.95001241
 H     12  10   9     1.908623338409   113.84624345   181.26295316
 H     13  12  10     2.059801605619   107.61119509   139.92075006
 H     15  14  13     2.040904344393   123.06021767   349.43170597
 H     16  15  14     2.040904352958   123.12221851   171.63812770
 H     17  16  15     2.040904264978   117.09004668   169.20790880
 H     19  18  17     1.814137366165   113.06252890   355.93502767
 H     20  18  17     2.040911831549   119.04397118   182.77917899

---------------------
BASIS SET INFORMATION
---------------------
There are 5 groups of distinct atoms

 Group   1 Type C   : 6s3p contracted to 2s1p pattern {33/3}
 Group   2 Type O   : 6s3p contracted to 2s1p pattern {33/3}
 Group   3 Type N   : 6s3p contracted to 2s1p pattern {33/3}
 Group   4 Type S   : 9s6p contracted to 3s2p pattern {333/33}
 Group   5 Type H   : 3s contracted to 1s pattern {3}

Atom   0C    basis set group =>   1
Atom   1C    basis set group =>   1
Atom   2O    basis set group =>   2
Atom   3C    basis set group =>   1
Atom   4O    basis set group =>   2
Atom   5C    basis set group =>   1
Atom   6C    basis set group =>   1
Atom   7C    basis set group =>   1
Atom   8N    basis set group =>   3
Atom   9C    basis set group =>   1
Atom  10S    basis set group =>   4
Atom  11N    basis set group =>   3
Atom  12C    basis set group =>   1
Atom  13C    basis set group =>   1
Atom  14C    basis set group =>   1
Atom  15C    basis set group =>   1
Atom  16C    basis set group =>   1
Atom  17C    basis set group =>   1
Atom  18O    basis set group =>   2
Atom  19C    basis set group =>   1
Atom  20H    basis set group =>   5
Atom  21H    basis set group =>   5
Atom  22H    basis set group =>   5
Atom  23H    basis set group =>   5
Atom  24H    basis set group =>   5
Atom  25H    basis set group =>   5
Atom  26H    basis set group =>   5
Atom  27H    basis set group =>   5
Atom  28H    basis set group =>   5
Atom  29H    basis set group =>   5
Atom  30H    basis set group =>   5
Atom  31H    basis set group =>   5
Atom  32H    basis set group =>   5
Atom  33H    basis set group =>   5
Atom  34H    basis set group =>   5
Atom  35H    basis set group =>   5
------------------------------------------------------------------------------
                           ORCA GTO INTEGRAL CALCULATION
------------------------------------------------------------------------------
------------------------------------------------------------------------------
                   ___                                                        
                  /   \      - P O W E R E D   B Y -                         
                 /     \                                                     
                 |  |  |   _    _      __       _____    __    __             
                 |  |  |  | |  | |    /  \     |  _  \  |  |  /  |          
                  \  \/   | |  | |   /    \    | | | |  |  | /  /          
                 / \  \   | |__| |  /  /\  \   | |_| |  |  |/  /          
                |  |  |   |  __  | /  /__\  \  |    /   |      \           
                |  |  |   | |  | | |   __   |  |    \   |  |\   \          
                \     /   | |  | | |  |  |  |  | |\  \  |  | \   \       
                 \___/    |_|  |_| |__|  |__|  |_| \__\ |__|  \__/        
                                                                              
                      - O R C A' S   B I G   F R I E N D -                    
                                      &                                       
                       - I N T E G R A L  F E E D E R -                       
                                                                              
 v1 FN, 2020, v2 2021                                                         
------------------------------------------------------------------------------


Reading SHARK input file qm_input.vacu.SHARKINP.tmp ... ok
----------------------
SHARK INTEGRAL PACKAGE
----------------------

Number of atoms                             ...     36
Number of basis functions                   ...    120
Number of shells                            ...     78
Maximum angular momentum                    ...      1
Integral batch strategy                     ... SHARK/LIBINT Hybrid
RI-J (if used) integral strategy            ... SPLIT-RIJ (Revised 2003 algorithm where possible)
Printlevel                                  ...      1
Contraction scheme used                     ... SEGMENTED contraction
Coulomb Range Separation                    ... NOT USED
Exchange Range Separation                   ... NOT USED
Finite Nucleus Model                        ... NOT USED
Auxiliary Coulomb fitting basis             ... NOT available
Auxiliary J/K fitting basis                 ... NOT available
Auxiliary Correlation fitting basis         ... NOT available
Auxiliary 'external' fitting basis          ... NOT available
Integral threshold                          ...     2.500000e-11
Primitive cut-off                           ...     2.500000e-12
Primitive pair pre-selection threshold      ...     2.500000e-12

Calculating pre-screening integrals         ... done (  0.1 sec) Dimension = 78
Organizing shell pair data                  ... done (  0.2 sec)
Shell pair information
Total number of shell pairs                 ...      3081
Shell pairs after pre-screening             ...      2509
Total number of primitive shell pairs       ...     27729
Primitive shell pairs kept                  ...     13602
          la=0 lb=0:   1246 shell pairs
          la=1 lb=0:   1043 shell pairs
          la=1 lb=1:    220 shell pairs

Calculating one electron integrals          ... done (  0.0 sec)
Calculating Nuclear repulsion               ... done (  0.1 sec) ENN=   1689.820089327859 Eh

SHARK setup successfully completed in   1.0 seconds

Maximum memory used throughout the entire GTOINT-calculation: 15.9 MB
-------------------------------------------------------------------------------
                                 ORCA SCF
-------------------------------------------------------------------------------

------------
SCF SETTINGS
------------
Hamiltonian:
 Ab initio Hamiltonian  Method          .... Hartree-Fock(GTOs)


General Settings:
 Integral files         IntName         .... qm_input.vacu
 Hartree-Fock type      HFTyp           .... RHF
 Total Charge           Charge          ....    0
 Multiplicity           Mult            ....    1
 Number of Electrons    NEL             ....  154
 Basis Dimension        Dim             ....  120
 Nuclear Repulsion      ENuc            ....   1689.8200893279 Eh

Convergence Acceleration:
 DIIS                   CNVDIIS         .... on
   Start iteration      DIISMaxIt       ....    12
   Startup error        DIISStart       ....  0.200000
   # of expansion vecs  DIISMaxEq       ....     5
   Bias factor          DIISBfac        ....   1.050
   Max. coefficient     DIISMaxC        ....  10.000
 Trust-Rad. Augm. Hess. CNVTRAH         .... auto
   Auto Start mean grad. ratio tolernc. ....  1.125000
   Auto Start start iteration           ....    20
   Auto Start num. interpolation iter.  ....    10
   Max. Number of Micro iterations      ....    16
   Max. Number of Macro iterations      .... Maxiter - #DIIS iter
   Number of Davidson start vectors     ....     2
   Converg. threshold I  (grad. norm)   ....   1.000e-05
   Converg. threshold II (energy diff.) ....   1.000e-08
   Grad. Scal. Fac. for Micro threshold ....   0.100
   Minimum threshold for Micro iter.    ....   0.010
   NR start threshold (gradient norm)   ....   0.001
   Initial trust radius                 ....   0.400
   Minimum AH scaling param. (alpha)    ....   1.000
   Maximum AH scaling param. (alpha)    .... 1000.000
   Orbital update algorithm             .... Taylor
   White noise on init. David. guess    .... on
   Maximum white noise                  ....   0.010
   Quad. conv. algorithm                .... NR
 SOSCF                  CNVSOSCF        .... on
   Start iteration      SOSCFMaxIt      ....   150
   Startup grad/error   SOSCFStart      ....  0.003300
 Level Shifting         CNVShift        .... on
   Level shift para.    LevelShift      ....    0.2500
   Turn off err/grad.   ShiftErr        ....    0.0010
 Zerner damping         CNVZerner       .... off
 Static damping         CNVDamp         .... on
   Fraction old density DampFac         ....    0.7000
   Max. Damping (<1)    DampMax         ....    0.9800
   Min. Damping (>=0)   DampMin         ....    0.0000
   Turn off err/grad.   DampErr         ....    0.1000
 Fernandez-Rico         CNVRico         .... off

SCF Procedure:
 Maximum # iterations   MaxIter         ....   125
 SCF integral mode      SCFMode         .... Direct
   Integral package                     .... SHARK and LIBINT hybrid scheme
 Reset frequency        DirectResetFreq ....    20
 Integral Threshold     Thresh          ....  2.500e-11 Eh
 Primitive CutOff       TCut            ....  2.500e-12 Eh

Convergence Tolerance:
 Convergence Check Mode ConvCheckMode   .... Total+1el-Energy
 Convergence forced     ConvForced      .... 0
 Energy Change          TolE            ....  1.000e-08 Eh
 1-El. energy change                    ....  1.000e-05 Eh
 Orbital Gradient       TolG            ....  1.000e-05
 Orbital Rotation angle TolX            ....  1.000e-05
 DIIS Error             TolErr          ....  5.000e-07


Diagonalization of the overlap matrix:
Smallest eigenvalue                        ... 1.655e-01
Time for diagonalization                   ...    0.002 sec
Threshold for overlap eigenvalues          ... 1.000e-08
Number of eigenvalues below threshold      ... 0
Time for construction of square roots      ...    0.143 sec
Total time needed                          ...    0.145 sec

Time for model grid setup =    1.448 sec

------------------------------
INITIAL GUESS: MODEL POTENTIAL
------------------------------
Loading Hartree-Fock densities                     ... done
Calculating cut-offs                               ... done
Initializing the effective Hamiltonian             ... done
Setting up the integral package (SHARK)            ... done
Starting the Coulomb interaction                   ... done (   1.0 sec)
Reading the grid                                   ... done
Mapping shells                                     ... done
Starting the XC term evaluation                    ... done (   0.5 sec)
Transforming the Hamiltonian                       ... done (   0.0 sec)
Diagonalizing the Hamiltonian                      ... done (   0.0 sec)
Back transforming the eigenvectors                 ... done (   0.0 sec)
Now organizing SCF variables                       ... done
                      ------------------
                      INITIAL GUESS DONE (   3.9 sec)
                      ------------------
--------------
SCF ITERATIONS
--------------
ITER       Energy         Delta-E        Max-DP      RMS-DP      [F,P]     Damp
               ***  Starting incremental Fock matrix formation  ***
  0  -1254.7091089073   0.000000000000 0.06199328  0.00279401  0.1277377 0.7000
  1  -1254.8048107833  -0.095701875960 0.05563084  0.00236105  0.0868000 0.7000
                               ***Turning on DIIS***
  2  -1254.8699079794  -0.065097196157 0.13036158  0.00548472  0.0633885 0.0000
  3  -1254.8764962916  -0.006588312174 0.03621148  0.00155569  0.0326736 0.0000
  4  -1255.0975597864  -0.221063494783 0.01533670  0.00058056  0.0090028 0.0000
  5  -1255.0664140967   0.031145689670 0.00988489  0.00039601  0.0051212 0.0000
                      *** Initiating the SOSCF procedure ***
                           *** Shutting down DIIS ***
                      *** Re-Reading the Fockian *** 
                      *** Removing any level shift *** 
ITER      Energy       Delta-E        Grad      Rot      Max-DP    RMS-DP
  6  -1255.03375525   0.0326588473  0.002859  0.002859  0.006375  0.000225
               *** Restarting incremental Fock matrix formation ***
  7  -1255.02738071   0.0063745417  0.001067  0.003008  0.002648  0.000108
  8  -1255.02742009  -0.0000393842  0.000573  0.003908  0.004312  0.000153
  9  -1255.02744033  -0.0000202389  0.000193  0.000277  0.000632  0.000020
 10  -1255.02744126  -0.0000009281  0.000090  0.000185  0.000164  0.000007
 11  -1255.02744146  -0.0000001967  0.000029  0.000116  0.000121  0.000005
 12  -1255.02744149  -0.0000000315  0.000009  0.000034  0.000037  0.000001
 13  -1255.02744149  -0.0000000010  0.000003  0.000011  0.000017  0.000001
                  ***Gradient check signals convergence***
              ***Rediagonalizing the Fockian in SOSCF/NRSCF***

               *****************************************************
               *                     SUCCESS                       *
               *           SCF CONVERGED AFTER  14 CYCLES          *
               *****************************************************


----------------
TOTAL SCF ENERGY
----------------

Total Energy       :        -1255.02744149 Eh          -34151.03289 eV

Components:
Nuclear Repulsion  :         1689.82008933 Eh           45982.34233 eV
Electronic Energy  :        -2944.84753082 Eh          -80133.37522 eV
One Electron Energy:        -5092.32735629 Eh         -138569.27209 eV
Two Electron Energy:         2147.47982547 Eh           58435.89687 eV

Virial components:
Potential Energy   :        -2498.56889047 Eh          -67989.51603 eV
Kinetic Energy     :         1243.54144899 Eh           33838.48314 eV
Virial Ratio       :            2.00923652


---------------
SCF CONVERGENCE
---------------

  Last Energy change         ...    2.7148e-10  Tolerance :   1.0000e-08
  Last MAX-Density change    ...    1.1130e-05  Tolerance :   1.0000e-07
  Last RMS-Density change    ...    2.3253e-07  Tolerance :   5.0000e-09
  Last Orbital Gradient      ...    1.1724e-06  Tolerance :   1.0000e-05
  Last Orbital Rotation      ...    2.9565e-06  Tolerance :   1.0000e-05

             **** THE GBW FILE WAS UPDATED (qm_input.vacu.gbw) ****
             **** DENSITY qm_input.vacu.scfp WAS UPDATED ****
             **** ENERGY FILE WAS UPDATED (qm_input.vacu.en.tmp) ****
             **** THE GBW FILE WAS UPDATED (qm_input.vacu.gbw) ****
             **** DENSITY qm_input.vacu.scfp WAS UPDATED ****
----------------
ORBITAL ENERGIES
----------------

  NO   OCC          E(Eh)            E(eV) 
   0   2.0000     -90.534587     -2463.5714 
   1   2.0000     -20.301927      -552.4435 
   2   2.0000     -20.276651      -551.7557 
   3   2.0000     -20.203329      -549.7605 
   4   2.0000     -15.442487      -420.2114 
   5   2.0000     -15.393637      -418.8821 
   6   2.0000     -11.161928      -303.7315 
   7   2.0000     -11.130311      -302.8712 
   8   2.0000     -11.130135      -302.8664 
   9   2.0000     -11.123258      -302.6792 
  10   2.0000     -11.116950      -302.5076 
  11   2.0000     -11.095966      -301.9366 
  12   2.0000     -11.082517      -301.5706 
  13   2.0000     -11.052610      -300.7568 
  14   2.0000     -11.044627      -300.5396 
  15   2.0000     -11.033969      -300.2496 
  16   2.0000     -11.024973      -300.0048 
  17   2.0000     -11.021235      -299.9031 
  18   2.0000     -11.020970      -299.8958 
  19   2.0000     -11.020866      -299.8930 
  20   2.0000      -8.461794      -230.2571 
  21   2.0000      -6.093350      -165.8085 
  22   2.0000      -6.090301      -165.7255 
  23   2.0000      -6.089051      -165.6915 
  24   2.0000      -1.384334       -37.6696 
  25   2.0000      -1.311158       -35.6784 
  26   2.0000      -1.302042       -35.4304 
  27   2.0000      -1.250414       -34.0255 
  28   2.0000      -1.201242       -32.6874 
  29   2.0000      -1.097552       -29.8659 
  30   2.0000      -1.053087       -28.6559 
  31   2.0000      -1.000976       -27.2380 
  32   2.0000      -0.982565       -26.7370 
  33   2.0000      -0.949545       -25.8384 
  34   2.0000      -0.946929       -25.7673 
  35   2.0000      -0.892895       -24.2969 
  36   2.0000      -0.855235       -23.2721 
  37   2.0000      -0.843336       -22.9483 
  38   2.0000      -0.776110       -21.1190 
  39   2.0000      -0.773515       -21.0484 
  40   2.0000      -0.764287       -20.7973 
  41   2.0000      -0.733528       -19.9603 
  42   2.0000      -0.680418       -18.5151 
  43   2.0000      -0.671449       -18.2710 
  44   2.0000      -0.663338       -18.0503 
  45   2.0000      -0.637594       -17.3498 
  46   2.0000      -0.626157       -17.0386 
  47   2.0000      -0.622308       -16.9339 
  48   2.0000      -0.613623       -16.6975 
  49   2.0000      -0.597857       -16.2685 
  50   2.0000      -0.583797       -15.8859 
  51   2.0000      -0.575721       -15.6662 
  52   2.0000      -0.564008       -15.3474 
  53   2.0000      -0.558988       -15.2108 
  54   2.0000      -0.553260       -15.0550 
  55   2.0000      -0.548202       -14.9173 
  56   2.0000      -0.541013       -14.7217 
  57   2.0000      -0.517827       -14.0908 
  58   2.0000      -0.516592       -14.0572 
  59   2.0000      -0.507682       -13.8147 
  60   2.0000      -0.484691       -13.1891 
  61   2.0000      -0.478413       -13.0183 
  62   2.0000      -0.473647       -12.8886 
  63   2.0000      -0.466828       -12.7030 
  64   2.0000      -0.441804       -12.0221 
  65   2.0000      -0.410245       -11.1633 
  66   2.0000      -0.401817       -10.9340 
  67   2.0000      -0.391632       -10.6568 
  68   2.0000      -0.384361       -10.4590 
  69   2.0000      -0.358964        -9.7679 
  70   2.0000      -0.325892        -8.8680 
  71   2.0000      -0.316284        -8.6065 
  72   2.0000      -0.281304        -7.6547 
  73   2.0000      -0.253988        -6.9114 
  74   2.0000      -0.248283        -6.7561 
  75   2.0000      -0.166255        -4.5240 
  76   2.0000      -0.153422        -4.1748 
  77   0.0000       0.200459         5.4548 
  78   0.0000       0.258951         7.0464 
  79   0.0000       0.279035         7.5929 
  80   0.0000       0.299826         8.1587 
  81   0.0000       0.391252        10.6465 
  82   0.0000       0.462952        12.5976 
  83   0.0000       0.484970        13.1967 
  84   0.0000       0.495339        13.4789 
  85   0.0000       0.526115        14.3163 
  86   0.0000       0.545746        14.8505 
  87   0.0000       0.568159        15.4604 
  88   0.0000       0.588237        16.0067 
  89   0.0000       0.591952        16.1078 
  90   0.0000       0.608126        16.5480 
  91   0.0000       0.618447        16.8288 
  92   0.0000       0.628758        17.1094 
  93   0.0000       0.650540        17.7021 
  94   0.0000       0.670957        18.2577 
  95   0.0000       0.680028        18.5045 
  96   0.0000       0.687102        18.6970 
  97   0.0000       0.689831        18.7712 
  98   0.0000       0.703845        19.1526 
  99   0.0000       0.713208        19.4074 
 100   0.0000       0.719099        19.5677 
 101   0.0000       0.727916        19.8076 
 102   0.0000       0.737408        20.0659 
 103   0.0000       0.751391        20.4464 
 104   0.0000       0.757384        20.6095 
 105   0.0000       0.761069        20.7097 
 106   0.0000       0.764018        20.7900 
 107   0.0000       0.786633        21.4054 
 108   0.0000       0.810120        22.0445 
 109   0.0000       0.831427        22.6243 
 110   0.0000       0.846653        23.0386 
 111   0.0000       0.869783        23.6680 
 112   0.0000       0.900409        24.5014 
 113   0.0000       0.924556        25.1584 
 114   0.0000       0.926915        25.2226 
 115   0.0000       0.970831        26.4177 
 116   0.0000       1.019853        27.7516 
 117   0.0000       1.085133        29.5280 
 118   0.0000       1.114171        30.3181 
 119   0.0000       1.157770        31.5045 

                    ********************************
                    * MULLIKEN POPULATION ANALYSIS *
                    ********************************

-----------------------
MULLIKEN ATOMIC CHARGES
-----------------------
   0 C :   -0.185294
   1 C :    0.034719
   2 O :   -0.290962
   3 C :    0.303865
   4 O :   -0.293970
   5 C :   -0.067464
   6 C :    0.158908
   7 C :   -0.177799
   8 N :   -0.352897
   9 C :    0.188571
  10 S :   -0.205085
  11 N :   -0.344292
  12 C :    0.064313
  13 C :    0.022365
  14 C :   -0.089310
  15 C :   -0.045653
  16 C :   -0.108222
  17 C :    0.135907
  18 O :   -0.308515
  19 C :   -0.095836
  20 H :    0.063436
  21 H :    0.074723
  22 H :    0.077675
  23 H :    0.076210
  24 H :    0.075557
  25 H :    0.094168
  26 H :    0.068470
  27 H :    0.097518
  28 H :    0.245089
  29 H :    0.236338
  30 H :    0.084077
  31 H :    0.062704
  32 H :    0.062036
  33 H :    0.060756
  34 H :    0.212686
  35 H :    0.065207
Sum of atomic charges:    0.0000000

--------------------------------
MULLIKEN REDUCED ORBITAL CHARGES
--------------------------------
  0 C s       :     3.175187  s :     3.175187
      pz      :     1.002460  p :     3.010107
      px      :     1.003323
      py      :     1.004324
  1 C s       :     3.158344  s :     3.158344
      pz      :     0.969750  p :     2.806937
      px      :     0.924044
      py      :     0.913142
  2 O s       :     3.759684  s :     3.759684
      pz      :     1.350310  p :     4.531278
      px      :     1.550663
      py      :     1.630305
  3 C s       :     3.077223  s :     3.077223
      pz      :     0.828743  p :     2.618912
      px      :     0.902987
      py      :     0.887182
  4 O s       :     3.876446  s :     3.876446
      pz      :     1.638826  p :     4.417525
      px      :     1.504935
      py      :     1.273763
  5 C s       :     3.099185  s :     3.099185
      pz      :     0.965117  p :     2.968279
      px      :     1.074838
      py      :     0.928323
  6 C s       :     3.087186  s :     3.087186
      pz      :     0.922486  p :     2.753906
      px      :     0.887853
      py      :     0.943568
  7 C s       :     3.182378  s :     3.182378
      pz      :     0.961755  p :     2.995421
      px      :     1.033160
      py      :     1.000506
  8 N s       :     3.410725  s :     3.410725
      pz      :     1.270583  p :     3.942172
      px      :     1.433202
      py      :     1.238387
  9 C s       :     3.214580  s :     3.214580
      pz      :     0.827521  p :     2.596849
      px      :     0.886960
      py      :     0.882368
 10 S s       :     5.937618  s :     5.937618
      pz      :     3.654049  p :    10.267467
      px      :     3.005366
      py      :     3.608052
 11 N s       :     3.425985  s :     3.425985
      pz      :     1.361549  p :     3.918307
      px      :     1.410160
      py      :     1.146598
 12 C s       :     3.132187  s :     3.132187
      pz      :     0.947502  p :     2.803500
      px      :     0.886905
      py      :     0.969093
 13 C s       :     3.134768  s :     3.134768
      pz      :     0.948059  p :     2.842866
      px      :     0.936363
      py      :     0.958445
 14 C s       :     3.119427  s :     3.119427
      pz      :     0.963797  p :     2.969883
      px      :     1.018033
      py      :     0.988052
 15 C s       :     3.129386  s :     3.129386
      pz      :     0.976748  p :     2.916267
      px      :     0.964268
      py      :     0.975252
 16 C s       :     3.106567  s :     3.106567
      pz      :     1.003345  p :     3.001655
      px      :     0.999794
      py      :     0.998517
 17 C s       :     3.090310  s :     3.090310
      pz      :     0.984726  p :     2.773783
      px      :     0.881075
      py      :     0.907983
 18 O s       :     3.797452  s :     3.797452
      pz      :     1.598471  p :     4.511063
      px      :     1.254597
      py      :     1.657994
 19 C s       :     3.115841  s :     3.115841
      pz      :     0.981010  p :     2.979995
      px      :     0.990630
      py      :     1.008355
 20 H s       :     0.936564  s :     0.936564
 21 H s       :     0.925277  s :     0.925277
 22 H s       :     0.922325  s :     0.922325
 23 H s       :     0.923790  s :     0.923790
 24 H s       :     0.924443  s :     0.924443
 25 H s       :     0.905832  s :     0.905832
 26 H s       :     0.931530  s :     0.931530
 27 H s       :     0.902482  s :     0.902482
 28 H s       :     0.754911  s :     0.754911
 29 H s       :     0.763662  s :     0.763662
 30 H s       :     0.915923  s :     0.915923
 31 H s       :     0.937296  s :     0.937296
 32 H s       :     0.937964  s :     0.937964
 33 H s       :     0.939244  s :     0.939244
 34 H s       :     0.787314  s :     0.787314
 35 H s       :     0.934793  s :     0.934793


                     *******************************
                     * LOEWDIN POPULATION ANALYSIS *
                     *******************************

----------------------
LOEWDIN ATOMIC CHARGES
----------------------
   0 C :   -0.097975
   1 C :    0.077892
   2 O :   -0.188039
   3 C :    0.223920
   4 O :   -0.259972
   5 C :   -0.112312
   6 C :    0.124036
   7 C :   -0.085539
   8 N :   -0.146230
   9 C :    0.110147
  10 S :   -0.242375
  11 N :   -0.171915
  12 C :    0.078686
  13 C :    0.024668
  14 C :   -0.066783
  15 C :   -0.009300
  16 C :   -0.089553
  17 C :    0.120083
  18 O :   -0.204382
  19 C :   -0.082460
  20 H :    0.032144
  21 H :    0.042765
  22 H :    0.044806
  23 H :    0.037770
  24 H :    0.035778
  25 H :    0.057727
  26 H :    0.037456
  27 H :    0.060599
  28 H :    0.170037
  29 H :    0.162894
  30 H :    0.040932
  31 H :    0.031069
  32 H :    0.029598
  33 H :    0.031060
  34 H :    0.149197
  35 H :    0.033571

-------------------------------
LOEWDIN REDUCED ORBITAL CHARGES
-------------------------------
  0 C s       :     3.000143  s :     3.000143
      pz      :     1.031096  p :     3.097832
      px      :     1.028363
      py      :     1.038373
  1 C s       :     3.016911  s :     3.016911
      pz      :     0.994645  p :     2.905196
      px      :     0.956934
      py      :     0.953617
  2 O s       :     3.618455  s :     3.618455
      pz      :     1.371113  p :     4.569584
      px      :     1.558185
      py      :     1.640287
  3 C s       :     3.033015  s :     3.033015
      pz      :     0.878455  p :     2.743065
      px      :     0.922818
      py      :     0.941792
  4 O s       :     3.782700  s :     3.782700
      pz      :     1.646465  p :     4.477273
      px      :     1.506821
      py      :     1.323987
  5 C s       :     3.018846  s :     3.018846
      pz      :     1.007335  p :     3.093466
      px      :     1.097550
      py      :     0.988581
  6 C s       :     3.004532  s :     3.004532
      pz      :     0.960805  p :     2.871433
      px      :     0.920303
      py      :     0.990325
  7 C s       :     3.004936  s :     3.004936
      pz      :     0.999372  p :     3.080603
      px      :     1.054002
      py      :     1.027229
  8 N s       :     3.190925  s :     3.190925
      pz      :     1.279651  p :     3.955305
      px      :     1.433893
      py      :     1.241760
  9 C s       :     3.153690  s :     3.153690
      pz      :     0.879548  p :     2.736162
      px      :     0.913442
      py      :     0.943173
 10 S s       :     5.919672  s :     5.919672
      pz      :     3.661527  p :    10.322703
      px      :     3.039603
      py      :     3.621573
 11 N s       :     3.224873  s :     3.224873
      pz      :     1.361060  p :     3.947042
      px      :     1.413443
      py      :     1.172538
 12 C s       :     2.999329  s :     2.999329
      pz      :     0.985043  p :     2.921985
      px      :     0.937496
      py      :     0.999446
 13 C s       :     3.033799  s :     3.033799
      pz      :     0.982741  p :     2.941532
      px      :     0.966377
      py      :     0.992414
 14 C s       :     3.003809  s :     3.003809
      pz      :     1.007750  p :     3.062974
      px      :     1.039424
      py      :     1.015800
 15 C s       :     3.008164  s :     3.008164
      pz      :     1.001189  p :     3.001136
      px      :     0.997776
      py      :     1.002171
 16 C s       :     2.992114  s :     2.992114
      pz      :     1.030949  p :     3.097439
      px      :     1.028464
      py      :     1.038026
 17 C s       :     3.004355  s :     3.004355
      pz      :     1.015355  p :     2.875562
      px      :     0.918698
      py      :     0.941508
 18 O s       :     3.653261  s :     3.653261
      pz      :     1.607105  p :     4.551121
      px      :     1.275868
      py      :     1.668148
 19 C s       :     3.004786  s :     3.004786
      pz      :     1.016555  p :     3.077674
      px      :     1.029217
      py      :     1.031902
 20 H s       :     0.967856  s :     0.967856
 21 H s       :     0.957235  s :     0.957235
 22 H s       :     0.955194  s :     0.955194
 23 H s       :     0.962230  s :     0.962230
 24 H s       :     0.964222  s :     0.964222
 25 H s       :     0.942273  s :     0.942273
 26 H s       :     0.962544  s :     0.962544
 27 H s       :     0.939401  s :     0.939401
 28 H s       :     0.829963  s :     0.829963
 29 H s       :     0.837106  s :     0.837106
 30 H s       :     0.959068  s :     0.959068
 31 H s       :     0.968931  s :     0.968931
 32 H s       :     0.970402  s :     0.970402
 33 H s       :     0.968940  s :     0.968940
 34 H s       :     0.850803  s :     0.850803
 35 H s       :     0.966429  s :     0.966429


                      *****************************
                      * MAYER POPULATION ANALYSIS *
                      *****************************

  NA   - Mulliken gross atomic population
  ZA   - Total nuclear charge
  QA   - Mulliken gross atomic charge
  VA   - Mayer's total valence
  BVA  - Mayer's bonded valence
  FA   - Mayer's free valence

  ATOM       NA         ZA         QA         VA         BVA        FA
  0 C      6.1853     6.0000    -0.1853     3.9622     3.9622     0.0000
  1 C      5.9653     6.0000     0.0347     3.8948     3.8948     0.0000
  2 O      8.2910     8.0000    -0.2910     2.1938     2.1938    -0.0000
  3 C      5.6961     6.0000     0.3039     3.9140     3.9140     0.0000
  4 O      8.2940     8.0000    -0.2940     2.0942     2.0942    -0.0000
  5 C      6.0675     6.0000    -0.0675     3.9333     3.9333    -0.0000
  6 C      5.8411     6.0000     0.1589     3.9309     3.9309    -0.0000
  7 C      6.1778     6.0000    -0.1778     3.9519     3.9519     0.0000
  8 N      7.3529     7.0000    -0.3529     3.3264     3.3264    -0.0000
  9 C      5.8114     6.0000     0.1886     3.6705     3.6705     0.0000
 10 S     16.2051    16.0000    -0.2051     1.4688     1.4688    -0.0000
 11 N      7.3443     7.0000    -0.3443     3.2659     3.2659    -0.0000
 12 C      5.9357     6.0000     0.0643     3.9226     3.9226    -0.0000
 13 C      5.9776     6.0000     0.0224     3.9728     3.9728     0.0000
 14 C      6.0893     6.0000    -0.0893     3.9739     3.9739     0.0000
 15 C      6.0457     6.0000    -0.0457     3.9780     3.9780    -0.0000
 16 C      6.1082     6.0000    -0.1082     3.9763     3.9763    -0.0000
 17 C      5.8641     6.0000     0.1359     3.9426     3.9426     0.0000
 18 O      8.3085     8.0000    -0.3085     2.0594     2.0594     0.0000
 19 C      6.0958     6.0000    -0.0958     3.9692     3.9692    -0.0000
 20 H      0.9366     1.0000     0.0634     0.9960     0.9960    -0.0000
 21 H      0.9253     1.0000     0.0747     0.9944     0.9944    -0.0000
 22 H      0.9223     1.0000     0.0777     0.9940     0.9940    -0.0000
 23 H      0.9238     1.0000     0.0762     0.9942     0.9942     0.0000
 24 H      0.9244     1.0000     0.0756     0.9943     0.9943    -0.0000
 25 H      0.9058     1.0000     0.0942     0.9911     0.9911    -0.0000
 26 H      0.9315     1.0000     0.0685     0.9953     0.9953     0.0000
 27 H      0.9025     1.0000     0.0975     0.9905     0.9905     0.0000
 28 H      0.7549     1.0000     0.2451     0.9399     0.9399     0.0000
 29 H      0.7637     1.0000     0.2363     0.9441     0.9441    -0.0000
 30 H      0.9159     1.0000     0.0841     0.9929     0.9929    -0.0000
 31 H      0.9373     1.0000     0.0627     0.9961     0.9961     0.0000
 32 H      0.9380     1.0000     0.0620     0.9962     0.9962    -0.0000
 33 H      0.9392     1.0000     0.0608     0.9963     0.9963     0.0000
 34 H      0.7873     1.0000     0.2127     0.9548     0.9548    -0.0000
 35 H      0.9348     1.0000     0.0652     0.9957     0.9957    -0.0000

  Mayer bond orders larger than 0.100000
B(  0-C ,  1-C ) :   0.9878 B(  0-C , 20-H ) :   0.9846 B(  0-C , 21-H ) :   0.9836 
B(  0-C , 22-H ) :   0.9797 B(  1-C ,  2-O ) :   0.9158 B(  1-C , 23-H ) :   0.9705 
B(  1-C , 24-H ) :   0.9671 B(  2-O ,  3-C ) :   1.0418 B(  2-O ,  4-O ) :   0.1623 
B(  3-C ,  4-O ) :   1.8049 B(  3-C ,  5-C ) :   1.0045 B(  5-C ,  6-C ) :   1.6997 
B(  5-C , 12-C ) :   0.9813 B(  6-C ,  7-C ) :   0.9909 B(  6-C ,  8-N ) :   1.1028 
B(  7-C , 25-H ) :   0.9727 B(  7-C , 26-H ) :   0.9793 B(  7-C , 27-H ) :   0.9718 
B(  8-N ,  9-C ) :   1.1188 B(  8-N , 28-H ) :   0.8978 B(  9-C , 10-S ) :   1.2455 
B(  9-C , 11-N ) :   1.2222 B( 11-N , 12-C ) :   0.9427 B( 11-N , 29-H ) :   0.9019 
B( 12-C , 13-C ) :   0.9572 B( 12-C , 30-H ) :   0.9488 B( 13-C , 14-C ) :   1.4348 
B( 13-C , 16-C ) :   0.1076 B( 13-C , 19-C ) :   1.3982 B( 14-C , 15-C ) :   1.4141 
B( 14-C , 31-H ) :   0.9699 B( 15-C , 16-C ) :   1.4499 B( 15-C , 19-C ) :   0.1158 
B( 15-C , 32-H ) :   0.9723 B( 16-C , 17-C ) :   1.3815 B( 16-C , 33-H ) :   0.9703 
B( 17-C , 18-O ) :   1.0189 B( 17-C , 19-C ) :   1.4006 B( 18-O , 34-H ) :   0.9221 
B( 19-C , 35-H ) :   0.9680 

-------
TIMINGS
-------

Total SCF time: 0 days 0 hours 1 min 23 sec 

Total time                  ....      83.689 sec
Sum of individual times     ....      76.558 sec  ( 91.5%)

Fock matrix formation       ....      67.397 sec  ( 80.5%)
Diagonalization             ....       0.230 sec  (  0.3%)
Density matrix formation    ....       0.005 sec  (  0.0%)
Population analysis         ....       0.502 sec  (  0.6%)
Initial guess               ....       2.473 sec  (  3.0%)
Orbital Transformation      ....       0.000 sec  (  0.0%)
Orbital Orthonormalization  ....       0.000 sec  (  0.0%)
DIIS solution               ....       3.636 sec  (  4.3%)
SOSCF solution              ....       0.869 sec  (  1.0%)

Maximum memory used throughout the entire SCF-calculation: 239.2 MB

-------------------------   --------------------
FINAL SINGLE POINT ENERGY     -1255.027441487838
-------------------------   --------------------


                            ***************************************
                            *     ORCA property calculations      *
                            ***************************************

                                    ---------------------
                                    Active property flags
                                    ---------------------
   (+) Dipole Moment


------------------------------------------------------------------------------
                       ORCA ELECTRIC PROPERTIES CALCULATION
------------------------------------------------------------------------------

Dipole Moment Calculation                       ... on
Quadrupole Moment Calculation                   ... off
Polarizability Calculation                      ... off
GBWName                                         ... qm_input.vacu.gbw
Electron density file                           ... qm_input.vacu.scfp
The origin for moment calculation is the CENTER OF MASS  = (29.201618, -22.994945  6.630064)

-------------
DIPOLE MOMENT
-------------
                                X             Y             Z
Electronic contribution:     -9.14861      -7.79626      12.71008
Nuclear contribution   :     10.45362       8.21334     -13.73041
                        -----------------------------------------
Total Dipole Moment    :      1.30501       0.41708      -1.02034
                        -----------------------------------------
Magnitude (a.u.)       :      1.70824
Magnitude (Debye)      :      4.34200



--------------------
Rotational spectrum 
--------------------
 
Rotational constants in cm-1:     0.010568     0.008583     0.005822 
Rotational constants in MHz :   316.807157   257.319530   174.530766 

 Dipole components along the rotational axes: 
x,y,z [a.u.] :    -1.405332     0.789786    -0.565126 
x,y,z [Debye]:    -3.572071     2.007476    -1.436437 

 

Timings for individual modules:

Sum of individual times         ...       85.903 sec (=   1.432 min)
GTO integral calculation        ...        1.618 sec (=   0.027 min)   1.9 %
SCF iterations                  ...       84.285 sec (=   1.405 min)  98.1 %
                             ****ORCA TERMINATED NORMALLY****
TOTAL RUN TIME: 0 days 0 hours 1 minutes 36 seconds 859 msec
