
                                        *****************
                                        * O   R   C   A *
                                        *****************

                                            #,                                       
                                            ###                                      
                                            ####                                     
                                            #####                                    
                                            ######                                   
                                           ########,                                 
                                     ,,################,,,,,                         
                               ,,#################################,,                 
                          ,,##########################################,,             
                       ,#########################################, ''#####,          
                    ,#############################################,,   '####,        
                  ,##################################################,,,,####,       
                ,###########''''           ''''###############################       
              ,#####''   ,,,,##########,,,,          '''####'''          '####       
            ,##' ,,,,###########################,,,                        '##       
           ' ,,###''''                  '''############,,,                           
         ,,##''                                '''############,,,,        ,,,,,,###''
      ,#''                                            '''#######################'''  
     '                                                          ''''####''''         
             ,#######,   #######,   ,#######,      ##                                
            ,#'     '#,  ##    ##  ,#'     '#,    #''#        ######   ,####,        
            ##       ##  ##   ,#'  ##            #'  '#       #        #'  '#        
            ##       ##  #######   ##           ,######,      #####,   #    #        
            '#,     ,#'  ##    ##  '#,     ,#' ,#      #,         ##   #,  ,#        
             '#######'   ##     ##  '#######'  #'      '#     #####' # '####'        



                  #######################################################
                  #                        -***-                        #
                  #          Department of theory and spectroscopy      #
                  #    Directorship and core code : Frank Neese         #
                  #        Max Planck Institute fuer Kohlenforschung    #
                  #                Kaiser Wilhelm Platz 1               #
                  #                 D-45470 Muelheim/Ruhr               #
                  #                      Germany                        #
                  #                                                     #
                  #                  All rights reserved                #
                  #                        -***-                        #
                  #######################################################


                         Program Version 5.0.0 -  RELEASE  -
                                (SVN: $Rev: 19529$)
                ($Date: 2021-06-28 11:36:33 +0200 (Mo, 28 Jun 2021) $)


 With contributions from (in alphabetic order):
   Daniel Aravena         : Magnetic Suceptibility
   Michael Atanasov       : Ab Initio Ligand Field Theory (pilot matlab implementation)
   Alexander A. Auer      : GIAO ZORA, VPT2 properties, NMR spectrum
   Ute Becker             : Parallelization
   Giovanni Bistoni       : ED, misc. LED, open-shell LED, HFLD
   Martin Brehm           : Molecular dynamics
   Dmytro Bykov           : SCF Hessian
   Vijay G. Chilkuri      : MRCI spin determinant printing, contributions to CSF-ICE
   Dipayan Datta          : RHF DLPNO-CCSD density
   Achintya Kumar Dutta   : EOM-CC, STEOM-CC
   Dmitry Ganyushin       : Spin-Orbit,Spin-Spin,Magnetic field MRCI
   Miquel Garcia          : C-PCM Hessian, Gaussian charge scheme
   Yang Guo               : DLPNO-NEVPT2, F12-NEVPT2, CIM, IAO-localization
   Andreas Hansen         : Spin unrestricted coupled pair/coupled cluster methods
   Benjamin Helmich-Paris : MC-RPA, TRAH-SCF, COSX integrals
   Lee Huntington         : MR-EOM, pCC
   Robert Izsak           : Overlap fitted RIJCOSX, COSX-SCS-MP3, EOM
   Marcus Kettner         : VPT2
   Christian Kollmar      : KDIIS, OOCD, Brueckner-CCSD(T), CCSD density, CASPT2, CASPT2-K
   Simone Kossmann        : Meta GGA functionals, TD-DFT gradient, OOMP2, MP2 Hessian
   Martin Krupicka        : Initial AUTO-CI
   Lucas Lang             : DCDCAS
   Marvin Lechner         : AUTO-CI (C++ implementation), FIC-MRCC
   Dagmar Lenk            : GEPOL surface, SMD
   Dimitrios Liakos       : Extrapolation schemes; Compound Job, initial MDCI parallelization
   Dimitrios Manganas     : Further ROCIS development; embedding schemes
   Dimitrios Pantazis     : SARC Basis sets
   Anastasios Papadopoulos: AUTO-CI, single reference methods and gradients
   Taras Petrenko         : DFT Hessian,TD-DFT gradient, ASA, ECA, R-Raman, ABS, FL, XAS/XES, NRVS
   Peter Pinski           : DLPNO-MP2, DLPNO-MP2 Gradient
   Christoph Reimann      : Effective Core Potentials
   Marius Retegan         : Local ZFS, SOC
   Christoph Riplinger    : Optimizer, TS searches, QM/MM, DLPNO-CCSD(T), (RO)-DLPNO pert. Triples
   Tobias Risthaus        : Range-separated hybrids, TD-DFT gradient, RPA, STAB
   Michael Roemelt        : Original ROCIS implementation
   Masaaki Saitow         : Open-shell DLPNO-CCSD energy and density
   Barbara Sandhoefer     : DKH picture change effects
   Avijit Sen             : IP-ROCIS
   Kantharuban Sivalingam : CASSCF convergence, NEVPT2, FIC-MRCI
   Bernardo de Souza      : ESD, SOC TD-DFT
   Georgi Stoychev        : AutoAux, RI-MP2 NMR
   Willem Van den Heuvel  : Paramagnetic NMR
   Boris Wezisla          : Elementary symmetry handling
   Frank Wennmohs         : Technical directorship


 We gratefully acknowledge several colleagues who have allowed us to
 interface, adapt or use parts of their codes:
   Stefan Grimme, W. Hujo, H. Kruse, P. Pracht,  : VdW corrections, initial TS optimization,
                  C. Bannwarth, S. Ehlert          DFT functionals, gCP, sTDA/sTD-DF
   Ed Valeev, F. Pavosevic, A. Kumar             : LibInt (2-el integral package), F12 methods
   Garnet Chan, S. Sharma, J. Yang, R. Olivares  : DMRG
   Ulf Ekstrom                                   : XCFun DFT Library
   Mihaly Kallay                                 : mrcc  (arbitrary order and MRCC methods)
   Jiri Pittner, Ondrej Demel                    : Mk-CCSD
   Frank Weinhold                                : gennbo (NPA and NBO analysis)
   Christopher J. Cramer and Donald G. Truhlar   : smd solvation model
   Lars Goerigk                                  : TD-DFT with DH, B97 family of functionals
   V. Asgeirsson, H. Jonsson                     : NEB implementation
   FAccTs GmbH                                   : IRC, NEB, NEB-TS, DLPNO-Multilevel, CI-OPT
                                                   MM, QMMM, 2- and 3-layer-ONIOM, Crystal-QMMM,
                                                   LR-CPCM, SF, NACMEs, symmetry and pop. for TD-DFT,
                                                   nearIR, NL-DFT gradient (VV10), updates on ESD,
                                                   ML-optimized integration grids
   S Lehtola, MJT Oliveira, MAL Marques          : LibXC Library
   Liviu Ungur et al                             : ANISO software


 Your calculation uses the libint2 library for the computation of 2-el integrals
 For citations please refer to: http://libint.valeyev.net

 Your ORCA version has been built with support for libXC version: 5.1.0
 For citations please refer to: https://tddft.org/programs/libxc/

 This ORCA versions uses:
   CBLAS   interface :  Fast vector & matrix operations
   LAPACKE interface :  Fast linear algebra routines
   SCALAPACK package :  Parallel linear algebra routines
   Shared memory     :  Shared parallel matrices
   BLAS/LAPACK       :  OpenBLAS 0.3.15  USE64BITINT DYNAMIC_ARCH NO_AFFINITY SkylakeX SINGLE_THREADED
        Core in use  :  SkylakeX
   Copyright (c) 2011-2014, The OpenBLAS Project


================================================================================

----- Orbital basis set information -----
Your calculation utilizes the basis: cc-pVTZ 
       H, B-Ne : Obtained from the ccRepo (grant-hill.group.shef.ac.uk/ccrepo) Feb. 2017
                 T. H. Dunning, Jr., J. Chem. Phys. 90, 1007 (1989)
            He : Obtained from the ccRepo (grant-hill.group.shef.ac.uk/ccrepo) Feb. 2017
                 D. E. Woon, T. H. Dunning, Jr., J. Chem. Phys. 100, 2975 (1994)
  Li-Be, Na-Mg : Obtained from the ccRepo (grant-hill.group.shef.ac.uk/ccrepo) Feb. 2017
                 B. P. Prascher, D. E. Woon, K. A. Peterson, T. H. Dunning, Jr., A. K. Wilson, Theor. Chem. Acc. 128, 69 (2011)
         Al-Ar : Obtained from the ccRepo (grant-hill.group.shef.ac.uk/ccrepo) Feb. 2017
                 D. E. Woon, T. H. Dunning, Jr., J. Chem. Phys. 98, 1358 (1993)
            Ca : Obtained from the Peterson Research Group Website (tyr0.chem.wsu.edu/~kipeters) Feb. 2017
                 J. Koput, K. A. Peterson, J. Phys. Chem. 106, 9595 (2002)
         Sc-Zn : Obtained from the ccRepo (grant-hill.group.shef.ac.uk/ccrepo) Feb. 2017
                 N. B. Balabanov, K. A. Peterson, J. Chem. Phys. 123, 064107 (2005)
                 N. B. Balabanov, K. A. Peterson, J. Chem. Phys. 125, 074110 (2006)
         Ga-Kr : Obtained from the ccRepo (grant-hill.group.shef.ac.uk/ccrepo) Feb. 2017
                 A. K. Wilson, D. E. Woon, K. A. Peterson, T. H. Dunning, Jr., J. Chem. Phys. 110, 7667 (1999)
             Y : Obtained from the ccRepo (grant-hill.group.shef.ac.uk/ccrepo) Feb. 2017
                 K. A. Peterson, D. Figgen, M. Dolg, H. Stoll, J. Chem. Phys. 126, 124101 (2007)
        Ag, Au : Obtained from the Peterson Research Group Website (tyr0.chem.wsu.edu/~kipeters) Feb. 2017
                 K. A. Peterson, C. Puzzarini, Theor. Chem. Acc. 114, 283 (2005)

----- AuxC basis set information -----
Your calculation utilizes the auxiliary basis: cc-pVTZ/C 
  Obtained from the EMSL Basis Set Exchange (bse.pnl.gov) Feb. 2017
  H-He, B-F, Al-Ar, Ga-Kr : F. Weigend, A. Kohn, C. Hattig, J. Chem. Phys. 116, 3175 (2002)
             Li-Be, Na-Mg : C. Haettig, Phys. Chem. Chem. Phys. 7, 59 (2005)
                       Ne : C. Haettig, Phys. Chem. Chem. Phys. 7, 59 (2005)
                            F. Weigend, A. Kohn, C. Hattig, J. Chem. Phys. 116, 3175 (2002)
                    Sc-Zn : J. G. Hill, J. A. Platts, J. Chem. Phys. 128, 044104 (2008)

================================================================================
                                        WARNINGS
                       Please study these warnings very carefully!
================================================================================


WARNING: No MP2 level density has been requested!
         To caclulate MP2 level properties use
         %mp2 Density relaxed end
         or
         %mp2 Density unrelaxed end

WARNING: Post HF methods need fully converged wavefunctions
  ===> : Setting SCFConvForced true
         You can overwrite this default with %scf ConvForced false 


INFO   : the flag for use of the SHARK integral package has been found!

================================================================================
                                       INPUT FILE
================================================================================
NAME = qm_input.solv
|  1> ! RI-MP2 cc-pVTZ cc-pVTZ/c TightSCF KeepDens NoKeepInts
|  2> 
|  3> %pointcharges "srfp_output"
|  4> 
|  5> *xyz  0  1
|  6>     C     9.2091587    4.0408525    0.1496634
|  7>     C     9.6078092    5.4855186    0.3568188
|  8>     O    10.7433056    5.6308083    1.2798804
|  9>     C    11.0157443    6.7873189    1.8520218
| 10>     O    10.2908354    7.7151726    1.6009806
| 11>     C    12.3457514    6.8421211    2.5977948
| 12>     C    12.8901512    7.9912808    3.0955204
| 13>     C    12.2869750    9.3942470    2.9844356
| 14>     N    14.1606702    8.0329552    3.7004816
| 15>     C    15.0073473    6.9175852    3.7264332
| 16>     S    16.5541110    7.0026163    4.2701376
| 17>     N    14.4061968    5.7247128    3.2904060
| 18>     C    13.0430771    5.5240329    2.8093821
| 19>     C    12.2128366    4.6174681    3.8075355
| 20>     C    11.8762776    3.2386203    3.5172925
| 21>     C    11.1462390    2.5215881    4.4518937
| 22>     C    10.8161108    3.0660914    5.7048928
| 23>     C    11.1064016    4.4118998    6.0113998
| 24>     O    10.9717431    4.8215112    7.2619749
| 25>     C    11.8224651    5.1847481    5.0511993
| 26>     H     8.3911334    4.0372236   -0.5810940
| 27>     H     8.8528597    3.4454326    0.9992022
| 28>     H    10.0595079    3.4753441   -0.2507067
| 29>     H     9.8489642    5.9009913   -0.6292931
| 30>     H     8.7250025    5.9935456    0.7639432
| 31>     H    11.1912466    9.4419312    3.0016855
| 32>     H    12.5662193    9.9064556    2.0555359
| 33>     H    12.6308685   10.0830152    3.7658039
| 34>     H    14.6359414    8.8959626    3.9356455
| 35>     H    14.9667638    4.8849017    3.2100592
| 36>     H    13.0890248    4.9290624    1.8890070
| 37>     H    12.1531678    2.7752486    2.5749472
| 38>     H    10.8860547    1.5154944    4.1364922
| 39>     H    10.3878421    2.4070671    6.4543439
| 40>     H    11.0787944    5.7876994    7.3038159
| 41>     H    12.1786228    6.1930051    5.2408452
| 42> *
| 43> 
| 44>                          ****END OF INPUT****
================================================================================

                       ****************************
                       * Single Point Calculation *
                       ****************************

---------------------------------
CARTESIAN COORDINATES (ANGSTROEM)
---------------------------------
  C      9.209159    4.040852    0.149663
  C      9.607809    5.485519    0.356819
  O     10.743306    5.630808    1.279880
  C     11.015744    6.787319    1.852022
  O     10.290835    7.715173    1.600981
  C     12.345751    6.842121    2.597795
  C     12.890151    7.991281    3.095520
  C     12.286975    9.394247    2.984436
  N     14.160670    8.032955    3.700482
  C     15.007347    6.917585    3.726433
  S     16.554111    7.002616    4.270138
  N     14.406197    5.724713    3.290406
  C     13.043077    5.524033    2.809382
  C     12.212837    4.617468    3.807536
  C     11.876278    3.238620    3.517292
  C     11.146239    2.521588    4.451894
  C     10.816111    3.066091    5.704893
  C     11.106402    4.411900    6.011400
  O     10.971743    4.821511    7.261975
  C     11.822465    5.184748    5.051199
  H      8.391133    4.037224   -0.581094
  H      8.852860    3.445433    0.999202
  H     10.059508    3.475344   -0.250707
  H      9.848964    5.900991   -0.629293
  H      8.725003    5.993546    0.763943
  H     11.191247    9.441931    3.001685
  H     12.566219    9.906456    2.055536
  H     12.630868   10.083015    3.765804
  H     14.635941    8.895963    3.935646
  H     14.966764    4.884902    3.210059
  H     13.089025    4.929062    1.889007
  H     12.153168    2.775249    2.574947
  H     10.886055    1.515494    4.136492
  H     10.387842    2.407067    6.454344
  H     11.078794    5.787699    7.303816
  H     12.178623    6.193005    5.240845

----------------------------
CARTESIAN COORDINATES (A.U.)
----------------------------
  NO LB      ZA    FRAG     MASS         X           Y           Z
   0 C     6.0000    0    12.011   17.402788    7.636105    0.282823
   1 C     6.0000    0    12.011   18.156128   10.366128    0.674290
   2 O     8.0000    0    15.999   20.301905   10.640686    2.418623
   3 C     6.0000    0    12.011   20.816740   12.826174    3.499814
   4 O     8.0000    0    15.999   19.446861   14.579563    3.025415
   5 C     6.0000    0    12.011   23.330089   12.929735    4.909121
   6 C     6.0000    0    12.011   24.358856   15.101332    5.849686
   7 C     6.0000    0    12.011   23.219018   17.752554    5.639766
   8 N     7.0000    0    14.007   26.759789   15.180085    6.992897
   9 C     6.0000    0    12.011   28.359776   13.072342    7.041938
  10 S    16.0000    0    32.060   31.282736   13.233027    8.069391
  11 N     7.0000    0    14.007   27.223767   10.818139    6.217966
  12 C     6.0000    0    12.011   24.647844   10.438909    5.308963
  13 C     6.0000    0    12.011   23.078916    8.725750    7.195199
  14 C     6.0000    0    12.011   22.442912    6.120105    6.646720
  15 C     6.0000    0    12.011   21.063339    4.765111    8.412860
  16 C     6.0000    0    12.011   20.439487    5.794073   10.780685
  17 C     6.0000    0    12.011   20.988057    8.337282   11.359899
  18 O     8.0000    0    15.999   20.733590    9.111336   13.723144
  19 C     6.0000    0    12.011   22.341221    9.797754    9.545383
  20 H     1.0000    0     1.008   15.856944    7.629247   -1.098109
  21 H     1.0000    0     1.008   16.729480    6.510924    1.888219
  22 H     1.0000    0     1.008   19.009715    6.567449   -0.473767
  23 H     1.0000    0     1.008   18.611845   11.151257   -1.189192
  24 H     1.0000    0     1.008   16.487865   11.326160    1.443643
  25 H     1.0000    0     1.008   21.148391   17.842664    5.672364
  26 H     1.0000    0     1.008   23.746713   18.720488    3.884400
  27 H     1.0000    0     1.008   23.868882   19.054137    7.116338
  28 H     1.0000    0     1.008   27.657921   16.810933    7.437292
  29 H     1.0000    0     1.008   28.283085    9.231126    6.066133
  30 H     1.0000    0     1.008   24.734672    9.314578    3.569706
  31 H     1.0000    0     1.008   22.966159    5.244460    4.865945
  32 H     1.0000    0     1.008   20.571662    2.863869    7.816837
  33 H     1.0000    0     1.008   19.630177    4.548698   12.196942
  34 H     1.0000    0     1.008   20.935887   10.937167   13.802212
  35 H     1.0000    0     1.008   23.014262   11.703084    9.903762

--------------------------------
INTERNAL COORDINATES (ANGSTROEM)
--------------------------------
 C      0   0   0     0.000000000000     0.00000000     0.00000000
 C      1   0   0     1.512909687122     0.00000000     0.00000000
 O      2   1   0     1.470545439194   112.56645543     0.00000000
 C      3   2   1     1.318743870038   121.23137921   197.68688228
 O      4   3   2     1.203921544786   117.45308442     0.78950380
 C      4   3   2     1.525811107151   115.06408833   189.57539115
 C      6   4   3     1.365529176268   123.77215588   170.67351038
 C      7   6   4     1.531168024542   125.98645103   359.32922021
 N      7   6   4     1.407811542246   122.77452595   184.42837250
 C      9   7   6     1.400566254808   122.00264523     5.85242754
 S     10   9   7     1.641743800410   122.30601367   172.65945442
 N     10   9   7     1.405149887191   114.31072065   350.73675113
 C     12  10   9     1.459366893952   128.21560211     0.89916472
 C     13  12  10     1.583499047796   111.14231567   246.55165358
 C     14  13  12     1.448700871503   122.71224607   253.79609572
 C     15  14  13     1.385846649658   118.66695201   179.96171985
 C     16  15  14     1.405515996617   121.63451182   355.15276406
 C     17  16  15     1.410466426089   120.99960856     6.09530458
 O     18  17  16     1.322819901337   118.68182085   190.46681145
 C     14  13  12     1.421582271218   117.83805925    71.97741818
 H      1   2   3     1.096897870364   106.91106515   182.41021087
 H      1   2   3     1.096900181157   119.85975627    62.25975795
 H      1   2   3     1.096900054419   109.75517591   301.05003001
 H      2   1   3     1.096900167651   107.24868077   122.27398657
 H      2   1   3     1.096899894872   106.32038711   239.44304773
 H      8   7   6     1.096901120679   115.60738212    33.29711460
 H      8   7   6     1.096900032663   112.89318297   273.29061300
 H      8   7   6     1.096905097499   113.58836201   156.09271628
 H      9   7   6     1.012900067069   123.26059117   169.73105520
 H     12  10   9     1.012903575590   119.45276286   175.35646029
 H     13  12  10     1.096900821271   108.18150527   133.08429680
 H     15  14  13     1.086000082711   121.38035107   357.75864619
 H     16  15  14     1.086001155316   114.18433449   176.67667549
 H     17  16  15     1.086003710252   118.21298376   189.87208483
 H     19  18  17     0.973000661835   109.69029673   188.10226816
 H     20  14  13     1.086000024266   115.67061337   356.72055580

---------------------------
INTERNAL COORDINATES (A.U.)
---------------------------
 C      0   0   0     0.000000000000     0.00000000     0.00000000
 C      1   0   0     2.858984974018     0.00000000     0.00000000
 O      2   1   0     2.778928147563   112.56645543     0.00000000
 C      3   2   1     2.492064755160   121.23137921   197.68688228
 O      4   3   2     2.275082006373   117.45308442     0.78950380
 C      4   3   2     2.883365124610   115.06408833   189.57539115
 C      6   4   3     2.580476171026   123.77215588   170.67351038
 C      7   6   4     2.893488231402   125.98645103   359.32922021
 N      7   6   4     2.660378263019   122.77452595   184.42837250
 C      9   7   6     2.646686653999   122.00264523     5.85242754
 S     10   9   7     3.102446164838   122.30601367   172.65945442
 N     10   9   7     2.655348463901   114.31072065   350.73675113
 C     12  10   9     2.757803758481   128.21560211     0.89916472
 C     13  12  10     2.992379533660   111.14231567   246.55165358
 C     14  13  12     2.737647897115   122.71224607   253.79609572
 C     15  14  13     2.618870631466   118.66695201   179.96171985
 C     16  15  14     2.656040310452   121.63451182   355.15276406
 C     17  16  15     2.665395266399   120.99960856     6.09530458
 O     18  17  16     2.499767338027   118.68182085   190.46681145
 C     14  13  12     2.686401169441   117.83805925    71.97741818
 H      1   2   3     2.072836571870   106.91106515   182.41021087
 H      1   2   3     2.072840938636   119.85975627    62.25975795
 H      1   2   3     2.072840699136   109.75517591   301.05003001
 H      2   1   3     2.072840913112   107.24868077   122.27398657
 H      2   1   3     2.072840397634   106.32038711   239.44304773
 H      8   7   6     2.072842714074   115.60738212    33.29711460
 H      8   7   6     2.072840658023   112.89318297   273.29061300
 H      8   7   6     2.072850229175   113.58836201   156.09271628
 H      9   7   6     1.914103727790   123.26059117   169.73105520
 H     12  10   9     1.914110357934   119.45276286   175.35646029
 H     13  12  10     2.072842148276   108.18150527   133.08429680
 H     15  14  13     2.052242737740   121.38035107   357.75864619
 H     16  15  14     2.052244764670   114.18433449   176.67667549
 H     17  16  15     2.052249592799   118.21298376   189.87208483
 H     19  18  17     1.838704778993   109.69029673   188.10226816
 H     20  14  13     2.052242627294   115.67061337   356.72055580

---------------------
BASIS SET INFORMATION
---------------------
There are 5 groups of distinct atoms

 Group   1 Type C   : 18s5p2d1f contracted to 4s3p2d1f pattern {8811/311/11/1}
 Group   2 Type O   : 18s5p2d1f contracted to 4s3p2d1f pattern {8811/311/11/1}
 Group   3 Type N   : 18s5p2d1f contracted to 4s3p2d1f pattern {8811/311/11/1}
 Group   4 Type S   : 41s16p2d1f contracted to 5s4p2d1f pattern {13131311/7711/11/1}
 Group   5 Type H   : 5s2p1d contracted to 3s2p1d pattern {311/11/1}

Atom   0C    basis set group =>   1
Atom   1C    basis set group =>   1
Atom   2O    basis set group =>   2
Atom   3C    basis set group =>   1
Atom   4O    basis set group =>   2
Atom   5C    basis set group =>   1
Atom   6C    basis set group =>   1
Atom   7C    basis set group =>   1
Atom   8N    basis set group =>   3
Atom   9C    basis set group =>   1
Atom  10S    basis set group =>   4
Atom  11N    basis set group =>   3
Atom  12C    basis set group =>   1
Atom  13C    basis set group =>   1
Atom  14C    basis set group =>   1
Atom  15C    basis set group =>   1
Atom  16C    basis set group =>   1
Atom  17C    basis set group =>   1
Atom  18O    basis set group =>   2
Atom  19C    basis set group =>   1
Atom  20H    basis set group =>   5
Atom  21H    basis set group =>   5
Atom  22H    basis set group =>   5
Atom  23H    basis set group =>   5
Atom  24H    basis set group =>   5
Atom  25H    basis set group =>   5
Atom  26H    basis set group =>   5
Atom  27H    basis set group =>   5
Atom  28H    basis set group =>   5
Atom  29H    basis set group =>   5
Atom  30H    basis set group =>   5
Atom  31H    basis set group =>   5
Atom  32H    basis set group =>   5
Atom  33H    basis set group =>   5
Atom  34H    basis set group =>   5
Atom  35H    basis set group =>   5
---------------------------------
AUXILIARY/C BASIS SET INFORMATION
---------------------------------
There are 5 groups of distinct atoms

 Group   1 Type C   : 8s6p5d3f1g contracted to 8s6p5d3f1g pattern {11111111/111111/11111/111/1}
 Group   2 Type O   : 8s6p5d3f1g contracted to 8s6p5d3f1g pattern {11111111/111111/11111/111/1}
 Group   3 Type N   : 8s6p5d3f1g contracted to 8s6p5d3f1g pattern {11111111/111111/11111/111/1}
 Group   4 Type S   : 10s8p7d5f2g contracted to 10s8p7d5f2g pattern {1111111111/11111111/1111111/11111/11}
 Group   5 Type H   : 4s3p2d1f contracted to 4s3p2d1f pattern {1111/111/11/1}

Atom   0C    basis set group =>   1
Atom   1C    basis set group =>   1
Atom   2O    basis set group =>   2
Atom   3C    basis set group =>   1
Atom   4O    basis set group =>   2
Atom   5C    basis set group =>   1
Atom   6C    basis set group =>   1
Atom   7C    basis set group =>   1
Atom   8N    basis set group =>   3
Atom   9C    basis set group =>   1
Atom  10S    basis set group =>   4
Atom  11N    basis set group =>   3
Atom  12C    basis set group =>   1
Atom  13C    basis set group =>   1
Atom  14C    basis set group =>   1
Atom  15C    basis set group =>   1
Atom  16C    basis set group =>   1
Atom  17C    basis set group =>   1
Atom  18O    basis set group =>   2
Atom  19C    basis set group =>   1
Atom  20H    basis set group =>   5
Atom  21H    basis set group =>   5
Atom  22H    basis set group =>   5
Atom  23H    basis set group =>   5
Atom  24H    basis set group =>   5
Atom  25H    basis set group =>   5
Atom  26H    basis set group =>   5
Atom  27H    basis set group =>   5
Atom  28H    basis set group =>   5
Atom  29H    basis set group =>   5
Atom  30H    basis set group =>   5
Atom  31H    basis set group =>   5
Atom  32H    basis set group =>   5
Atom  33H    basis set group =>   5
Atom  34H    basis set group =>   5
Atom  35H    basis set group =>   5
------------------------------------------------------------------------------
                           ORCA GTO INTEGRAL CALCULATION
------------------------------------------------------------------------------
------------------------------------------------------------------------------
                   ___                                                        
                  /   \      - P O W E R E D   B Y -                         
                 /     \                                                     
                 |  |  |   _    _      __       _____    __    __             
                 |  |  |  | |  | |    /  \     |  _  \  |  |  /  |          
                  \  \/   | |  | |   /    \    | | | |  |  | /  /          
                 / \  \   | |__| |  /  /\  \   | |_| |  |  |/  /          
                |  |  |   |  __  | /  /__\  \  |    /   |      \           
                |  |  |   | |  | | |   __   |  |    \   |  |\   \          
                \     /   | |  | | |  |  |  |  | |\  \  |  | \   \       
                 \___/    |_|  |_| |__|  |__|  |_| \__\ |__|  \__/        
                                                                              
                      - O R C A' S   B I G   F R I E N D -                    
                                      &                                       
                       - I N T E G R A L  F E E D E R -                       
                                                                              
 v1 FN, 2020, v2 2021                                                         
------------------------------------------------------------------------------


Reading SHARK input file qm_input.solv.SHARKINP.tmp ... ok
----------------------
SHARK INTEGRAL PACKAGE
----------------------

Number of atoms                             ...     36
Number of basis functions                   ...    828
Number of shells                            ...    298
Maximum angular momentum                    ...      3
Integral batch strategy                     ... SHARK/LIBINT Hybrid
RI-J (if used) integral strategy            ... SPLIT-RIJ (Revised 2003 algorithm where possible)
Printlevel                                  ...      1
Contraction scheme used                     ... SEGMENTED contraction
Coulomb Range Separation                    ... NOT USED
Exchange Range Separation                   ... NOT USED
Finite Nucleus Model                        ... NOT USED
Auxiliary Coulomb fitting basis             ... NOT available
Auxiliary J/K fitting basis                 ... NOT available
Auxiliary Correlation fitting basis         ... AVAILABLE
   # of basis functions in Aux-C            ...   2141
   # of shells in Aux-C                     ...    629
   Maximum angular momentum in Aux-C        ...      4
Auxiliary 'external' fitting basis          ... NOT available
Integral threshold                          ...     2.500000e-11
Primitive cut-off                           ...     2.500000e-12
Primitive pair pre-selection threshold      ...     2.500000e-12

Calculating pre-screening integrals         ... done (  0.6 sec) Dimension = 298
Organizing shell pair data                  ... done (  0.4 sec)
Shell pair information
Total number of shell pairs                 ...     44551
Shell pairs after pre-screening             ...     32495
Total number of primitive shell pairs       ...    234348
Primitive shell pairs kept                  ...     93076
          la=0 lb=0:   6507 shell pairs
          la=1 lb=0:   9035 shell pairs
          la=1 lb=1:   3187 shell pairs
          la=2 lb=0:   5190 shell pairs
          la=2 lb=1:   3550 shell pairs
          la=2 lb=2:   1014 shell pairs
          la=3 lb=0:   1876 shell pairs
          la=3 lb=1:   1291 shell pairs
          la=3 lb=2:    703 shell pairs
          la=3 lb=3:    142 shell pairs

Reading point charge file                   ... ok (45400 point charges)
Calculating one electron integrals          ... done (231.8 sec)
Calculating RI/C V-Matrix + Cholesky decomp.... done (  0.3 sec)
Calculating Nuclear repulsion               ... (+Point charges) done (  0.1 sec) ENN=   1339.822108718992 Eh

SHARK setup successfully completed in 233.4 seconds

Maximum memory used throughout the entire GTOINT-calculation: 478.9 MB
ENUC WAS=  0.000000000
ENUC IS =  0.000000000
-------------------------------------------------------------------------------
                                 ORCA SCF
-------------------------------------------------------------------------------

------------
SCF SETTINGS
------------
Hamiltonian:
 Ab initio Hamiltonian  Method          .... Hartree-Fock(GTOs)


General Settings:
 Integral files         IntName         .... qm_input.solv
 Hartree-Fock type      HFTyp           .... RHF
 Total Charge           Charge          ....    0
 Multiplicity           Mult            ....    1
 Number of Electrons    NEL             ....  154
 Basis Dimension        Dim             ....  828
 Nuclear Repulsion      ENuc            ....   1339.8221087190 Eh

Convergence Acceleration:
 DIIS                   CNVDIIS         .... on
   Start iteration      DIISMaxIt       ....    12
   Startup error        DIISStart       ....  0.200000
   # of expansion vecs  DIISMaxEq       ....     5
   Bias factor          DIISBfac        ....   1.050
   Max. coefficient     DIISMaxC        ....  10.000
 Trust-Rad. Augm. Hess. CNVTRAH         .... auto
   Auto Start mean grad. ratio tolernc. ....  1.125000
   Auto Start start iteration           ....    20
   Auto Start num. interpolation iter.  ....    10
   Max. Number of Micro iterations      ....    16
   Max. Number of Macro iterations      .... Maxiter - #DIIS iter
   Number of Davidson start vectors     ....     2
   Converg. threshold I  (grad. norm)   ....   1.000e-05
   Converg. threshold II (energy diff.) ....   1.000e-08
   Grad. Scal. Fac. for Micro threshold ....   0.100
   Minimum threshold for Micro iter.    ....   0.010
   NR start threshold (gradient norm)   ....   0.001
   Initial trust radius                 ....   0.400
   Minimum AH scaling param. (alpha)    ....   1.000
   Maximum AH scaling param. (alpha)    .... 1000.000
   Orbital update algorithm             .... Taylor
   White noise on init. David. guess    .... on
   Maximum white noise                  ....   0.010
   Quad. conv. algorithm                .... NR
 SOSCF                  CNVSOSCF        .... on
   Start iteration      SOSCFMaxIt      ....   150
   Startup grad/error   SOSCFStart      ....  0.003300
 Level Shifting         CNVShift        .... on
   Level shift para.    LevelShift      ....    0.2500
   Turn off err/grad.   ShiftErr        ....    0.0010
 Zerner damping         CNVZerner       .... off
 Static damping         CNVDamp         .... on
   Fraction old density DampFac         ....    0.7000
   Max. Damping (<1)    DampMax         ....    0.9800
   Min. Damping (>=0)   DampMin         ....    0.0000
   Turn off err/grad.   DampErr         ....    0.1000
 Fernandez-Rico         CNVRico         .... off

SCF Procedure:
 Maximum # iterations   MaxIter         ....   125
 SCF integral mode      SCFMode         .... Direct
   Integral package                     .... SHARK and LIBINT hybrid scheme
 Reset frequency        DirectResetFreq ....    20
 Integral Threshold     Thresh          ....  2.500e-11 Eh
 Primitive CutOff       TCut            ....  2.500e-12 Eh

Convergence Tolerance:
 Convergence Check Mode ConvCheckMode   .... Total+1el-Energy
 Convergence forced     ConvForced      .... 1
 Energy Change          TolE            ....  1.000e-08 Eh
 1-El. energy change                    ....  1.000e-05 Eh
 Orbital Gradient       TolG            ....  1.000e-05
 Orbital Rotation angle TolX            ....  1.000e-05
 DIIS Error             TolErr          ....  5.000e-07


Diagonalization of the overlap matrix:
Smallest eigenvalue                        ... 4.074e-05
Time for diagonalization                   ...    0.137 sec
Threshold for overlap eigenvalues          ... 1.000e-08
Number of eigenvalues below threshold      ... 0
Time for construction of square roots      ...    0.074 sec
Total time needed                          ...    0.213 sec

Time for model grid setup =    1.425 sec

------------------------------
INITIAL GUESS: MODEL POTENTIAL
------------------------------
Loading Hartree-Fock densities                     ... done
Calculating cut-offs                               ... done
Initializing the effective Hamiltonian             ... done
Setting up the integral package (SHARK)            ... done
Starting the Coulomb interaction                   ... done (   4.4 sec)
Reading the grid                                   ... done
Mapping shells                                     ... done
Starting the XC term evaluation                    ... done (   1.4 sec)
Transforming the Hamiltonian                       ... done (   0.1 sec)
Diagonalizing the Hamiltonian                      ... done (   0.1 sec)
Back transforming the eigenvectors                 ... done (   0.0 sec)
Now organizing SCF variables                       ... done
                      ------------------
                      INITIAL GUESS DONE (   7.4 sec)
                      ------------------
--------------
SCF ITERATIONS
--------------
ITER       Energy         Delta-E        Max-DP      RMS-DP      [F,P]     Damp
               ***  Starting incremental Fock matrix formation  ***
  0  -1270.0452979559   0.000000000000 0.06617453  0.00047495  0.3701532 0.7000
  1  -1270.3340256870  -0.288727731051 0.06082097  0.00038792  0.2150982 0.7000
                               ***Turning on DIIS***
  2  -1270.5129216807  -0.178895993719 0.03414372  0.00025306  0.1131031 0.7000
  3  -1272.5364511697  -2.023529488991 0.06406105  0.00051342  0.0839941 0.0000
  4  -1270.8482695967   1.688181572923 0.02122517  0.00010775  0.0077886 0.0000
  5  -1270.9009646084  -0.052695011699 0.00657395  0.00005554  0.0047365 0.0000
                      *** Initiating the SOSCF procedure ***
                           *** Shutting down DIIS ***
                      *** Re-Reading the Fockian *** 
                      *** Removing any level shift *** 
ITER      Energy       Delta-E        Grad      Rot      Max-DP    RMS-DP
  6  -1270.88369711   0.0172675008  0.001860  0.001860  0.002319  0.000027
               *** Restarting incremental Fock matrix formation ***
  7  -1270.89952059  -0.0158234811  0.000956  0.002002  0.001495  0.000017
  8  -1270.89957035  -0.0000497586  0.000385  0.002113  0.001489  0.000018
  9  -1270.89958843  -0.0000180787  0.000154  0.000315  0.000486  0.000004
 10  -1270.89959062  -0.0000021945  0.000037  0.000096  0.000151  0.000001
 11  -1270.89959079  -0.0000001740  0.000022  0.000093  0.000070  0.000001
 12  -1270.89959085  -0.0000000600  0.000008  0.000035  0.000025  0.000000
 13  -1270.89959086  -0.0000000051  0.000003  0.000012  0.000016  0.000000
                 **** Energy Check signals convergence ****
              ***Rediagonalizing the Fockian in SOSCF/NRSCF***

               *****************************************************
               *                     SUCCESS                       *
               *           SCF CONVERGED AFTER  14 CYCLES          *
               *****************************************************


----------------
TOTAL SCF ENERGY
----------------

Total Energy       :        -1270.89959085 Eh          -34582.93603 eV

Components:
Nuclear Repulsion  :         1339.82210872 Eh           36458.41309 eV
Electronic Energy  :        -2610.72169957 Eh          -71041.34912 eV
One Electron Energy:        -4743.31879711 Eh         -129072.26638 eV
Two Electron Energy:         2132.59709754 Eh           58030.91726 eV

Virial components:
Potential Energy   :        -2539.64164295 Eh          -69107.16244 eV
Kinetic Energy     :         1268.74205210 Eh           34524.22642 eV
Virial Ratio       :            2.00170053


---------------
SCF CONVERGENCE
---------------

  Last Energy change         ...    7.1286e-09  Tolerance :   1.0000e-08
  Last MAX-Density change    ...    2.1554e-06  Tolerance :   1.0000e-07
  Last RMS-Density change    ...    2.8192e-08  Tolerance :   5.0000e-09
  Last Orbital Gradient      ...    1.0138e-06  Tolerance :   1.0000e-05
  Last Orbital Rotation      ...    2.6431e-06  Tolerance :   1.0000e-05

             **** THE GBW FILE WAS UPDATED (qm_input.solv.gbw) ****
             **** DENSITY qm_input.solv.scfp WAS UPDATED ****
             **** ENERGY FILE WAS UPDATED (qm_input.solv.en.tmp) ****
             **** THE GBW FILE WAS UPDATED (qm_input.solv.gbw) ****
             **** DENSITY qm_input.solv.scfp WAS UPDATED ****
----------------
ORBITAL ENERGIES
----------------

  NO   OCC          E(Eh)            E(eV) 
   0   2.0000     -89.686360     -2440.4899 
   1   2.0000     -18.382948      -500.2254 
   2   2.0000     -18.373084      -499.9570 
   3   2.0000     -18.326479      -498.6888 
   4   2.0000     -13.402472      -364.6998 
   5   2.0000     -13.383632      -364.1871 
   6   2.0000      -9.180406      -249.8115 
   7   2.0000      -9.179438      -249.7852 
   8   2.0000      -9.113775      -247.9984 
   9   2.0000      -9.094705      -247.4795 
  10   2.0000      -9.080777      -247.1005 
  11   2.0000      -9.071943      -246.8601 
  12   2.0000      -9.041552      -246.0331 
  13   2.0000      -9.037534      -245.9238 
  14   2.0000      -9.021858      -245.4972 
  15   2.0000      -9.018960      -245.4184 
  16   2.0000      -9.014019      -245.2839 
  17   2.0000      -9.012187      -245.2341 
  18   2.0000      -9.011504      -245.2155 
  19   2.0000      -8.994502      -244.7528 
  20   2.0000      -6.692765      -182.1194 
  21   2.0000      -4.374659      -119.0405 
  22   2.0000      -4.372643      -118.9857 
  23   2.0000      -4.372116      -118.9713 
  24   2.0000       0.743601        20.2344 
  25   2.0000       0.793907        21.6033 
  26   2.0000       0.857721        23.3398 
  27   2.0000       0.898002        24.4359 
  28   2.0000       0.997407        27.1408 
  29   2.0000       1.076249        29.2862 
  30   2.0000       1.106468        30.1085 
  31   2.0000       1.178820        32.0773 
  32   2.0000       1.194861        32.5138 
  33   2.0000       1.215118        33.0650 
  34   2.0000       1.224840        33.3296 
  35   2.0000       1.239453        33.7272 
  36   2.0000       1.307797        35.5870 
  37   2.0000       1.334842        36.3229 
  38   2.0000       1.380150        37.5558 
  39   2.0000       1.386479        37.7280 
  40   2.0000       1.404926        38.2300 
  41   2.0000       1.417033        38.5594 
  42   2.0000       1.454435        39.5772 
  43   2.0000       1.482123        40.3306 
  44   2.0000       1.501283        40.8520 
  45   2.0000       1.524688        41.4889 
  46   2.0000       1.534194        41.7476 
  47   2.0000       1.538405        41.8621 
  48   2.0000       1.549008        42.1506 
  49   2.0000       1.559371        42.4326 
  50   2.0000       1.577667        42.9305 
  51   2.0000       1.589187        43.2440 
  52   2.0000       1.593185        43.3528 
  53   2.0000       1.608493        43.7693 
  54   2.0000       1.620292        44.0904 
  55   2.0000       1.623470        44.1769 
  56   2.0000       1.642305        44.6894 
  57   2.0000       1.649618        44.8884 
  58   2.0000       1.656218        45.0680 
  59   2.0000       1.664068        45.2816 
  60   2.0000       1.676246        45.6130 
  61   2.0000       1.680092        45.7176 
  62   2.0000       1.688712        45.9522 
  63   2.0000       1.692296        46.0497 
  64   2.0000       1.705370        46.4055 
  65   2.0000       1.709682        46.5228 
  66   2.0000       1.727541        47.0088 
  67   2.0000       1.729711        47.0678 
  68   2.0000       1.741682        47.3936 
  69   2.0000       1.755230        47.7622 
  70   2.0000       1.763337        47.9828 
  71   2.0000       1.770579        48.1799 
  72   2.0000       1.865777        50.7704 
  73   2.0000       1.869089        50.8605 
  74   2.0000       1.875455        51.0337 
  75   2.0000       1.895223        51.5716 
  76   2.0000       1.906318        51.8736 
  77   0.0000       2.296087        62.4797 
  78   0.0000       2.333355        63.4938 
  79   0.0000       2.357979        64.1639 
  80   0.0000       2.367508        64.4232 
  81   0.0000       2.373271        64.5800 
  82   0.0000       2.384782        64.8932 
  83   0.0000       2.393927        65.1421 
  84   0.0000       2.404006        65.4163 
  85   0.0000       2.415105        65.7184 
  86   0.0000       2.421965        65.9050 
  87   0.0000       2.426771        66.0358 
  88   0.0000       2.435346        66.2691 
  89   0.0000       2.440615        66.4125 
  90   0.0000       2.443002        66.4775 
  91   0.0000       2.447168        66.5908 
  92   0.0000       2.457652        66.8761 
  93   0.0000       2.460741        66.9602 
  94   0.0000       2.466449        67.1155 
  95   0.0000       2.472385        67.2770 
  96   0.0000       2.478364        67.4397 
  97   0.0000       2.484631        67.6102 
  98   0.0000       2.489421        67.7406 
  99   0.0000       2.509211        68.2791 
 100   0.0000       2.516333        68.4729 
 101   0.0000       2.535657        68.9987 
 102   0.0000       2.541869        69.1678 
 103   0.0000       2.550982        69.4158 
 104   0.0000       2.557259        69.5865 
 105   0.0000       2.558200        69.6122 
 106   0.0000       2.572160        69.9920 
 107   0.0000       2.582241        70.2663 
 108   0.0000       2.586337        70.3778 
 109   0.0000       2.588022        70.4237 
 110   0.0000       2.603783        70.8525 
 111   0.0000       2.609441        71.0065 
 112   0.0000       2.616509        71.1988 
 113   0.0000       2.622956        71.3743 
 114   0.0000       2.627053        71.4858 
 115   0.0000       2.638204        71.7892 
 116   0.0000       2.641645        71.8828 
 117   0.0000       2.646928        72.0266 
 118   0.0000       2.648448        72.0679 
 119   0.0000       2.655432        72.2580 
 120   0.0000       2.664563        72.5064 
 121   0.0000       2.672978        72.7354 
 122   0.0000       2.676464        72.8303 
 123   0.0000       2.678281        72.8797 
 124   0.0000       2.681570        72.9692 
 125   0.0000       2.692163        73.2575 
 126   0.0000       2.694995        73.3345 
 127   0.0000       2.702476        73.5381 
 128   0.0000       2.705875        73.6306 
 129   0.0000       2.712876        73.8211 
 130   0.0000       2.720522        74.0292 
 131   0.0000       2.728823        74.2551 
 132   0.0000       2.732224        74.3476 
 133   0.0000       2.737638        74.4949 
 134   0.0000       2.745214        74.7011 
 135   0.0000       2.746340        74.7317 
 136   0.0000       2.756491        75.0079 
 137   0.0000       2.759310        75.0847 
 138   0.0000       2.763882        75.2091 
 139   0.0000       2.768708        75.3404 
 140   0.0000       2.776816        75.5610 
 141   0.0000       2.781672        75.6931 
 142   0.0000       2.789595        75.9087 
 143   0.0000       2.793204        76.0069 
 144   0.0000       2.799121        76.1680 
 145   0.0000       2.800849        76.2150 
 146   0.0000       2.808349        76.4190 
 147   0.0000       2.812674        76.5368 
 148   0.0000       2.819942        76.7345 
 149   0.0000       2.823305        76.8260 
 150   0.0000       2.828649        76.9715 
 151   0.0000       2.835815        77.1664 
 152   0.0000       2.839607        77.2696 
 153   0.0000       2.845475        77.4293 
 154   0.0000       2.851468        77.5924 
 155   0.0000       2.855311        77.6970 
 156   0.0000       2.860310        77.8330 
 157   0.0000       2.863045        77.9074 
 158   0.0000       2.866322        77.9966 
 159   0.0000       2.868986        78.0691 
 160   0.0000       2.874813        78.2276 
 161   0.0000       2.880480        78.3818 
 162   0.0000       2.884164        78.4821 
 163   0.0000       2.890695        78.6598 
 164   0.0000       2.898306        78.8669 
 165   0.0000       2.905468        79.0618 
 166   0.0000       2.908754        79.1512 
 167   0.0000       2.914908        79.3187 
 168   0.0000       2.919518        79.4441 
 169   0.0000       2.922035        79.5126 
 170   0.0000       2.925313        79.6018 
 171   0.0000       2.930870        79.7530 
 172   0.0000       2.936705        79.9118 
 173   0.0000       2.949835        80.2691 
 174   0.0000       2.954203        80.3880 
 175   0.0000       2.960236        80.5521 
 176   0.0000       2.962069        80.6020 
 177   0.0000       2.967252        80.7430 
 178   0.0000       2.977577        81.0240 
 179   0.0000       2.982269        81.1517 
 180   0.0000       2.984541        81.2135 
 181   0.0000       2.994248        81.4776 
 182   0.0000       3.003561        81.7310 
 183   0.0000       3.005674        81.7885 
 184   0.0000       3.021755        82.2261 
 185   0.0000       3.028800        82.4178 
 186   0.0000       3.033581        82.5479 
 187   0.0000       3.045980        82.8853 
 188   0.0000       3.050248        83.0015 
 189   0.0000       3.057609        83.2018 
 190   0.0000       3.059496        83.2531 
 191   0.0000       3.069980        83.5384 
 192   0.0000       3.077222        83.7355 
 193   0.0000       3.079124        83.7872 
 194   0.0000       3.083909        83.9174 
 195   0.0000       3.100556        84.3704 
 196   0.0000       3.101652        84.4003 
 197   0.0000       3.103368        84.4469 
 198   0.0000       3.112303        84.6901 
 199   0.0000       3.123978        85.0078 
 200   0.0000       3.138990        85.4162 
 201   0.0000       3.141082        85.4732 
 202   0.0000       3.150061        85.7175 
 203   0.0000       3.152316        85.7789 
 204   0.0000       3.163077        86.0717 
 205   0.0000       3.164529        86.1112 
 206   0.0000       3.170965        86.2864 
 207   0.0000       3.187122        86.7260 
 208   0.0000       3.188746        86.7702 
 209   0.0000       3.191776        86.8526 
 210   0.0000       3.199171        87.0539 
 211   0.0000       3.208103        87.2969 
 212   0.0000       3.212106        87.4059 
 213   0.0000       3.215638        87.5020 
 214   0.0000       3.217679        87.5575 
 215   0.0000       3.224553        87.7445 
 216   0.0000       3.236349        88.0655 
 217   0.0000       3.255415        88.5844 
 218   0.0000       3.257171        88.6321 
 219   0.0000       3.262770        88.7845 
 220   0.0000       3.273619        89.0797 
 221   0.0000       3.276464        89.1571 
 222   0.0000       3.292449        89.5921 
 223   0.0000       3.293461        89.6196 
 224   0.0000       3.306549        89.9758 
 225   0.0000       3.309699        90.0615 
 226   0.0000       3.315824        90.2281 
 227   0.0000       3.324579        90.4664 
 228   0.0000       3.339755        90.8794 
 229   0.0000       3.342625        90.9575 
 230   0.0000       3.346885        91.0734 
 231   0.0000       3.360424        91.4418 
 232   0.0000       3.369268        91.6824 
 233   0.0000       3.372313        91.7653 
 234   0.0000       3.383887        92.0803 
 235   0.0000       3.386886        92.1619 
 236   0.0000       3.400441        92.5307 
 237   0.0000       3.401726        92.5657 
 238   0.0000       3.405718        92.6743 
 239   0.0000       3.421281        93.0978 
 240   0.0000       3.422360        93.1272 
 241   0.0000       3.433210        93.4224 
 242   0.0000       3.437147        93.5295 
 243   0.0000       3.443966        93.7151 
 244   0.0000       3.448665        93.8430 
 245   0.0000       3.453563        93.9762 
 246   0.0000       3.462626        94.2228 
 247   0.0000       3.464259        94.2673 
 248   0.0000       3.475605        94.5760 
 249   0.0000       3.481686        94.7415 
 250   0.0000       3.490140        94.9715 
 251   0.0000       3.494906        95.1012 
 252   0.0000       3.497689        95.1769 
 253   0.0000       3.505242        95.3825 
 254   0.0000       3.515193        95.6533 
 255   0.0000       3.527628        95.9916 
 256   0.0000       3.532179        96.1155 
 257   0.0000       3.539864        96.3246 
 258   0.0000       3.542528        96.3971 
 259   0.0000       3.551619        96.6445 
 260   0.0000       3.566711        97.0551 
 261   0.0000       3.571288        97.1797 
 262   0.0000       3.579562        97.4048 
 263   0.0000       3.588510        97.6483 
 264   0.0000       3.592035        97.7442 
 265   0.0000       3.605282        98.1047 
 266   0.0000       3.616806        98.4183 
 267   0.0000       3.619589        98.4940 
 268   0.0000       3.626584        98.6844 
 269   0.0000       3.634895        98.9105 
 270   0.0000       3.641430        99.0884 
 271   0.0000       3.650913        99.3464 
 272   0.0000       3.654346        99.4398 
 273   0.0000       3.661609        99.6374 
 274   0.0000       3.669031        99.8394 
 275   0.0000       3.680045       100.1391 
 276   0.0000       3.686114       100.3043 
 277   0.0000       3.703272       100.7712 
 278   0.0000       3.708731       100.9197 
 279   0.0000       3.716937       101.1430 
 280   0.0000       3.720147       101.2303 
 281   0.0000       3.723972       101.3344 
 282   0.0000       3.739299       101.7515 
 283   0.0000       3.741647       101.8154 
 284   0.0000       3.743065       101.8540 
 285   0.0000       3.752823       102.1195 
 286   0.0000       3.755094       102.1813 
 287   0.0000       3.762390       102.3798 
 288   0.0000       3.768192       102.5377 
 289   0.0000       3.770969       102.6133 
 290   0.0000       3.778250       102.8114 
 291   0.0000       3.788651       103.0944 
 292   0.0000       3.798866       103.3724 
 293   0.0000       3.808532       103.6354 
 294   0.0000       3.811380       103.7129 
 295   0.0000       3.822774       104.0230 
 296   0.0000       3.825531       104.0980 
 297   0.0000       3.830567       104.2350 
 298   0.0000       3.834018       104.3289 
 299   0.0000       3.847875       104.7060 
 300   0.0000       3.855186       104.9050 
 301   0.0000       3.861225       105.0693 
 302   0.0000       3.872317       105.3711 
 303   0.0000       3.875356       105.4538 
 304   0.0000       3.887396       105.7814 
 305   0.0000       3.894606       105.9776 
 306   0.0000       3.901647       106.1692 
 307   0.0000       3.903623       106.2230 
 308   0.0000       3.924374       106.7876 
 309   0.0000       3.930567       106.9562 
 310   0.0000       3.940651       107.2306 
 311   0.0000       3.952872       107.5631 
 312   0.0000       3.960465       107.7697 
 313   0.0000       3.965548       107.9081 
 314   0.0000       3.973897       108.1352 
 315   0.0000       3.984833       108.4328 
 316   0.0000       3.987888       108.5159 
 317   0.0000       4.008556       109.0783 
 318   0.0000       4.015472       109.2665 
 319   0.0000       4.023936       109.4969 
 320   0.0000       4.035249       109.8047 
 321   0.0000       4.038346       109.8890 
 322   0.0000       4.045047       110.0713 
 323   0.0000       4.060226       110.4844 
 324   0.0000       4.070030       110.7511 
 325   0.0000       4.080378       111.0327 
 326   0.0000       4.096588       111.4738 
 327   0.0000       4.108355       111.7940 
 328   0.0000       4.109602       111.8279 
 329   0.0000       4.129394       112.3665 
 330   0.0000       4.135796       112.5407 
 331   0.0000       4.140605       112.6716 
 332   0.0000       4.148450       112.8851 
 333   0.0000       4.163635       113.2983 
 334   0.0000       4.167864       113.4133 
 335   0.0000       4.179076       113.7184 
 336   0.0000       4.195591       114.1678 
 337   0.0000       4.200484       114.3010 
 338   0.0000       4.215049       114.6973 
 339   0.0000       4.229160       115.0813 
 340   0.0000       4.231295       115.1394 
 341   0.0000       4.241993       115.4305 
 342   0.0000       4.264149       116.0334 
 343   0.0000       4.267590       116.1270 
 344   0.0000       4.301226       117.0423 
 345   0.0000       4.323853       117.6580 
 346   0.0000       4.336674       118.0069 
 347   0.0000       4.347663       118.3059 
 348   0.0000       4.361012       118.6692 
 349   0.0000       4.380517       119.1999 
 350   0.0000       4.405293       119.8741 
 351   0.0000       4.413007       120.0840 
 352   0.0000       4.421825       120.3240 
 353   0.0000       4.444993       120.9544 
 354   0.0000       4.458481       121.3214 
 355   0.0000       4.468918       121.6054 
 356   0.0000       4.473303       121.7248 
 357   0.0000       4.480667       121.9252 
 358   0.0000       4.488649       122.1423 
 359   0.0000       4.509863       122.7196 
 360   0.0000       4.527445       123.1980 
 361   0.0000       4.534228       123.3826 
 362   0.0000       4.555669       123.9661 
 363   0.0000       4.559016       124.0571 
 364   0.0000       4.565756       124.2405 
 365   0.0000       4.584495       124.7505 
 366   0.0000       4.590688       124.9190 
 367   0.0000       4.617472       125.6478 
 368   0.0000       4.626047       125.8811 
 369   0.0000       4.650557       126.5481 
 370   0.0000       4.655726       126.6887 
 371   0.0000       4.663480       126.8998 
 372   0.0000       4.668057       127.0243 
 373   0.0000       4.690505       127.6351 
 374   0.0000       4.699416       127.8776 
 375   0.0000       4.712282       128.2277 
 376   0.0000       4.730101       128.7126 
 377   0.0000       4.735675       128.8643 
 378   0.0000       4.754107       129.3658 
 379   0.0000       4.760460       129.5387 
 380   0.0000       4.784116       130.1824 
 381   0.0000       4.803795       130.7179 
 382   0.0000       4.813912       130.9932 
 383   0.0000       4.819800       131.1534 
 384   0.0000       4.826294       131.3301 
 385   0.0000       4.843645       131.8023 
 386   0.0000       4.850280       131.9828 
 387   0.0000       4.854725       132.1038 
 388   0.0000       4.867716       132.4573 
 389   0.0000       4.875016       132.6559 
 390   0.0000       4.880337       132.8007 
 391   0.0000       4.903721       133.4370 
 392   0.0000       4.915666       133.7621 
 393   0.0000       4.926431       134.0550 
 394   0.0000       4.932182       134.2115 
 395   0.0000       4.943339       134.5151 
 396   0.0000       4.947904       134.6393 
 397   0.0000       4.955583       134.8483 
 398   0.0000       4.975936       135.4021 
 399   0.0000       4.983183       135.5993 
 400   0.0000       5.002984       136.1381 
 401   0.0000       5.006020       136.2207 
 402   0.0000       5.015406       136.4761 
 403   0.0000       5.020190       136.6063 
 404   0.0000       5.028000       136.8188 
 405   0.0000       5.035523       137.0236 
 406   0.0000       5.046207       137.3143 
 407   0.0000       5.054644       137.5439 
 408   0.0000       5.064082       137.8007 
 409   0.0000       5.075389       138.1083 
 410   0.0000       5.084634       138.3599 
 411   0.0000       5.097717       138.7159 
 412   0.0000       5.107293       138.9765 
 413   0.0000       5.124086       139.4335 
 414   0.0000       5.130478       139.6074 
 415   0.0000       5.134371       139.7133 
 416   0.0000       5.143637       139.9655 
 417   0.0000       5.158667       140.3745 
 418   0.0000       5.161853       140.4612 
 419   0.0000       5.168956       140.6544 
 420   0.0000       5.170929       140.7081 
 421   0.0000       5.182689       141.0281 
 422   0.0000       5.192158       141.2858 
 423   0.0000       5.209874       141.7679 
 424   0.0000       5.218732       142.0089 
 425   0.0000       5.222400       142.1087 
 426   0.0000       5.237307       142.5144 
 427   0.0000       5.241747       142.6352 
 428   0.0000       5.249724       142.8522 
 429   0.0000       5.271844       143.4542 
 430   0.0000       5.278878       143.6456 
 431   0.0000       5.281652       143.7211 
 432   0.0000       5.288077       143.8959 
 433   0.0000       5.298701       144.1850 
 434   0.0000       5.308175       144.4428 
 435   0.0000       5.316726       144.6755 
 436   0.0000       5.321173       144.7965 
 437   0.0000       5.323411       144.8574 
 438   0.0000       5.324496       144.8869 
 439   0.0000       5.329198       145.0148 
 440   0.0000       5.337298       145.2353 
 441   0.0000       5.342316       145.3718 
 442   0.0000       5.351089       145.6105 
 443   0.0000       5.365465       146.0017 
 444   0.0000       5.371013       146.1527 
 445   0.0000       5.378301       146.3510 
 446   0.0000       5.386590       146.5766 
 447   0.0000       5.398587       146.9030 
 448   0.0000       5.405883       147.1015 
 449   0.0000       5.410050       147.2149 
 450   0.0000       5.417404       147.4150 
 451   0.0000       5.425319       147.6304 
 452   0.0000       5.430308       147.7662 
 453   0.0000       5.441561       148.0724 
 454   0.0000       5.454082       148.4131 
 455   0.0000       5.467392       148.7753 
 456   0.0000       5.471333       148.8825 
 457   0.0000       5.473925       148.9531 
 458   0.0000       5.479712       149.1105 
 459   0.0000       5.487301       149.3170 
 460   0.0000       5.494581       149.5151 
 461   0.0000       5.498493       149.6216 
 462   0.0000       5.501276       149.6973 
 463   0.0000       5.510367       149.9447 
 464   0.0000       5.516499       150.1116 
 465   0.0000       5.526533       150.3846 
 466   0.0000       5.530671       150.4972 
 467   0.0000       5.531806       150.5281 
 468   0.0000       5.541616       150.7950 
 469   0.0000       5.548331       150.9778 
 470   0.0000       5.553630       151.1220 
 471   0.0000       5.557182       151.2186 
 472   0.0000       5.561725       151.3422 
 473   0.0000       5.569410       151.5513 
 474   0.0000       5.572379       151.6321 
 475   0.0000       5.577334       151.7670 
 476   0.0000       5.592699       152.1851 
 477   0.0000       5.598117       152.3325 
 478   0.0000       5.599883       152.3806 
 479   0.0000       5.604373       152.5027 
 480   0.0000       5.615453       152.8043 
 481   0.0000       5.618772       152.8946 
 482   0.0000       5.621966       152.9815 
 483   0.0000       5.628749       153.1661 
 484   0.0000       5.634426       153.3205 
 485   0.0000       5.637538       153.4052 
 486   0.0000       5.639031       153.4458 
 487   0.0000       5.653246       153.8326 
 488   0.0000       5.659653       154.0070 
 489   0.0000       5.661636       154.0610 
 490   0.0000       5.668397       154.2449 
 491   0.0000       5.673343       154.3795 
 492   0.0000       5.675134       154.4282 
 493   0.0000       5.681438       154.5998 
 494   0.0000       5.683928       154.6676 
 495   0.0000       5.688197       154.7837 
 496   0.0000       5.699236       155.0841 
 497   0.0000       5.706198       155.2736 
 498   0.0000       5.707846       155.3184 
 499   0.0000       5.716337       155.5494 
 500   0.0000       5.722724       155.7232 
 501   0.0000       5.737280       156.1193 
 502   0.0000       5.743166       156.2795 
 503   0.0000       5.757890       156.6801 
 504   0.0000       5.766470       156.9136 
 505   0.0000       5.769612       156.9991 
 506   0.0000       5.779404       157.2656 
 507   0.0000       5.791065       157.5829 
 508   0.0000       5.794312       157.6712 
 509   0.0000       5.796960       157.7433 
 510   0.0000       5.809284       158.0787 
 511   0.0000       5.820221       158.3763 
 512   0.0000       5.827441       158.5727 
 513   0.0000       5.834980       158.7779 
 514   0.0000       5.837375       158.8430 
 515   0.0000       5.844547       159.0382 
 516   0.0000       5.853944       159.2939 
 517   0.0000       5.856249       159.3566 
 518   0.0000       5.859195       159.4368 
 519   0.0000       5.865992       159.6218 
 520   0.0000       5.872951       159.8111 
 521   0.0000       5.881408       160.0412 
 522   0.0000       5.886778       160.1874 
 523   0.0000       5.893266       160.3639 
 524   0.0000       5.906091       160.7129 
 525   0.0000       5.910722       160.8389 
 526   0.0000       5.917815       161.0319 
 527   0.0000       5.923905       161.1977 
 528   0.0000       5.933796       161.4668 
 529   0.0000       5.936388       161.5373 
 530   0.0000       5.942001       161.6901 
 531   0.0000       5.947700       161.8451 
 532   0.0000       5.952681       161.9807 
 533   0.0000       5.957145       162.1021 
 534   0.0000       5.967003       162.3704 
 535   0.0000       5.975643       162.6055 
 536   0.0000       5.981000       162.7513 
 537   0.0000       5.982264       162.7857 
 538   0.0000       5.992675       163.0690 
 539   0.0000       5.996405       163.1705 
 540   0.0000       6.004820       163.3994 
 541   0.0000       6.008209       163.4917 
 542   0.0000       6.017106       163.7338 
 543   0.0000       6.021941       163.8654 
 544   0.0000       6.029701       164.0765 
 545   0.0000       6.031263       164.1190 
 546   0.0000       6.039047       164.3308 
 547   0.0000       6.044814       164.4877 
 548   0.0000       6.062988       164.9823 
 549   0.0000       6.068887       165.1428 
 550   0.0000       6.072915       165.2524 
 551   0.0000       6.084255       165.5610 
 552   0.0000       6.090178       165.7222 
 553   0.0000       6.092500       165.7854 
 554   0.0000       6.104120       166.1015 
 555   0.0000       6.112681       166.3345 
 556   0.0000       6.120663       166.5517 
 557   0.0000       6.133198       166.8928 
 558   0.0000       6.141026       167.1058 
 559   0.0000       6.149495       167.3363 
 560   0.0000       6.158385       167.5782 
 561   0.0000       6.163062       167.7054 
 562   0.0000       6.171027       167.9222 
 563   0.0000       6.180887       168.1905 
 564   0.0000       6.197917       168.6539 
 565   0.0000       6.203398       168.8030 
 566   0.0000       6.222759       169.3299 
 567   0.0000       6.226825       169.4405 
 568   0.0000       6.238023       169.7452 
 569   0.0000       6.245596       169.9513 
 570   0.0000       6.252586       170.1415 
 571   0.0000       6.264445       170.4642 
 572   0.0000       6.267388       170.5443 
 573   0.0000       6.276630       170.7958 
 574   0.0000       6.284596       171.0125 
 575   0.0000       6.292604       171.2305 
 576   0.0000       6.297692       171.3689 
 577   0.0000       6.301514       171.4729 
 578   0.0000       6.316021       171.8677 
 579   0.0000       6.320717       171.9955 
 580   0.0000       6.332275       172.3100 
 581   0.0000       6.334626       172.3739 
 582   0.0000       6.342140       172.5784 
 583   0.0000       6.347784       172.7320 
 584   0.0000       6.353304       172.8822 
 585   0.0000       6.360943       173.0901 
 586   0.0000       6.374174       173.4501 
 587   0.0000       6.381089       173.6383 
 588   0.0000       6.384657       173.7353 
 589   0.0000       6.390410       173.8919 
 590   0.0000       6.393767       173.9832 
 591   0.0000       6.399045       174.1269 
 592   0.0000       6.412151       174.4835 
 593   0.0000       6.417963       174.6416 
 594   0.0000       6.426548       174.8753 
 595   0.0000       6.429480       174.9550 
 596   0.0000       6.435774       175.1263 
 597   0.0000       6.437830       175.1823 
 598   0.0000       6.456632       175.6939 
 599   0.0000       6.462323       175.8487 
 600   0.0000       6.479645       176.3201 
 601   0.0000       6.485998       176.4930 
 602   0.0000       6.496689       176.7839 
 603   0.0000       6.502771       176.9494 
 604   0.0000       6.504789       177.0043 
 605   0.0000       6.513898       177.2522 
 606   0.0000       6.519382       177.4014 
 607   0.0000       6.530457       177.7028 
 608   0.0000       6.537503       177.8945 
 609   0.0000       6.543914       178.0690 
 610   0.0000       6.553674       178.3345 
 611   0.0000       6.558501       178.4659 
 612   0.0000       6.564250       178.6223 
 613   0.0000       6.569289       178.7594 
 614   0.0000       6.576551       178.9570 
 615   0.0000       6.585520       179.2011 
 616   0.0000       6.593770       179.4256 
 617   0.0000       6.601073       179.6243 
 618   0.0000       6.617675       180.0761 
 619   0.0000       6.621068       180.1684 
 620   0.0000       6.647656       180.8919 
 621   0.0000       6.649961       180.9547 
 622   0.0000       6.655571       181.1073 
 623   0.0000       6.662725       181.3020 
 624   0.0000       6.670390       181.5105 
 625   0.0000       6.679665       181.7629 
 626   0.0000       6.686838       181.9581 
 627   0.0000       6.690724       182.0638 
 628   0.0000       6.693396       182.1366 
 629   0.0000       6.705877       182.4762 
 630   0.0000       6.713534       182.6845 
 631   0.0000       6.720953       182.8864 
 632   0.0000       6.721041       182.8888 
 633   0.0000       6.732039       183.1881 
 634   0.0000       6.737698       183.3421 
 635   0.0000       6.753008       183.7587 
 636   0.0000       6.760868       183.9726 
 637   0.0000       6.776074       184.3863 
 638   0.0000       6.778119       184.4420 
 639   0.0000       6.785512       184.6432 
 640   0.0000       6.793808       184.8689 
 641   0.0000       6.800375       185.0476 
 642   0.0000       6.814619       185.4352 
 643   0.0000       6.821392       185.6195 
 644   0.0000       6.831546       185.8958 
 645   0.0000       6.837232       186.0506 
 646   0.0000       6.841622       186.1700 
 647   0.0000       6.849170       186.3754 
 648   0.0000       6.854659       186.5248 
 649   0.0000       6.862779       186.7457 
 650   0.0000       6.874474       187.0639 
 651   0.0000       6.886487       187.3908 
 652   0.0000       6.893964       187.5943 
 653   0.0000       6.897296       187.6850 
 654   0.0000       6.910218       188.0366 
 655   0.0000       6.913224       188.1184 
 656   0.0000       6.940212       188.8528 
 657   0.0000       6.948721       189.0843 
 658   0.0000       6.953712       189.2201 
 659   0.0000       6.962752       189.4661 
 660   0.0000       6.972537       189.7324 
 661   0.0000       6.991458       190.2473 
 662   0.0000       7.003245       190.5680 
 663   0.0000       7.017372       190.9524 
 664   0.0000       7.028314       191.2501 
 665   0.0000       7.042715       191.6420 
 666   0.0000       7.047842       191.7815 
 667   0.0000       7.067250       192.3096 
 668   0.0000       7.070017       192.3850 
 669   0.0000       7.087069       192.8490 
 670   0.0000       7.104928       193.3349 
 671   0.0000       7.125524       193.8954 
 672   0.0000       7.148769       194.5279 
 673   0.0000       7.170005       195.1057 
 674   0.0000       7.192879       195.7282 
 675   0.0000       7.196695       195.8320 
 676   0.0000       7.214435       196.3148 
 677   0.0000       7.232796       196.8144 
 678   0.0000       7.247662       197.2189 
 679   0.0000       7.256981       197.4725 
 680   0.0000       7.275820       197.9851 
 681   0.0000       7.282403       198.1643 
 682   0.0000       7.291311       198.4067 
 683   0.0000       7.302328       198.7064 
 684   0.0000       7.314125       199.0275 
 685   0.0000       7.325556       199.3385 
 686   0.0000       7.346924       199.9200 
 687   0.0000       7.355617       200.1565 
 688   0.0000       7.363743       200.3776 
 689   0.0000       7.370597       200.5641 
 690   0.0000       7.374037       200.6577 
 691   0.0000       7.395291       201.2361 
 692   0.0000       7.401142       201.3953 
 693   0.0000       7.403901       201.4704 
 694   0.0000       7.430125       202.1840 
 695   0.0000       7.445525       202.6030 
 696   0.0000       7.451236       202.7584 
 697   0.0000       7.465142       203.1369 
 698   0.0000       7.466130       203.1637 
 699   0.0000       7.470149       203.2731 
 700   0.0000       7.482450       203.6078 
 701   0.0000       7.487754       203.7521 
 702   0.0000       7.505650       204.2391 
 703   0.0000       7.519237       204.6088 
 704   0.0000       7.527544       204.8349 
 705   0.0000       7.539721       205.1662 
 706   0.0000       7.546691       205.3559 
 707   0.0000       7.568851       205.9589 
 708   0.0000       7.574492       206.1124 
 709   0.0000       7.587772       206.4738 
 710   0.0000       7.598231       206.7584 
 711   0.0000       7.604603       206.9318 
 712   0.0000       7.625166       207.4913 
 713   0.0000       7.656040       208.3314 
 714   0.0000       7.683898       209.0895 
 715   0.0000       7.687377       209.1842 
 716   0.0000       7.699811       209.5225 
 717   0.0000       7.723113       210.1566 
 718   0.0000       7.730101       210.3467 
 719   0.0000       7.741973       210.6698 
 720   0.0000       7.766794       211.3452 
 721   0.0000       7.769970       211.4316 
 722   0.0000       7.779979       211.7040 
 723   0.0000       7.788090       211.9247 
 724   0.0000       7.805955       212.4108 
 725   0.0000       7.815642       212.6744 
 726   0.0000       7.823570       212.8902 
 727   0.0000       7.844145       213.4500 
 728   0.0000       7.860805       213.9034 
 729   0.0000       7.862739       213.9560 
 730   0.0000       7.873262       214.2424 
 731   0.0000       7.898311       214.9240 
 732   0.0000       7.903877       215.0754 
 733   0.0000       7.931117       215.8167 
 734   0.0000       7.934674       215.9134 
 735   0.0000       7.939947       216.0569 
 736   0.0000       7.954702       216.4584 
 737   0.0000       7.968862       216.8438 
 738   0.0000       7.979996       217.1467 
 739   0.0000       7.987755       217.3579 
 740   0.0000       7.991734       217.4661 
 741   0.0000       8.007031       217.8824 
 742   0.0000       8.016430       218.1381 
 743   0.0000       8.041873       218.8305 
 744   0.0000       8.048168       219.0018 
 745   0.0000       8.062915       219.4031 
 746   0.0000       8.071971       219.6495 
 747   0.0000       8.083309       219.9580 
 748   0.0000       8.112416       220.7501 
 749   0.0000       8.150919       221.7978 
 750   0.0000       8.163277       222.1341 
 751   0.0000       8.173796       222.4203 
 752   0.0000       8.199465       223.1188 
 753   0.0000       8.224471       223.7992 
 754   0.0000       8.251490       224.5344 
 755   0.0000       8.256908       224.6819 
 756   0.0000       8.258726       224.7314 
 757   0.0000       8.283592       225.4080 
 758   0.0000       8.302255       225.9158 
 759   0.0000       8.315619       226.2795 
 760   0.0000       8.364471       227.6088 
 761   0.0000       8.386917       228.2196 
 762   0.0000       8.399760       228.5691 
 763   0.0000       8.421795       229.1687 
 764   0.0000       8.506042       231.4612 
 765   0.0000       8.509319       231.5503 
 766   0.0000       8.514688       231.6965 
 767   0.0000       8.525363       231.9869 
 768   0.0000       8.531686       232.1590 
 769   0.0000       8.550487       232.6706 
 770   0.0000       8.585764       233.6305 
 771   0.0000       8.591803       233.7948 
 772   0.0000       8.607265       234.2156 
 773   0.0000       8.649432       235.3630 
 774   0.0000       8.719900       237.2806 
 775   0.0000       8.720661       237.3013 
 776   0.0000       8.760495       238.3852 
 777   0.0000       8.767939       238.5877 
 778   0.0000       8.809271       239.7125 
 779   0.0000       8.823798       240.1078 
 780   0.0000       8.857733       241.0312 
 781   0.0000       8.918115       242.6742 
 782   0.0000       8.945239       243.4123 
 783   0.0000       8.992616       244.7015 
 784   0.0000       9.012695       245.2479 
 785   0.0000       9.032553       245.7883 
 786   0.0000       9.101639       247.6682 
 787   0.0000       9.142601       248.7828 
 788   0.0000       9.157134       249.1783 
 789   0.0000       9.230689       251.1798 
 790   0.0000       9.282151       252.5802 
 791   0.0000       9.289603       252.7830 
 792   0.0000       9.331527       253.9237 
 793   0.0000       9.353833       254.5307 
 794   0.0000       9.434829       256.7348 
 795   0.0000       9.470438       257.7037 
 796   0.0000       9.491315       258.2718 
 797   0.0000       9.528161       259.2744 
 798   0.0000       9.557158       260.0635 
 799   0.0000       9.583268       260.7740 
 800   0.0000       9.698748       263.9164 
 801   0.0000       9.723542       264.5910 
 802   0.0000       9.764644       265.7095 
 803   0.0000       9.787675       266.3362 
 804   0.0000       9.922532       270.0058 
 805   0.0000      10.024578       272.7826 
 806   0.0000      10.075193       274.1599 
 807   0.0000      10.184613       277.1374 
 808   0.0000      10.239424       278.6289 
 809   0.0000      11.513355       313.2943 
 810   0.0000      11.692227       318.1617 
 811   0.0000      12.853555       349.7630 
 812   0.0000      13.327543       362.6609 
 813   0.0000      14.313480       389.4896 
 814   0.0000      14.589014       396.9873 
 815   0.0000      14.950441       406.8222 
 816   0.0000      15.013258       408.5315 
 817   0.0000      15.379926       418.5091 
 818   0.0000      15.424254       419.7153 
 819   0.0000      15.484620       421.3579 
 820   0.0000      15.579536       423.9407 
 821   0.0000      15.828091       430.7043 
 822   0.0000      16.029814       436.1934 
 823   0.0000      16.128278       438.8727 
 824   0.0000      16.217314       441.2956 
 825   0.0000      16.413064       446.6222 
 826   0.0000      16.957395       461.4342 
 827   0.0000      17.854937       485.8575 

                    ********************************
                    * MULLIKEN POPULATION ANALYSIS *
                    ********************************

-----------------------
MULLIKEN ATOMIC CHARGES
-----------------------
   0 C :   -0.281757
   1 C :    0.044442
   2 O :   -0.326040
   3 C :    0.488568
   4 O :   -0.548773
   5 C :   -0.223105
   6 C :    0.150758
   7 C :   -0.291362
   8 N :   -0.163261
   9 C :    0.318220
  10 S :   -0.582708
  11 N :   -0.240841
  12 C :    0.079125
  13 C :   -0.027207
  14 C :   -0.200504
  15 C :   -0.120545
  16 C :   -0.284756
  17 C :    0.261264
  18 O :   -0.412102
  19 C :   -0.316452
  20 H :    0.111934
  21 H :    0.112083
  22 H :    0.097678
  23 H :    0.110713
  24 H :    0.109649
  25 H :    0.126787
  26 H :    0.136225
  27 H :    0.125725
  28 H :    0.260483
  29 H :    0.246805
  30 H :    0.173104
  31 H :    0.184534
  32 H :    0.186845
  33 H :    0.173877
  34 H :    0.329122
  35 H :    0.191472
Sum of atomic charges:    0.0000000

--------------------------------
MULLIKEN REDUCED ORBITAL CHARGES
--------------------------------
  0 C s       :     3.262747  s :     3.262747
      pz      :     1.027613  p :     2.938507
      px      :     1.007643
      py      :     0.903251
      dz2     :     0.006834  d :     0.075918
      dxz     :     0.016216
      dyz     :     0.020240
      dx2y2   :     0.012809
      dxy     :     0.019820
      f0      :     0.000435  f :     0.004585
      f+1     :     0.000495
      f-1     :     0.000664
      f+2     :     0.000874
      f-2     :     0.000585
      f+3     :     0.000842
      f-3     :     0.000690
  1 C s       :     3.172401  s :     3.172401
      pz      :     0.863123  p :     2.627371
      px      :     0.778841
      py      :     0.985407
      dz2     :     0.025972  d :     0.144609
      dxz     :     0.033635
      dyz     :     0.026482
      dx2y2   :     0.025559
      dxy     :     0.032961
      f0      :     0.001376  f :     0.011177
      f+1     :     0.002340
      f-1     :     0.000768
      f+2     :     0.001980
      f-2     :     0.001724
      f+3     :     0.001365
      f-3     :     0.001624
  2 O s       :     3.701517  s :     3.701517
      pz      :     1.538030  p :     4.587244
      px      :     1.558604
      py      :     1.490610
      dz2     :     0.004504  d :     0.034828
      dxz     :     0.005789
      dyz     :     0.007674
      dx2y2   :     0.011097
      dxy     :     0.005763
      f0      :     0.000317  f :     0.002451
      f+1     :     0.000259
      f-1     :     0.000308
      f+2     :     0.000580
      f-2     :     0.000356
[...]
 15 C s       :     2.703059  s :     2.703059
      pz      :     0.978235  p :     2.800585
      px      :     0.863632
      py      :     0.958718
      dz2     :     0.123974  d :     0.427691
      dxz     :     0.089220
      dyz     :     0.104598
      dx2y2   :     0.065918
      dxy     :     0.043981
      f0      :     0.007724  f :     0.042424
      f+1     :     0.007153
      f-1     :     0.008125
      f+2     :     0.007428
      f-2     :     0.006223
      f+3     :     0.002958
      f-3     :     0.002814
 16 C s       :     2.705169  s :     2.705169
      pz      :     0.981892  p :     2.877283
      px      :     0.922031
      py      :     0.973359
      dz2     :     0.083580  d :     0.384368
      dxz     :     0.054079
      dyz     :     0.128715
      dx2y2   :     0.054811
      dxy     :     0.063182
      f0      :     0.007495  f :     0.039256
      f+1     :     0.004826
      f-1     :     0.007981
      f+2     :     0.006338
      f-2     :     0.003780
      f+3     :     0.004460
      f-3     :     0.004377
 17 C s       :     2.707304  s :     2.707304
      pz      :     0.863986  p :     2.704440
      px      :     0.850935
      py      :     0.989520
      dz2     :     0.207173  d :     0.725736
      dxz     :     0.155364
      dyz     :     0.182335
      dx2y2   :     0.090161
      dxy     :     0.090704
      f0      :     0.027180  f :     0.104340
      f+1     :     0.022441
      f-1     :     0.020362
      f+2     :     0.012960
      f-2     :     0.010053
      f+3     :     0.006251
      f-3     :     0.005094
 18 O s       :     3.154860  s :     3.154860
      pz      :     1.408804  p :     4.370474
      px      :     1.625769
      py      :     1.335901
      dz2     :     0.030118  d :     0.079702
      dxz     :     0.014158
      dyz     :     0.020293
      dx2y2   :     0.012581
      dxy     :     0.002552
      f0      :     0.001812  f :     0.005327
      f+1     :     0.000896
      f-1     :     0.001265
      f+2     :     0.000342
      f-2     :     0.000296
      f+3     :     0.000322
      f-3     :     0.000394
 19 C s       :     2.707969  s :     2.707969
      pz      :     0.977598  p :     2.866952
      px      :     0.919230
      py      :     0.970124
      dz2     :     0.103898  d :     0.381538
      dxz     :     0.076096
      dyz     :     0.097777
      dx2y2   :     0.059417
      dxy     :     0.044350
      f0      :     0.006899  f :     0.038342
      f+1     :     0.006576
      f-1     :     0.007353
      f+2     :     0.006300
      f-2     :     0.005593
      f+3     :     0.003241
      f-3     :     0.002381
 20 H s       :     0.832208  s :     0.832208
      pz      :     0.056148  p :     0.150215
      px      :     0.057083
      py      :     0.036984
      dz2     :     0.007324  d :     0.027825
      dxz     :     0.006876
      dyz     :     0.003991
      dx2y2   :     0.004490
      dxy     :     0.005144
 21 H s       :     0.844034  s :     0.844034
      pz      :     0.060212  p :     0.151251
      px      :     0.044182
      py      :     0.046857
      dz2     :     0.007196  d :     0.027340
      dxz     :     0.006612
      dyz     :     0.006605
      dx2y2   :     0.003707
      dxy     :     0.003219
 22 H s       :     0.844480  s :     0.844480
      pz      :     0.045800  p :     0.152275
      px      :     0.058019
      py      :     0.048456
      dz2     :     0.003864  d :     0.027752
      dxz     :     0.006551
      dyz     :     0.003201
      dx2y2   :     0.007693
      dxy     :     0.006443
 23 H s       :     0.846042  s :     0.846042
      pz      :     0.069806  p :     0.145617
      px      :     0.028848
      py      :     0.046964
      dz2     :     0.009016  d :     0.027142
      dxz     :     0.006371
      dyz     :     0.008386
      dx2y2   :     0.002254
      dxy     :     0.001115
 24 H s       :     0.847881  s :     0.847881
      pz      :     0.035980  p :     0.149712
      px      :     0.060511
      py      :     0.053221
      dz2     :     0.003668  d :     0.027628
      dxz     :     0.006397
      dyz     :     0.002231
      dx2y2   :     0.008013
      dxy     :     0.007319
 25 H s       :     0.831097  s :     0.831097
      pz      :     0.043847  p :     0.157148
      px      :     0.077941
      py      :     0.035359
      dz2     :     0.002403  d :     0.028070
      dxz     :     0.009984
      dyz     :     0.000152
      dx2y2   :     0.007195
      dxy     :     0.008335
 26 H s       :     0.822209  s :     0.822209
      pz      :     0.065968  p :     0.155186
      px      :     0.044393
      py      :     0.044825
      dz2     :     0.009050  d :     0.028115
      dxz     :     0.006617
      dyz     :     0.007283
      dx2y2   :     0.002764
      dxy     :     0.002401
 27 H s       :     0.828904  s :     0.828904
      pz      :     0.058816  p :     0.152633
      px      :     0.043614
      py      :     0.050203
      dz2     :     0.008211  d :     0.028003
      dxz     :     0.004588
      dyz     :     0.006507
      dx2y2   :     0.004593
      dxy     :     0.004103
 28 H s       :     0.716105  s :     0.716105
      pz      :     0.084241  p :     0.251908
      px      :     0.064545
      py      :     0.103121
      dz2     :     0.007284  d :     0.060848
      dxz     :     0.005318
      dyz     :     0.017173
      dx2y2   :     0.014440
      dxy     :     0.016633
 29 H s       :     0.725462  s :     0.725462
      pz      :     0.081041  p :     0.253371
      px      :     0.072254
      py      :     0.100075
      dz2     :     0.005290  d :     0.060907
      dxz     :     0.007253
      dyz     :     0.015975
      dx2y2   :     0.016467
      dxy     :     0.015922
 30 H s       :     0.827730  s :     0.827730
      pz      :     0.071425  p :     0.150301
      px      :     0.030195
      py      :     0.048681
      dz2     :     0.009291  d :     0.028652
      dxz     :     0.005703
      dyz     :     0.008349
      dx2y2   :     0.002900
      dxy     :     0.002408
 31 H s       :     0.837304  s :     0.837304
      pz      :     0.071029  p :     0.156913
      px      :     0.044275
      py      :     0.041609
      dz2     :     0.008813  d :     0.027321
      dxz     :     0.006594
      dyz     :     0.007733
      dx2y2   :     0.002124
      dxy     :     0.002057
 32 H s       :     0.831016  s :     0.831016
      pz      :     0.037527  p :     0.152575
      px      :     0.039804
      py      :     0.075244
      dz2     :     0.003525  d :     0.027002
      dxz     :     0.001151
      dyz     :     0.008194
      dx2y2   :     0.007038
      dxy     :     0.007095
 33 H s       :     0.839459  s :     0.839459
      pz      :     0.055770  p :     0.158741
      px      :     0.052793
      py      :     0.050178
      dz2     :     0.006981  d :     0.027655
      dxz     :     0.005091
      dyz     :     0.006889
      dx2y2   :     0.004393
      dxy     :     0.004299
 34 H s       :     0.663042  s :     0.663042
      pz      :     0.066997  p :     0.336661
      px      :     0.097519
      py      :     0.172145
      dz2     :     0.009123  d :     0.097867
      dxz     :     0.000516
      dyz     :     0.028143
      dx2y2   :     0.025049
      dxy     :     0.035035
 35 H s       :     0.834795  s :     0.834795
      pz      :     0.036032  p :     0.161680
      px      :     0.047518
      py      :     0.078130
      dz2     :     0.003143  d :     0.028330
      dxz     :     0.001285
      dyz     :     0.008022
      dx2y2   :     0.007777
      dxy     :     0.008103


                      *****************************
                      * MAYER POPULATION ANALYSIS *
                      *****************************

  NA   - Mulliken gross atomic population
  ZA   - Total nuclear charge
  QA   - Mulliken gross atomic charge
  VA   - Mayer's total valence
  BVA  - Mayer's bonded valence
  FA   - Mayer's free valence

  ATOM       NA         ZA         QA         VA         BVA        FA
  0 C      6.2818     6.0000    -0.2818     3.8932     3.8932     0.0000
  1 C      5.9556     6.0000     0.0444     3.8249     3.8249    -0.0000
  2 O      8.3260     8.0000    -0.3260     2.1112     2.1112    -0.0000
  3 C      5.5114     6.0000     0.4886     4.2670     4.2670     0.0000
  4 O      8.5488     8.0000    -0.5488     1.9807     1.9807    -0.0000
  5 C      6.2231     6.0000    -0.2231     3.6557     3.6557    -0.0000
  6 C      5.8492     6.0000     0.1508     3.8711     3.8711    -0.0000
  7 C      6.2914     6.0000    -0.2914     3.8736     3.8736     0.0000
  8 N      7.1633     7.0000    -0.1633     3.3426     3.3426    -0.0000
  9 C      5.6818     6.0000     0.3182     4.0881     4.0881     0.0000
 10 S     16.5827    16.0000    -0.5827     1.6105     1.6105     0.0000
 11 N      7.2408     7.0000    -0.2408     3.2953     3.2953     0.0000
 12 C      5.9209     6.0000     0.0791     3.8965     3.8965     0.0000
 13 C      6.0272     6.0000    -0.0272     3.6417     3.6417     0.0000
 14 C      6.2005     6.0000    -0.2005     3.8370     3.8370     0.0000
 15 C      6.1205     6.0000    -0.1205     3.7792     3.7792    -0.0000
 16 C      6.2848     6.0000    -0.2848     3.7577     3.7577    -0.0000
 17 C      5.7387     6.0000     0.2613     3.9256     3.9256    -0.0000
 18 O      8.4121     8.0000    -0.4121     2.0696     2.0696    -0.0000
 19 C      6.3165     6.0000    -0.3165     3.7673     3.7673     0.0000
 20 H      0.8881     1.0000     0.1119     0.9817     0.9817    -0.0000
 21 H      0.8879     1.0000     0.1121     0.9816     0.9816    -0.0000
 22 H      0.9023     1.0000     0.0977     0.9812     0.9812     0.0000
 23 H      0.8893     1.0000     0.1107     0.9781     0.9781    -0.0000
 24 H      0.8904     1.0000     0.1096     0.9805     0.9805     0.0000
 25 H      0.8732     1.0000     0.1268     0.9938     0.9938     0.0000
 26 H      0.8638     1.0000     0.1362     0.9727     0.9727     0.0000
 27 H      0.8743     1.0000     0.1257     0.9821     0.9821     0.0000
 28 H      0.7395     1.0000     0.2605     0.9675     0.9675     0.0000
 29 H      0.7532     1.0000     0.2468     0.9760     0.9760    -0.0000
 30 H      0.8269     1.0000     0.1731     0.9904     0.9904    -0.0000
 31 H      0.8155     1.0000     0.1845     0.9737     0.9737     0.0000
 32 H      0.8132     1.0000     0.1868     0.9663     0.9663    -0.0000
 33 H      0.8261     1.0000     0.1739     0.9814     0.9814    -0.0000
 34 H      0.6709     1.0000     0.3291     0.9325     0.9325    -0.0000
 35 H      0.8085     1.0000     0.1915     0.9772     0.9772     0.0000

  Mayer bond orders larger than 0.100000
B(  0-C ,  1-C ) :   0.9791 B(  0-C , 20-H ) :   0.9733 B(  0-C , 21-H ) :   0.9736 
B(  0-C , 22-H ) :   0.9763 B(  1-C ,  2-O ) :   0.8583 B(  1-C , 23-H ) :   0.9748 
B(  1-C , 24-H ) :   0.9738 B(  2-O ,  3-C ) :   1.2555 B(  3-C ,  4-O ) :   1.9037 
B(  3-C ,  5-C ) :   1.0708 B(  5-C ,  6-C ) :   1.6377 B(  5-C , 12-C ) :   0.9629 
B(  6-C ,  7-C ) :   0.9664 B(  6-C ,  8-N ) :   1.1646 B(  7-C , 25-H ) :   0.9674 
B(  7-C , 26-H ) :   0.9571 B(  7-C , 27-H ) :   0.9778 B(  8-N ,  9-C ) :   1.2129 
B(  8-N , 28-H ) :   0.9185 B(  9-C , 10-S ) :   1.4658 B(  9-C , 11-N ) :   1.3408 
B( 11-N , 12-C ) :   0.9831 B( 11-N , 29-H ) :   0.9297 B( 12-C , 13-C ) :   0.9217 
B( 12-C , 30-H ) :   0.9958 B( 13-C , 14-C ) :   1.3272 B( 13-C , 19-C ) :   1.3466 
B( 14-C , 15-C ) :   1.4190 B( 14-C , 31-H ) :   0.9616 B( 15-C , 16-C ) :   1.3351 
B( 15-C , 32-H ) :   0.9650 B( 16-C , 17-C ) :   1.3676 B( 16-C , 33-H ) :   0.9619 
B( 17-C , 18-O ) :   1.1435 B( 17-C , 19-C ) :   1.3390 B( 18-O , 34-H ) :   0.9080 
B( 19-C , 35-H ) :   0.9581 

-------
TIMINGS
-------

Total SCF time: 0 days 1 hours 50 min 40 sec 

Total time                  ....    6640.902 sec
Sum of individual times     ....    6637.193 sec  ( 99.9%)

Fock matrix formation       ....    6624.775 sec  ( 99.8%)
Diagonalization             ....       1.423 sec  (  0.0%)
Density matrix formation    ....       0.184 sec  (  0.0%)
Population analysis         ....       0.184 sec  (  0.0%)
Initial guess               ....       5.986 sec  (  0.1%)
Orbital Transformation      ....       0.000 sec  (  0.0%)
Orbital Orthonormalization  ....       0.000 sec  (  0.0%)
DIIS solution               ....       1.356 sec  (  0.0%)
SOSCF solution              ....       1.860 sec  (  0.0%)

Maximum memory used throughout the entire SCF-calculation: 721.2 MB

------------------------------------------------------------------------------
                                ORCA  MP2 
------------------------------------------------------------------------------

Freezing NCore=48 chemical core electrons

-------------
RI-MP2 ENERGY
-------------
Dimension of the basis                    ...  828
Memory devoted to MP2                     ...  256 MB   
Data format for buffers                   ... DOUBLE
Compression type for matrix containers    ... UNCOMPRESSED
Overall scaling of the MP2 energy         ...   1.000e+00
Calculating two index integrals           ... done (    0.043 sec)
Cholesky decomposition of V**-1           ... done (    0.582 sec)

-----------------
RI-TRANSFORMATION (AUX index driven)
-----------------

Dimension of the orbital-basis         ... 828
Dimension of the aux-basis             ... 2141
Transformation of internal/external MOs...   24-  76 to   77- 827
Number Format for Storage              ... Double (8 Byte)
Integral mode                          ... Direct

First Phase: integral generation and transformation of MO indices
  Aux angular momentum 0               ... done (    5.135 sec)
  Aux angular momentum 1               ... done (    8.639 sec)
  Aux angular momentum 2               ... done (   10.969 sec)
  Aux angular momentum 3               ... done (    8.638 sec)
  Aux angular momentum 4               ... done (    2.984 sec)
Closing buffer VIA ( 0.63 GB; CompressionRatio= 1.00)
  Phase 1 completed in    36.532 sec
Second Phase: sorting and transformation of aux index

IA-Transformation
Memory available                       ... 158 MB 
Max. # MO pairs treated in a batch     ... 11    
# of internal orbitals                 ... 53
# batches for internal orbitals        ... 5
Closing buffer IAV ( 0.63 GB; CompressionRatio= 1.00)
(ia|v) transformation done in    17.930 sec

  Phase 2 completed in    17.937 sec
RI-Integral transformation completed in    54.474 sec
Opening buffers                              ... done

Starting loop over batches of integrals:

Operator 0  - window                       ... ( 24- 76)x( 77-827)
Operator 0  - Memory available             ...   256 MB
Operator 0  - Memory needed per MO         ...  12.3 MB
Operator 0  - Number of orbitals per batch ... 13
Operator 0  - Number of batches            ... 5

OPERATOR  0   PASS   0:  MOs    24 ...   36
  Reading integrals       ... ok
  Internal MO  26
  Internal MO  29
  Internal MO  32
  Internal MO  35
OPERATOR  0   PASS   1:  MOs    37 ...   49
  Reading integrals       ... ok
  Internal MO  38
  Internal MO  41
  Internal MO  44
  Internal MO  47
OPERATOR  0   PASS   2:  MOs    50 ...   62
  Reading integrals       ... ok
  Internal MO  50
  Internal MO  53
  Internal MO  56
  Internal MO  59
  Internal MO  62
OPERATOR  0   PASS   3:  MOs    63 ...   75
  Reading integrals       ... ok
  Internal MO  65
  Internal MO  68
  Internal MO  71
  Internal MO  74
OPERATOR  0   PASS   4:  MOs    76 ...   76
  Reading integrals       ... ok
Time spent in pair loops =    92.321 sec
Deleting buffer (Ka|jb)[aa] ...done

-----------------------------------------------
 RI-MP2 CORRELATION ENERGY:     -3.522671800 Eh
-----------------------------------------------


-------
TIMINGS
-------

Total time                :  147.523 sec
Integral trafo            :   54.496 sec ( 36.9%)
I/O of integrals          :    0.820 sec (  0.6%)
K(i,j) Operators          :   64.900 sec ( 44.0%)
T(i,j) pair energies      :    9.244 sec (  6.3%)
V-calculation             :    0.043 sec (  0.0%)
V**(-1/2)                 :    0.582 sec (  0.4%)
Gamma(ia|P)               :    0.000 sec (  0.0%)
Gamma-Trafo               :    0.000 sec (  0.0%)
D(virtual)                :    0.000 sec (  0.0%)
D(internal)               :    0.000 sec (  0.0%)
W(virtual)                :    0.000 sec (  0.0%)
W(internal)               :    0.000 sec (  0.0%)
L(virtual)                :    0.000 sec (  0.0%)
L(internal)               :    0.000 sec (  0.0%)
G(D)                      :    0.000 sec (  0.0%)
G(Z)                      :    0.000 sec (  0.0%)
Z-Vector Solution         :    0.000 sec (  0.0%)
3-Index Derivative        :    0.000 sec (  0.0%)
2-Index Derivative        :    0.000 sec (  0.0%)
Separable Gradient        :    0.000 sec (  0.0%)


---------------------------------------
MP2 TOTAL ENERGY:    -1274.422262653 Eh
---------------------------------------

Maximum memory used throughout the entire MP2-calculation: 303.2 MB

-------------------------   --------------------
FINAL SINGLE POINT ENERGY     -1274.422262652517
-------------------------   --------------------


                            ***************************************
                            *     ORCA property calculations      *
                            ***************************************


  WARNING: The energy has been calculated at the MP2 level but the densities
           used in the property calculations are still SCF densities
           MP2 response densities have not been calculated 
           use %mp2 Density relaxed end
           or  %mp2 Density unrelaxed end

                                    ---------------------
                                    Active property flags
                                    ---------------------
   (+) Dipole Moment


------------------------------------------------------------------------------
                       ORCA ELECTRIC PROPERTIES CALCULATION
------------------------------------------------------------------------------

Dipole Moment Calculation                       ... on
Quadrupole Moment Calculation                   ... off
Polarizability Calculation                      ... off
GBWName                                         ... qm_input.solv.gbw
Electron density file                           ... qm_input.solv.scfp
The origin for moment calculation is the CENTER OF MASS  = (23.272852, 11.062077  6.432960)

-------------
DIPOLE MOMENT
-------------
                                X             Y             Z
Electronic contribution:     13.22412       3.76736       8.72054
Nuclear contribution   :    -14.62708      -3.75483      -9.96656
                        -----------------------------------------
Total Dipole Moment    :     -1.40296       0.01253      -1.24602
                        -----------------------------------------
Magnitude (a.u.)       :      1.87644
Magnitude (Debye)      :      4.76953



--------------------
Rotational spectrum 
--------------------
 
Rotational constants in cm-1:     0.010993     0.008323     0.006034 
Rotational constants in MHz :   329.563748   249.513270   180.885958 

 Dipole components along the rotational axes: 
x,y,z [a.u.] :    -1.506901     1.115427     0.078071 
x,y,z [Debye]:    -3.830238     2.835189     0.198440 

 

Timings for individual modules:

Sum of individual times         ...     7022.360 sec (= 117.039 min)
GTO integral calculation        ...      233.478 sec (=   3.891 min)   3.3 %
SCF iterations                  ...     6640.986 sec (= 110.683 min)  94.6 %
MP2 module                      ...      147.897 sec (=   2.465 min)   2.1 %
                             ****ORCA TERMINATED NORMALLY****
TOTAL RUN TIME: 0 days 1 hours 57 minutes 3 seconds 315 msec
