
                                        *****************
                                        * O   R   C   A *
                                        *****************

                                            #,                                       
                                            ###                                      
                                            ####                                     
                                            #####                                    
                                            ######                                   
                                           ########,                                 
                                     ,,################,,,,,                         
                               ,,#################################,,                 
                          ,,##########################################,,             
                       ,#########################################, ''#####,          
                    ,#############################################,,   '####,        
                  ,##################################################,,,,####,       
                ,###########''''           ''''###############################       
              ,#####''   ,,,,##########,,,,          '''####'''          '####       
            ,##' ,,,,###########################,,,                        '##       
           ' ,,###''''                  '''############,,,                           
         ,,##''                                '''############,,,,        ,,,,,,###''
      ,#''                                            '''#######################'''  
     '                                                          ''''####''''         
             ,#######,   #######,   ,#######,      ##                                
            ,#'     '#,  ##    ##  ,#'     '#,    #''#        ######   ,####,        
            ##       ##  ##   ,#'  ##            #'  '#       #        #'  '#        
            ##       ##  #######   ##           ,######,      #####,   #    #        
            '#,     ,#'  ##    ##  '#,     ,#' ,#      #,         ##   #,  ,#        
             '#######'   ##     ##  '#######'  #'      '#     #####' # '####'        



                  #######################################################
                  #                        -***-                        #
                  #          Department of theory and spectroscopy      #
                  #    Directorship and core code : Frank Neese         #
                  #        Max Planck Institute fuer Kohlenforschung    #
                  #                Kaiser Wilhelm Platz 1               #
                  #                 D-45470 Muelheim/Ruhr               #
                  #                      Germany                        #
                  #                                                     #
                  #                  All rights reserved                #
                  #                        -***-                        #
                  #######################################################


                         Program Version 5.0.0 -  RELEASE  -
                                (SVN: $Rev: 19529$)
                ($Date: 2021-06-28 11:36:33 +0200 (Mo, 28 Jun 2021) $)


 With contributions from (in alphabetic order):
   Daniel Aravena         : Magnetic Suceptibility
   Michael Atanasov       : Ab Initio Ligand Field Theory (pilot matlab implementation)
   Alexander A. Auer      : GIAO ZORA, VPT2 properties, NMR spectrum
   Ute Becker             : Parallelization
   Giovanni Bistoni       : ED, misc. LED, open-shell LED, HFLD
   Martin Brehm           : Molecular dynamics
   Dmytro Bykov           : SCF Hessian
   Vijay G. Chilkuri      : MRCI spin determinant printing, contributions to CSF-ICE
   Dipayan Datta          : RHF DLPNO-CCSD density
   Achintya Kumar Dutta   : EOM-CC, STEOM-CC
   Dmitry Ganyushin       : Spin-Orbit,Spin-Spin,Magnetic field MRCI
   Miquel Garcia          : C-PCM Hessian, Gaussian charge scheme
   Yang Guo               : DLPNO-NEVPT2, F12-NEVPT2, CIM, IAO-localization
   Andreas Hansen         : Spin unrestricted coupled pair/coupled cluster methods
   Benjamin Helmich-Paris : MC-RPA, TRAH-SCF, COSX integrals
   Lee Huntington         : MR-EOM, pCC
   Robert Izsak           : Overlap fitted RIJCOSX, COSX-SCS-MP3, EOM
   Marcus Kettner         : VPT2
   Christian Kollmar      : KDIIS, OOCD, Brueckner-CCSD(T), CCSD density, CASPT2, CASPT2-K
   Simone Kossmann        : Meta GGA functionals, TD-DFT gradient, OOMP2, MP2 Hessian
   Martin Krupicka        : Initial AUTO-CI
   Lucas Lang             : DCDCAS
   Marvin Lechner         : AUTO-CI (C++ implementation), FIC-MRCC
   Dagmar Lenk            : GEPOL surface, SMD
   Dimitrios Liakos       : Extrapolation schemes; Compound Job, initial MDCI parallelization
   Dimitrios Manganas     : Further ROCIS development; embedding schemes
   Dimitrios Pantazis     : SARC Basis sets
   Anastasios Papadopoulos: AUTO-CI, single reference methods and gradients
   Taras Petrenko         : DFT Hessian,TD-DFT gradient, ASA, ECA, R-Raman, ABS, FL, XAS/XES, NRVS
   Peter Pinski           : DLPNO-MP2, DLPNO-MP2 Gradient
   Christoph Reimann      : Effective Core Potentials
   Marius Retegan         : Local ZFS, SOC
   Christoph Riplinger    : Optimizer, TS searches, QM/MM, DLPNO-CCSD(T), (RO)-DLPNO pert. Triples
   Tobias Risthaus        : Range-separated hybrids, TD-DFT gradient, RPA, STAB
   Michael Roemelt        : Original ROCIS implementation
   Masaaki Saitow         : Open-shell DLPNO-CCSD energy and density
   Barbara Sandhoefer     : DKH picture change effects
   Avijit Sen             : IP-ROCIS
   Kantharuban Sivalingam : CASSCF convergence, NEVPT2, FIC-MRCI
   Bernardo de Souza      : ESD, SOC TD-DFT
   Georgi Stoychev        : AutoAux, RI-MP2 NMR
   Willem Van den Heuvel  : Paramagnetic NMR
   Boris Wezisla          : Elementary symmetry handling
   Frank Wennmohs         : Technical directorship


 We gratefully acknowledge several colleagues who have allowed us to
 interface, adapt or use parts of their codes:
   Stefan Grimme, W. Hujo, H. Kruse, P. Pracht,  : VdW corrections, initial TS optimization,
                  C. Bannwarth, S. Ehlert          DFT functionals, gCP, sTDA/sTD-DF
   Ed Valeev, F. Pavosevic, A. Kumar             : LibInt (2-el integral package), F12 methods
   Garnet Chan, S. Sharma, J. Yang, R. Olivares  : DMRG
   Ulf Ekstrom                                   : XCFun DFT Library
   Mihaly Kallay                                 : mrcc  (arbitrary order and MRCC methods)
   Jiri Pittner, Ondrej Demel                    : Mk-CCSD
   Frank Weinhold                                : gennbo (NPA and NBO analysis)
   Christopher J. Cramer and Donald G. Truhlar   : smd solvation model
   Lars Goerigk                                  : TD-DFT with DH, B97 family of functionals
   V. Asgeirsson, H. Jonsson                     : NEB implementation
   FAccTs GmbH                                   : IRC, NEB, NEB-TS, DLPNO-Multilevel, CI-OPT
                                                   MM, QMMM, 2- and 3-layer-ONIOM, Crystal-QMMM,
                                                   LR-CPCM, SF, NACMEs, symmetry and pop. for TD-DFT,
                                                   nearIR, NL-DFT gradient (VV10), updates on ESD,
                                                   ML-optimized integration grids
   S Lehtola, MJT Oliveira, MAL Marques          : LibXC Library
   Liviu Ungur et al                             : ANISO software


 Your calculation uses the libint2 library for the computation of 2-el integrals
 For citations please refer to: http://libint.valeyev.net

 Your ORCA version has been built with support for libXC version: 5.1.0
 For citations please refer to: https://tddft.org/programs/libxc/

 This ORCA versions uses:
   CBLAS   interface :  Fast vector & matrix operations
   LAPACKE interface :  Fast linear algebra routines
   SCALAPACK package :  Parallel linear algebra routines
   Shared memory     :  Shared parallel matrices
   BLAS/LAPACK       :  OpenBLAS 0.3.15  USE64BITINT DYNAMIC_ARCH NO_AFFINITY SkylakeX SINGLE_THREADED
        Core in use  :  SkylakeX
   Copyright (c) 2011-2014, The OpenBLAS Project


================================================================================

----- Orbital basis set information -----
Your calculation utilizes the basis: cc-pVTZ 
       H, B-Ne : Obtained from the ccRepo (grant-hill.group.shef.ac.uk/ccrepo) Feb. 2017
                 T. H. Dunning, Jr., J. Chem. Phys. 90, 1007 (1989)
            He : Obtained from the ccRepo (grant-hill.group.shef.ac.uk/ccrepo) Feb. 2017
                 D. E. Woon, T. H. Dunning, Jr., J. Chem. Phys. 100, 2975 (1994)
  Li-Be, Na-Mg : Obtained from the ccRepo (grant-hill.group.shef.ac.uk/ccrepo) Feb. 2017
                 B. P. Prascher, D. E. Woon, K. A. Peterson, T. H. Dunning, Jr., A. K. Wilson, Theor. Chem. Acc. 128, 69 (2011)
         Al-Ar : Obtained from the ccRepo (grant-hill.group.shef.ac.uk/ccrepo) Feb. 2017
                 D. E. Woon, T. H. Dunning, Jr., J. Chem. Phys. 98, 1358 (1993)
            Ca : Obtained from the Peterson Research Group Website (tyr0.chem.wsu.edu/~kipeters) Feb. 2017
                 J. Koput, K. A. Peterson, J. Phys. Chem. 106, 9595 (2002)
         Sc-Zn : Obtained from the ccRepo (grant-hill.group.shef.ac.uk/ccrepo) Feb. 2017
                 N. B. Balabanov, K. A. Peterson, J. Chem. Phys. 123, 064107 (2005)
                 N. B. Balabanov, K. A. Peterson, J. Chem. Phys. 125, 074110 (2006)
         Ga-Kr : Obtained from the ccRepo (grant-hill.group.shef.ac.uk/ccrepo) Feb. 2017
                 A. K. Wilson, D. E. Woon, K. A. Peterson, T. H. Dunning, Jr., J. Chem. Phys. 110, 7667 (1999)
             Y : Obtained from the ccRepo (grant-hill.group.shef.ac.uk/ccrepo) Feb. 2017
                 K. A. Peterson, D. Figgen, M. Dolg, H. Stoll, J. Chem. Phys. 126, 124101 (2007)
        Ag, Au : Obtained from the Peterson Research Group Website (tyr0.chem.wsu.edu/~kipeters) Feb. 2017
                 K. A. Peterson, C. Puzzarini, Theor. Chem. Acc. 114, 283 (2005)

----- AuxC basis set information -----
Your calculation utilizes the auxiliary basis: cc-pVTZ/C 
  Obtained from the EMSL Basis Set Exchange (bse.pnl.gov) Feb. 2017
  H-He, B-F, Al-Ar, Ga-Kr : F. Weigend, A. Kohn, C. Hattig, J. Chem. Phys. 116, 3175 (2002)
             Li-Be, Na-Mg : C. Haettig, Phys. Chem. Chem. Phys. 7, 59 (2005)
                       Ne : C. Haettig, Phys. Chem. Chem. Phys. 7, 59 (2005)
                            F. Weigend, A. Kohn, C. Hattig, J. Chem. Phys. 116, 3175 (2002)
                    Sc-Zn : J. G. Hill, J. A. Platts, J. Chem. Phys. 128, 044104 (2008)

================================================================================
                                        WARNINGS
                       Please study these warnings very carefully!
================================================================================


WARNING: No MP2 level density has been requested!
         To caclulate MP2 level properties use
         %mp2 Density relaxed end
         or
         %mp2 Density unrelaxed end

WARNING: Post HF methods need fully converged wavefunctions
  ===> : Setting SCFConvForced true
         You can overwrite this default with %scf ConvForced false 


INFO   : the flag for use of the SHARK integral package has been found!

================================================================================
                                       INPUT FILE
================================================================================
NAME = qm_input.vacu
|  1> ! RI-MP2 cc-pVTZ cc-pVTZ/c TightSCF KeepDens NoKeepInts
|  2> 
|  3> *xyz  0  1
|  4>     C     5.0584983   11.0229878   -1.5949781
|  5>     C     4.4421379   10.4957070   -2.9141396
|  6>     O     5.4456154    9.8380737   -3.7594919
|  7>     C     5.8476682    8.5579150   -3.4694392
|  8>     O     5.2909370    7.8299668   -2.6167955
|  9>     C     6.8328820    8.0109278   -4.4468379
| 10>     C     7.3482008    8.6109807   -5.5221017
| 11>     C     7.1685778   10.0189342   -5.9335645
| 12>     N     8.0588030    7.8543115   -6.5022839
| 13>     C     8.1990851    6.5270858   -6.4212849
| 14>     S     8.8244354    5.7119505   -7.6519403
| 15>     N     7.6867342    5.9082076   -5.3245066
| 16>     C     7.0946811    6.5253820   -4.1791567
| 17>     C     8.0030937    6.3021195   -3.0215661
| 18>     C     8.0040414    5.0305810   -2.3866714
| 19>     C     8.8763101    4.7229015   -1.3740326
| 20>     C     9.8949650    5.6233615   -1.0619930
| 21>     C     9.9373676    6.8773393   -1.6636839
| 22>     O    11.0740619    7.5378355   -1.4275785
| 23>     C     9.0514615    7.1812981   -2.6806884
| 24>     H     6.1361027   11.1450735   -1.7594623
| 25>     H     4.8113683   10.4585153   -0.6875162
| 26>     H     4.6420782   12.0207006   -1.4096168
| 27>     H     3.6598451    9.7757271   -2.6442524
| 28>     H     3.9370329   11.2958282   -3.4689950
| 29>     H     7.1638542   10.6888470   -5.0650166
| 30>     H     6.4364434    9.9842937   -6.7496338
| 31>     H     8.1111370   10.3277613   -6.4019634
| 32>     H     8.3787507    8.2726746   -7.3674848
| 33>     H     7.7846750    4.9101189   -5.1823944
| 34>     H     6.1509772    6.0234116   -3.9329022
| 35>     H     7.2430910    4.2891108   -2.6115756
| 36>     H     8.8051909    3.7588808   -0.8790468
| 37>     H    10.5763682    5.2755164   -0.2912210
| 38>     H    11.2213750    8.2017263   -2.1234786
| 39>     H     9.1331012    8.1258532   -3.2103558
| 40> *
| 41> 
| 42>                          ****END OF INPUT****
================================================================================

                       ****************************
                       * Single Point Calculation *
                       ****************************

---------------------------------
CARTESIAN COORDINATES (ANGSTROEM)
---------------------------------
  C      5.058498   11.022988   -1.594978
  C      4.442138   10.495707   -2.914140
  O      5.445615    9.838074   -3.759492
  C      5.847668    8.557915   -3.469439
  O      5.290937    7.829967   -2.616795
  C      6.832882    8.010928   -4.446838
  C      7.348201    8.610981   -5.522102
  C      7.168578   10.018934   -5.933565
  N      8.058803    7.854311   -6.502284
  C      8.199085    6.527086   -6.421285
  S      8.824435    5.711951   -7.651940
  N      7.686734    5.908208   -5.324507
  C      7.094681    6.525382   -4.179157
  C      8.003094    6.302119   -3.021566
  C      8.004041    5.030581   -2.386671
  C      8.876310    4.722901   -1.374033
  C      9.894965    5.623361   -1.061993
  C      9.937368    6.877339   -1.663684
  O     11.074062    7.537835   -1.427579
  C      9.051461    7.181298   -2.680688
  H      6.136103   11.145074   -1.759462
  H      4.811368   10.458515   -0.687516
  H      4.642078   12.020701   -1.409617
  H      3.659845    9.775727   -2.644252
  H      3.937033   11.295828   -3.468995
  H      7.163854   10.688847   -5.065017
  H      6.436443    9.984294   -6.749634
  H      8.111137   10.327761   -6.401963
  H      8.378751    8.272675   -7.367485
  H      7.784675    4.910119   -5.182394
  H      6.150977    6.023412   -3.932902
  H      7.243091    4.289111   -2.611576
  H      8.805191    3.758881   -0.879047
  H     10.576368    5.275516   -0.291221
  H     11.221375    8.201726   -2.123479
  H      9.133101    8.125853   -3.210356

----------------------------
CARTESIAN COORDINATES (A.U.)
----------------------------
  NO LB      ZA    FRAG     MASS         X           Y           Z
   0 C     6.0000    0    12.011    9.559176   20.830428   -3.014072
   1 C     6.0000    0    12.011    8.394424   19.834012   -5.506926
   2 O     8.0000    0    15.999   10.290722   18.591265   -7.104410
   3 C     6.0000    0    12.011   11.050491   16.172116   -6.556290
   4 O     8.0000    0    15.999    9.998422   14.796493   -4.945027
   5 C     6.0000    0    12.011   12.912276   15.138460   -8.403306
   6 C     6.0000    0    12.011   13.886087   16.272395  -10.435260
   7 C     6.0000    0    12.011   13.546649   18.933042  -11.212812
   8 N     7.0000    0    14.007   15.228931   14.842498  -12.287536
   9 C     6.0000    0    12.011   15.494025   12.334405  -12.134470
  10 S    16.0000    0    32.060   16.675766   10.794022  -14.460072
  11 N     7.0000    0    14.007   14.525823   11.164894  -10.061859
  12 C     6.0000    0    12.011   13.407004   12.331185   -7.897462
  13 C     6.0000    0    12.011   15.123655   11.909280   -5.709932
  14 C     6.0000    0    12.011   15.125446    9.506420   -4.510155
  15 C     6.0000    0    12.011   16.773795    8.924990   -2.596545
  16 C     6.0000    0    12.011   18.698774   10.626613   -2.006876
  17 C     6.0000    0    12.011   18.778903   12.996288   -3.143907
  18 O     8.0000    0    15.999   20.926944   14.244445   -2.697732
  19 C     6.0000    0    12.011   17.104783   13.570687   -5.065767
  20 H     1.0000    0     1.008   11.595554   21.061137   -3.324902
  21 H     1.0000    0     1.008    9.092168   19.763730   -1.299217
  22 H     1.0000    0     1.008    8.772256   22.715832   -2.663790
  23 H     1.0000    0     1.008    6.916105   18.473447   -4.996913
  24 H     1.0000    0     1.008    7.439914   21.346022   -6.555451
  25 H     1.0000    0     1.008   13.537723   20.198994   -9.571494
  26 H     1.0000    0     1.008   12.163115   18.867581  -12.754959
  27 H     1.0000    0     1.008   15.327828   19.516640  -12.097958
  28 H     1.0000    0     1.008   15.833544   15.633089  -13.922529
  29 H     1.0000    0     1.008   14.710904    9.278780   -9.793306
  30 H     1.0000    0     1.008   11.623662   11.382598   -7.432108
  31 H     1.0000    0     1.008   13.687458    8.105245   -4.935163
  32 H     1.0000    0     1.008   16.639399    7.103255   -1.661158
  33 H     1.0000    0     1.008   19.986439    9.969281   -0.550328
  34 H     1.0000    0     1.008   21.205326   15.499017   -4.012793
  35 H     1.0000    0     1.008   17.259060   15.355637   -6.066693

--------------------------------
INTERNAL COORDINATES (ANGSTROEM)
--------------------------------
 C      0   0   0     0.000000000000     0.00000000     0.00000000
 C      1   0   0     1.548583949232     0.00000000     0.00000000
 O      2   1   0     1.467674746458   111.78258358     0.00000000
 C      3   2   1     1.372801267464   119.76111808    78.31693723
 O      4   3   2     1.251742581399   123.77715441     9.42782730
 C      4   3   2     1.491693483071   113.38665736   177.89041847
 C      6   4   3     1.334844256092   128.16624401     0.41032062
 C      7   6   4     1.477802123451   127.27518198     6.61800214
 N      7   6   4     1.427676752655   120.46059430   193.24858741
 C      9   7   6     1.337074404931   122.46104559     2.50371353
 S     10   9   7     1.603128587658   119.94325569   171.33259856
 N     10   9   7     1.359572105670   117.46326655   357.06954452
 C     12  10   9     1.429425586264   127.29614119   354.78563899
 C     13  12  10     1.488313002346   107.79659720   248.26274078
 C     14  13  12     1.421232681585   118.82076487   282.17697675
 C     15  14  13     1.371479747931   122.07135010   175.52844165
 C     16  15  14     1.394938969583   118.99887054   352.33371537
 C     17  16  15     1.391506465139   120.48058850     7.10790686
 O     18  17  16     1.335692674898   113.27359219   189.94526752
 C     18  17  16     1.382576841675   119.77956805   353.03821042
 H      1   2   3     1.096900730738   107.52805332    22.18145696
 H      1   2   3     1.096899968141   116.09373251   253.50788771
 H      1   2   3     1.096902613045   107.61104436   137.46494071
 H      2   1   3     1.096901172422   107.32286484   120.18528909
 H      2   1   3     1.096899954701   111.45751059   235.77531704
 H      8   7   6     1.096896041836   111.21848919    38.04778269
 H      8   7   6     1.096900107715   104.96239004   257.14300226
 H      8   7   6     1.096899973890   106.42070036   145.76972037
 H      9   7   6     1.012900198212   121.65186768   173.94350392
 H     12  10   9     1.012901441781   121.68764127   182.12913805
 H     13  12  10     1.096901368456   109.79404816   132.78634479
 H     15  14  13     1.086004359073   121.18870703   349.09784839
 H     16  15  14     1.086004048261   119.60544560   176.55971107
 H     17  16  15     1.086000004856   114.21706681   183.59493338
 H     19  18  17     0.973000047758   109.86598293   156.86433912
 H     20  18  17     1.086000429178   120.11971770   185.12809330

---------------------------
INTERNAL COORDINATES (A.U.)
---------------------------
 C      0   0   0     0.000000000000     0.00000000     0.00000000
 C      1   0   0     2.926399559435     0.00000000     0.00000000
 O      2   1   0     2.773503324478   111.78258358     0.00000000
 C      3   2   1     2.594218431807   119.76111808    78.31693723
 O      4   3   2     2.365450669011   123.77715441     9.42782730
 C      4   3   2     2.818892158759   113.38665736   177.89041847
 C      6   4   3     2.522490075452   128.16624401     0.41032062
 C      7   6   4     2.792641293449   127.27518198     6.61800214
 N      7   6   4     2.697918070283   120.46059430   193.24858741
 C      9   7   6     2.526704445996   122.46104559     2.50371353
 S     10   9   7     3.029473988133   119.94325569   171.33259856
 N     10   9   7     2.569218939036   117.46326655   357.06954452
 C     12  10   9     2.701222886858   127.29614119   354.78563899
 C     13  12  10     2.812503975989   107.79659720   248.26274078
 C     14  13  12     2.685740540774   118.82076487   282.17697675
 C     15  14  13     2.591721121809   122.07135010   175.52844165
 C     16  15  14     2.636052626047   118.99887054   352.33371537
 C     17  16  15     2.629566132693   120.48058850     7.10790686
 O     18  17  16     2.524093354642   113.27359219   189.94526752
 C     18  17  16     2.612691589867   119.77956805   353.03821042
 H      1   2   3     2.072841977193   107.52805332    22.18145696
 H      1   2   3     2.072840536094   116.09373251   253.50788771
 H      1   2   3     2.072845534238   107.61104436   137.46494071
 H      2   1   3     2.072842811854   107.32286484   120.18528909
 H      2   1   3     2.072840510696   111.45751059   235.77531704
 H      8   7   6     2.072833116452   111.21848919    38.04778269
 H      8   7   6     2.072840799851   104.96239004   257.14300226
 H      8   7   6     2.072840546958   106.42070036   145.76972037
 H      9   7   6     1.914103975615   121.65186768   173.94350392
 H     12  10   9     1.914106325619   121.68764127   182.12913805
 H     13  12  10     2.072843182306   109.79404816   132.78634479
 H     15  14  13     2.052250818893   121.18870703   349.09784839
 H     16  15  14     2.052250231543   119.60544560   176.55971107
 H     17  16  15     2.052242590616   114.21706681   183.59493338
 H     19  18  17     1.838703618554   109.86598293   156.86433912
 H     20  18  17     2.052243392467   120.11971770   185.12809330

---------------------
BASIS SET INFORMATION
---------------------
There are 5 groups of distinct atoms

 Group   1 Type C   : 18s5p2d1f contracted to 4s3p2d1f pattern {8811/311/11/1}
 Group   2 Type O   : 18s5p2d1f contracted to 4s3p2d1f pattern {8811/311/11/1}
 Group   3 Type N   : 18s5p2d1f contracted to 4s3p2d1f pattern {8811/311/11/1}
 Group   4 Type S   : 41s16p2d1f contracted to 5s4p2d1f pattern {13131311/7711/11/1}
 Group   5 Type H   : 5s2p1d contracted to 3s2p1d pattern {311/11/1}

Atom   0C    basis set group =>   1
Atom   1C    basis set group =>   1
Atom   2O    basis set group =>   2
Atom   3C    basis set group =>   1
Atom   4O    basis set group =>   2
Atom   5C    basis set group =>   1
Atom   6C    basis set group =>   1
Atom   7C    basis set group =>   1
Atom   8N    basis set group =>   3
Atom   9C    basis set group =>   1
Atom  10S    basis set group =>   4
Atom  11N    basis set group =>   3
Atom  12C    basis set group =>   1
Atom  13C    basis set group =>   1
Atom  14C    basis set group =>   1
Atom  15C    basis set group =>   1
Atom  16C    basis set group =>   1
Atom  17C    basis set group =>   1
Atom  18O    basis set group =>   2
Atom  19C    basis set group =>   1
Atom  20H    basis set group =>   5
Atom  21H    basis set group =>   5
Atom  22H    basis set group =>   5
Atom  23H    basis set group =>   5
Atom  24H    basis set group =>   5
Atom  25H    basis set group =>   5
Atom  26H    basis set group =>   5
Atom  27H    basis set group =>   5
Atom  28H    basis set group =>   5
Atom  29H    basis set group =>   5
Atom  30H    basis set group =>   5
Atom  31H    basis set group =>   5
Atom  32H    basis set group =>   5
Atom  33H    basis set group =>   5
Atom  34H    basis set group =>   5
Atom  35H    basis set group =>   5
---------------------------------
AUXILIARY/C BASIS SET INFORMATION
---------------------------------
There are 5 groups of distinct atoms

 Group   1 Type C   : 8s6p5d3f1g contracted to 8s6p5d3f1g pattern {11111111/111111/11111/111/1}
 Group   2 Type O   : 8s6p5d3f1g contracted to 8s6p5d3f1g pattern {11111111/111111/11111/111/1}
 Group   3 Type N   : 8s6p5d3f1g contracted to 8s6p5d3f1g pattern {11111111/111111/11111/111/1}
 Group   4 Type S   : 10s8p7d5f2g contracted to 10s8p7d5f2g pattern {1111111111/11111111/1111111/11111/11}
 Group   5 Type H   : 4s3p2d1f contracted to 4s3p2d1f pattern {1111/111/11/1}

Atom   0C    basis set group =>   1
Atom   1C    basis set group =>   1
Atom   2O    basis set group =>   2
Atom   3C    basis set group =>   1
Atom   4O    basis set group =>   2
Atom   5C    basis set group =>   1
Atom   6C    basis set group =>   1
Atom   7C    basis set group =>   1
Atom   8N    basis set group =>   3
Atom   9C    basis set group =>   1
Atom  10S    basis set group =>   4
Atom  11N    basis set group =>   3
Atom  12C    basis set group =>   1
Atom  13C    basis set group =>   1
Atom  14C    basis set group =>   1
Atom  15C    basis set group =>   1
Atom  16C    basis set group =>   1
Atom  17C    basis set group =>   1
Atom  18O    basis set group =>   2
Atom  19C    basis set group =>   1
Atom  20H    basis set group =>   5
Atom  21H    basis set group =>   5
Atom  22H    basis set group =>   5
Atom  23H    basis set group =>   5
Atom  24H    basis set group =>   5
Atom  25H    basis set group =>   5
Atom  26H    basis set group =>   5
Atom  27H    basis set group =>   5
Atom  28H    basis set group =>   5
Atom  29H    basis set group =>   5
Atom  30H    basis set group =>   5
Atom  31H    basis set group =>   5
Atom  32H    basis set group =>   5
Atom  33H    basis set group =>   5
Atom  34H    basis set group =>   5
Atom  35H    basis set group =>   5
------------------------------------------------------------------------------
                           ORCA GTO INTEGRAL CALCULATION
------------------------------------------------------------------------------
------------------------------------------------------------------------------
                   ___                                                        
                  /   \      - P O W E R E D   B Y -                         
                 /     \                                                     
                 |  |  |   _    _      __       _____    __    __             
                 |  |  |  | |  | |    /  \     |  _  \  |  |  /  |          
                  \  \/   | |  | |   /    \    | | | |  |  | /  /          
                 / \  \   | |__| |  /  /\  \   | |_| |  |  |/  /          
                |  |  |   |  __  | /  /__\  \  |    /   |      \           
                |  |  |   | |  | | |   __   |  |    \   |  |\   \          
                \     /   | |  | | |  |  |  |  | |\  \  |  | \   \       
                 \___/    |_|  |_| |__|  |__|  |_| \__\ |__|  \__/        
                                                                              
                      - O R C A' S   B I G   F R I E N D -                    
                                      &                                       
                       - I N T E G R A L  F E E D E R -                       
                                                                              
 v1 FN, 2020, v2 2021                                                         
------------------------------------------------------------------------------


Reading SHARK input file qm_input.vacu.SHARKINP.tmp ... ok
----------------------
SHARK INTEGRAL PACKAGE
----------------------

Number of atoms                             ...     36
Number of basis functions                   ...    828
Number of shells                            ...    298
Maximum angular momentum                    ...      3
Integral batch strategy                     ... SHARK/LIBINT Hybrid
RI-J (if used) integral strategy            ... SPLIT-RIJ (Revised 2003 algorithm where possible)
Printlevel                                  ...      1
Contraction scheme used                     ... SEGMENTED contraction
Coulomb Range Separation                    ... NOT USED
Exchange Range Separation                   ... NOT USED
Finite Nucleus Model                        ... NOT USED
Auxiliary Coulomb fitting basis             ... NOT available
Auxiliary J/K fitting basis                 ... NOT available
Auxiliary Correlation fitting basis         ... AVAILABLE
   # of basis functions in Aux-C            ...   2141
   # of shells in Aux-C                     ...    629
   Maximum angular momentum in Aux-C        ...      4
Auxiliary 'external' fitting basis          ... NOT available
Integral threshold                          ...     2.500000e-11
Primitive cut-off                           ...     2.500000e-12
Primitive pair pre-selection threshold      ...     2.500000e-12

Calculating pre-screening integrals         ... done (  0.7 sec) Dimension = 298
Organizing shell pair data                  ... done (  0.4 sec)
Shell pair information
Total number of shell pairs                 ...     44551
Shell pairs after pre-screening             ...     32278
Total number of primitive shell pairs       ...    234348
Primitive shell pairs kept                  ...     93519
          la=0 lb=0:   6470 shell pairs
          la=1 lb=0:   8987 shell pairs
          la=1 lb=1:   3172 shell pairs
          la=2 lb=0:   5143 shell pairs
          la=2 lb=1:   3513 shell pairs
          la=2 lb=2:    996 shell pairs
          la=3 lb=0:   1863 shell pairs
          la=3 lb=1:   1281 shell pairs
          la=3 lb=2:    714 shell pairs
          la=3 lb=3:    139 shell pairs

Calculating one electron integrals          ... done (  0.4 sec)
Calculating RI/C V-Matrix + Cholesky decomp.... done (  0.4 sec)
Calculating Nuclear repulsion               ... done (  0.0 sec) ENN=   1694.294021965389 Eh

SHARK setup successfully completed in   1.9 seconds

Maximum memory used throughout the entire GTOINT-calculation: 479.0 MB
-------------------------------------------------------------------------------
                                 ORCA SCF
-------------------------------------------------------------------------------

------------
SCF SETTINGS
------------
Hamiltonian:
 Ab initio Hamiltonian  Method          .... Hartree-Fock(GTOs)


General Settings:
 Integral files         IntName         .... qm_input.vacu
 Hartree-Fock type      HFTyp           .... RHF
 Total Charge           Charge          ....    0
 Multiplicity           Mult            ....    1
 Number of Electrons    NEL             ....  154
 Basis Dimension        Dim             ....  828
 Nuclear Repulsion      ENuc            ....   1694.2940219654 Eh

Convergence Acceleration:
 DIIS                   CNVDIIS         .... on
   Start iteration      DIISMaxIt       ....    12
   Startup error        DIISStart       ....  0.200000
   # of expansion vecs  DIISMaxEq       ....     5
   Bias factor          DIISBfac        ....   1.050
   Max. coefficient     DIISMaxC        ....  10.000
 Trust-Rad. Augm. Hess. CNVTRAH         .... auto
   Auto Start mean grad. ratio tolernc. ....  1.125000
   Auto Start start iteration           ....    20
   Auto Start num. interpolation iter.  ....    10
   Max. Number of Micro iterations      ....    16
   Max. Number of Macro iterations      .... Maxiter - #DIIS iter
   Number of Davidson start vectors     ....     2
   Converg. threshold I  (grad. norm)   ....   1.000e-05
   Converg. threshold II (energy diff.) ....   1.000e-08
   Grad. Scal. Fac. for Micro threshold ....   0.100
   Minimum threshold for Micro iter.    ....   0.010
   NR start threshold (gradient norm)   ....   0.001
   Initial trust radius                 ....   0.400
   Minimum AH scaling param. (alpha)    ....   1.000
   Maximum AH scaling param. (alpha)    .... 1000.000
   Orbital update algorithm             .... Taylor
   White noise on init. David. guess    .... on
   Maximum white noise                  ....   0.010
   Quad. conv. algorithm                .... NR
 SOSCF                  CNVSOSCF        .... on
   Start iteration      SOSCFMaxIt      ....   150
   Startup grad/error   SOSCFStart      ....  0.003300
 Level Shifting         CNVShift        .... on
   Level shift para.    LevelShift      ....    0.2500
   Turn off err/grad.   ShiftErr        ....    0.0010
 Zerner damping         CNVZerner       .... off
 Static damping         CNVDamp         .... on
   Fraction old density DampFac         ....    0.7000
   Max. Damping (<1)    DampMax         ....    0.9800
   Min. Damping (>=0)   DampMin         ....    0.0000
   Turn off err/grad.   DampErr         ....    0.1000
 Fernandez-Rico         CNVRico         .... off

SCF Procedure:
 Maximum # iterations   MaxIter         ....   125
 SCF integral mode      SCFMode         .... Direct
   Integral package                     .... SHARK and LIBINT hybrid scheme
 Reset frequency        DirectResetFreq ....    20
 Integral Threshold     Thresh          ....  2.500e-11 Eh
 Primitive CutOff       TCut            ....  2.500e-12 Eh

Convergence Tolerance:
 Convergence Check Mode ConvCheckMode   .... Total+1el-Energy
 Convergence forced     ConvForced      .... 1
 Energy Change          TolE            ....  1.000e-08 Eh
 1-El. energy change                    ....  1.000e-05 Eh
 Orbital Gradient       TolG            ....  1.000e-05
 Orbital Rotation angle TolX            ....  1.000e-05
 DIIS Error             TolErr          ....  5.000e-07


Diagonalization of the overlap matrix:
Smallest eigenvalue                        ... 3.805e-05
Time for diagonalization                   ...    0.156 sec
Threshold for overlap eigenvalues          ... 1.000e-08
Number of eigenvalues below threshold      ... 0
Time for construction of square roots      ...    0.076 sec
Total time needed                          ...    0.235 sec

Time for model grid setup =    1.449 sec

------------------------------
INITIAL GUESS: MODEL POTENTIAL
------------------------------
Loading Hartree-Fock densities                     ... done
Calculating cut-offs                               ... done
Initializing the effective Hamiltonian             ... done
Setting up the integral package (SHARK)            ... done
Starting the Coulomb interaction                   ... done (   4.4 sec)
Reading the grid                                   ... done
Mapping shells                                     ... done
Starting the XC term evaluation                    ... done (   1.5 sec)
Transforming the Hamiltonian                       ... done (   0.1 sec)
Diagonalizing the Hamiltonian                      ... done (   0.1 sec)
Back transforming the eigenvectors                 ... done (   0.0 sec)
Now organizing SCF variables                       ... done
                      ------------------
                      INITIAL GUESS DONE (   7.6 sec)
                      ------------------
--------------
SCF ITERATIONS
--------------
ITER       Energy         Delta-E        Max-DP      RMS-DP      [F,P]     Damp
               ***  Starting incremental Fock matrix formation  ***
  0  -1269.9454533619   0.000000000000 0.04946233  0.00047567  0.3039010 0.7000
  1  -1270.2238132451  -0.278359883212 0.03991520  0.00039391  0.1750391 0.7000
                               ***Turning on DIIS***
  2  -1270.3966041294  -0.172790884287 0.02589241  0.00025898  0.1102992 0.7000
  3  -1272.5654322812  -2.168828151818 0.06325460  0.00052826  0.0832597 0.0000
  4  -1270.7052470258   1.860185255424 0.01261766  0.00011570  0.0075326 0.0000
  5  -1270.7809019072  -0.075654881426 0.00439196  0.00005694  0.0044998 0.0000
                      *** Initiating the SOSCF procedure ***
                           *** Shutting down DIIS ***
                      *** Re-Reading the Fockian *** 
                      *** Removing any level shift *** 
ITER      Energy       Delta-E        Grad      Rot      Max-DP    RMS-DP
  6  -1270.75587301   0.0250288961  0.001866  0.001866  0.001794  0.000028
               *** Restarting incremental Fock matrix formation ***
  7  -1270.77059251  -0.0147194988  0.000884  0.002213  0.001242  0.000016
  8  -1270.77063737  -0.0000448621  0.000483  0.002462  0.001257  0.000017
  9  -1270.77065369  -0.0000163173  0.000190  0.000341  0.000379  0.000005
 10  -1270.77065581  -0.0000021158  0.000051  0.000135  0.000120  0.000001
 11  -1270.77065602  -0.0000002107  0.000020  0.000114  0.000071  0.000001
 12  -1270.77065607  -0.0000000560  0.000008  0.000027  0.000026  0.000000
                  ***Gradient check signals convergence***
              ***Rediagonalizing the Fockian in SOSCF/NRSCF***

               *****************************************************
               *                     SUCCESS                       *
               *           SCF CONVERGED AFTER  13 CYCLES          *
               *****************************************************


----------------
TOTAL SCF ENERGY
----------------

Total Energy       :        -1270.77065607 Eh          -34579.42754 eV

Components:
Nuclear Repulsion  :         1694.29402197 Eh           46104.08422 eV
Electronic Energy  :        -2965.06467804 Eh          -80683.51176 eV
One Electron Energy:        -5109.74574865 Eh         -139043.25064 eV
Two Electron Energy:         2144.68107061 Eh           58359.73888 eV

Virial components:
Potential Energy   :        -2540.33030307 Eh          -69125.90184 eV
Kinetic Energy     :         1269.55964700 Eh           34546.47430 eV
Virial Ratio       :            2.00095388


---------------
SCF CONVERGENCE
---------------

  Last Energy change         ...    1.4579e-09  Tolerance :   1.0000e-08
  Last MAX-Density change    ...    6.0473e-06  Tolerance :   1.0000e-07
  Last RMS-Density change    ...    9.6258e-08  Tolerance :   5.0000e-09
  Last Orbital Gradient      ...    2.1713e-06  Tolerance :   1.0000e-05
  Last Orbital Rotation      ...    6.3059e-06  Tolerance :   1.0000e-05

             **** THE GBW FILE WAS UPDATED (qm_input.vacu.gbw) ****
             **** DENSITY qm_input.vacu.scfp WAS UPDATED ****
             **** ENERGY FILE WAS UPDATED (qm_input.vacu.en.tmp) ****
             **** THE GBW FILE WAS UPDATED (qm_input.vacu.gbw) ****
             **** DENSITY qm_input.vacu.scfp WAS UPDATED ****
----------------
ORBITAL ENERGIES
----------------

  NO   OCC          E(Eh)            E(eV) 
   0   2.0000     -91.880887     -2500.2060 
   1   2.0000     -20.611369      -560.8639 
   2   2.0000     -20.590956      -560.3084 
   3   2.0000     -20.549883      -559.1908 
   4   2.0000     -15.627395      -425.2430 
   5   2.0000     -15.600235      -424.5040 
   6   2.0000     -11.404848      -310.3417 
   7   2.0000     -11.373139      -309.4789 
   8   2.0000     -11.334803      -308.4357 
   9   2.0000     -11.305516      -307.6387 
  10   2.0000     -11.302933      -307.5684 
  11   2.0000     -11.292847      -307.2940 
  12   2.0000     -11.260551      -306.4152 
  13   2.0000     -11.259345      -306.3824 
  14   2.0000     -11.253556      -306.2248 
  15   2.0000     -11.236414      -305.7584 
  16   2.0000     -11.235822      -305.7423 
  17   2.0000     -11.234359      -305.7024 
  18   2.0000     -11.225997      -305.4749 
  19   2.0000     -11.224173      -305.4253 
  20   2.0000      -8.888547      -241.8697 
  21   2.0000      -6.570405      -178.7898 
  22   2.0000      -6.568076      -178.7264 
  23   2.0000      -6.567480      -178.7102 
  24   2.0000      -1.444599       -39.3095 
  25   2.0000      -1.418790       -38.6072 
  26   2.0000      -1.350800       -36.7571 
  27   2.0000      -1.345651       -36.6170 
  28   2.0000      -1.246195       -33.9107 
  29   2.0000      -1.158704       -31.5299 
  30   2.0000      -1.132901       -30.8278 
  31   2.0000      -1.048155       -28.5217 
  32   2.0000      -1.041881       -28.3510 
  33   2.0000      -1.014939       -27.6179 
  34   2.0000      -1.006704       -27.3938 
  35   2.0000      -0.994049       -27.0494 
  36   2.0000      -0.928214       -25.2580 
  37   2.0000      -0.898107       -24.4387 
  38   2.0000      -0.850818       -23.1519 
  39   2.0000      -0.841477       -22.8978 
  40   2.0000      -0.830390       -22.5961 
  41   2.0000      -0.809762       -22.0347 
  42   2.0000      -0.756163       -20.5762 
  43   2.0000      -0.748475       -20.3671 
  44   2.0000      -0.738896       -20.1064 
  45   2.0000      -0.701610       -19.0918 
  46   2.0000      -0.681764       -18.5517 
  47   2.0000      -0.679096       -18.4791 
  48   2.0000      -0.666086       -18.1251 
  49   2.0000      -0.661788       -18.0082 
  50   2.0000      -0.650790       -17.7089 
  51   2.0000      -0.644190       -17.5293 
  52   2.0000      -0.631970       -17.1968 
  53   2.0000      -0.631234       -17.1768 
  54   2.0000      -0.612622       -16.6703 
  55   2.0000      -0.604310       -16.4441 
  56   2.0000      -0.602391       -16.3919 
  57   2.0000      -0.588055       -16.0018 
  58   2.0000      -0.572047       -15.5662 
  59   2.0000      -0.565884       -15.3985 
  60   2.0000      -0.558240       -15.1905 
  61   2.0000      -0.535430       -14.5698 
  62   2.0000      -0.533111       -14.5067 
  63   2.0000      -0.529856       -14.4181 
  64   2.0000      -0.513456       -13.9718 
  65   2.0000      -0.504025       -13.7152 
  66   2.0000      -0.499774       -13.5995 
  67   2.0000      -0.497071       -13.5260 
  68   2.0000      -0.478801       -13.0288 
  69   2.0000      -0.463757       -12.6195 
  70   2.0000      -0.460168       -12.5218 
  71   2.0000      -0.452276       -12.3071 
  72   2.0000      -0.364468        -9.9177 
  73   2.0000      -0.344226        -9.3669 
  74   2.0000      -0.327231        -8.9044 
  75   2.0000      -0.321724        -8.7546 
  76   2.0000      -0.309193        -8.4136 
  77   0.0000       0.078495         2.1360 
  78   0.0000       0.109058         2.9676 
  79   0.0000       0.115196         3.1346 
  80   0.0000       0.131774         3.5858 
  81   0.0000       0.137065         3.7297 
  82   0.0000       0.143515         3.9052 
  83   0.0000       0.144800         3.9402 
  84   0.0000       0.158919         4.3244 
  85   0.0000       0.162429         4.4199 
  86   0.0000       0.166333         4.5262 
  87   0.0000       0.173324         4.7164 
  88   0.0000       0.188942         5.1414 
  89   0.0000       0.190035         5.1711 
  90   0.0000       0.196776         5.3546 
  91   0.0000       0.203416         5.5352 
  92   0.0000       0.208623         5.6769 
  93   0.0000       0.219941         5.9849 
  94   0.0000       0.232449         6.3253 
  95   0.0000       0.237396         6.4599 
  96   0.0000       0.247523         6.7355 
  97   0.0000       0.251104         6.8329 
  98   0.0000       0.255227         6.9451 
  99   0.0000       0.270318         7.3557 
 100   0.0000       0.286912         7.8073 
 101   0.0000       0.294552         8.0152 
 102   0.0000       0.307384         8.3643 
 103   0.0000       0.313149         8.5212 
 104   0.0000       0.317360         8.6358 
 105   0.0000       0.334269         9.0959 
 106   0.0000       0.343476         9.3465 
 107   0.0000       0.346654         9.4329 
 108   0.0000       0.367223         9.9926 
 109   0.0000       0.372036        10.1236 
 110   0.0000       0.374132        10.1807 
 111   0.0000       0.380690        10.3591 
 112   0.0000       0.387074        10.5328 
 113   0.0000       0.392122        10.6702 
 114   0.0000       0.396251        10.7825 
 115   0.0000       0.404554        11.0085 
 116   0.0000       0.417996        11.3742 
 117   0.0000       0.420940        11.4543 
 118   0.0000       0.426598        11.6083 
 119   0.0000       0.436311        11.8726 
 120   0.0000       0.442360        12.0372 
 121   0.0000       0.448719        12.2103 
 122   0.0000       0.452510        12.3134 
 123   0.0000       0.459054        12.4915 
 124   0.0000       0.461559        12.5596 
 125   0.0000       0.466611        12.6971 
 126   0.0000       0.476947        12.9784 
 127   0.0000       0.482742        13.1361 
 128   0.0000       0.491612        13.3774 
 129   0.0000       0.498618        13.5681 
 130   0.0000       0.501778        13.6541 
 131   0.0000       0.507894        13.8205 
 132   0.0000       0.511614        13.9217 
 133   0.0000       0.514495        14.0001 
 134   0.0000       0.527050        14.3418 
 135   0.0000       0.536407        14.5964 
 136   0.0000       0.540483        14.7073 
 137   0.0000       0.542022        14.7492 
 138   0.0000       0.543555        14.7909 
 139   0.0000       0.551959        15.0196 
 140   0.0000       0.555135        15.1060 
 141   0.0000       0.560031        15.2392 
 142   0.0000       0.562681        15.3113 
 143   0.0000       0.567343        15.4382 
 144   0.0000       0.568661        15.4740 
 145   0.0000       0.571465        15.5504 
 146   0.0000       0.575966        15.6728 
 147   0.0000       0.584532        15.9059 
 148   0.0000       0.591511        16.0958 
 149   0.0000       0.592850        16.1323 
 150   0.0000       0.599829        16.3222 
 151   0.0000       0.602488        16.3945 
 152   0.0000       0.605664        16.4810 
 153   0.0000       0.609235        16.5781 
 154   0.0000       0.614720        16.7274 
 155   0.0000       0.620941        16.8967 
 156   0.0000       0.621507        16.9121 
 157   0.0000       0.629398        17.1268 
 158   0.0000       0.634500        17.2656 
 159   0.0000       0.636847        17.3295 
 160   0.0000       0.642210        17.4754 
 161   0.0000       0.648346        17.6424 
 162   0.0000       0.650732        17.7073 
 163   0.0000       0.657671        17.8961 
 164   0.0000       0.662148        18.0180 
 165   0.0000       0.666038        18.1238 
 166   0.0000       0.670480        18.2447 
 167   0.0000       0.681387        18.5415 
 168   0.0000       0.683231        18.5917 
 169   0.0000       0.686097        18.6697 
 170   0.0000       0.691780        18.8243 
 171   0.0000       0.694948        18.9105 
 172   0.0000       0.709380        19.3032 
 173   0.0000       0.712443        19.3866 
 174   0.0000       0.723511        19.6877 
 175   0.0000       0.730950        19.8902 
 176   0.0000       0.740072        20.1384 
 177   0.0000       0.745750        20.2929 
 178   0.0000       0.751274        20.4432 
 179   0.0000       0.756686        20.5905 
 180   0.0000       0.763905        20.7869 
 181   0.0000       0.774700        21.0807 
 182   0.0000       0.785878        21.3848 
 183   0.0000       0.790780        21.5182 
 184   0.0000       0.798193        21.7199 
 185   0.0000       0.802081        21.8257 
 186   0.0000       0.814007        22.1503 
 187   0.0000       0.824028        22.4230 
 188   0.0000       0.824799        22.4439 
 189   0.0000       0.836175        22.7535 
 190   0.0000       0.846362        23.0307 
 191   0.0000       0.857575        23.3358 
 192   0.0000       0.865424        23.5494 
 193   0.0000       0.867898        23.6167 
 194   0.0000       0.873905        23.7802 
 195   0.0000       0.892126        24.2760 
 196   0.0000       0.897824        24.4310 
 197   0.0000       0.902900        24.5692 
 198   0.0000       0.906362        24.6634 
 199   0.0000       0.912440        24.8287 
 200   0.0000       0.922663        25.1069 
 201   0.0000       0.925674        25.1889 
 202   0.0000       0.934212        25.4212 
 203   0.0000       0.939738        25.5716 
 204   0.0000       0.948392        25.8071 
 205   0.0000       0.956288        26.0219 
 206   0.0000       0.960790        26.1444 
 207   0.0000       0.966636        26.3035 
 208   0.0000       0.969762        26.3886 
 209   0.0000       0.977219        26.5915 
 210   0.0000       0.980056        26.6687 
 211   0.0000       0.989039        26.9131 
 212   0.0000       1.002600        27.2821 
 213   0.0000       1.006175        27.3794 
 214   0.0000       1.012143        27.5418 
 215   0.0000       1.017259        27.6810 
 216   0.0000       1.027665        27.9642 
 217   0.0000       1.035605        28.1802 
 218   0.0000       1.039086        28.2750 
 219   0.0000       1.052401        28.6373 
 220   0.0000       1.057903        28.7870 
 221   0.0000       1.062044        28.8997 
 222   0.0000       1.071605        29.1599 
 223   0.0000       1.074669        29.2432 
 224   0.0000       1.082873        29.4665 
 225   0.0000       1.095066        29.7983 
 226   0.0000       1.097938        29.8764 
 227   0.0000       1.100396        29.9433 
 228   0.0000       1.111265        30.2391 
 229   0.0000       1.113759        30.3069 
 230   0.0000       1.127658        30.6851 
 231   0.0000       1.135405        30.8959 
 232   0.0000       1.142670        31.0936 
 233   0.0000       1.148193        31.2439 
 234   0.0000       1.151447        31.3325 
 235   0.0000       1.157356        31.4933 
 236   0.0000       1.168334        31.7920 
 237   0.0000       1.178020        32.0555 
 238   0.0000       1.184372        32.2284 
 239   0.0000       1.190720        32.4011 
 240   0.0000       1.194076        32.4925 
 241   0.0000       1.205864        32.8132 
 242   0.0000       1.209322        32.9073 
 243   0.0000       1.215428        33.0735 
 244   0.0000       1.224739        33.3268 
 245   0.0000       1.226405        33.3722 
 246   0.0000       1.229279        33.4504 
 247   0.0000       1.240206        33.7477 
 248   0.0000       1.243257        33.8307 
 249   0.0000       1.255366        34.1603 
 250   0.0000       1.263270        34.3753 
 251   0.0000       1.268419        34.5154 
 252   0.0000       1.283515        34.9262 
 253   0.0000       1.297255        35.3001 
 254   0.0000       1.299063        35.3493 
 255   0.0000       1.302302        35.4374 
 256   0.0000       1.315070        35.7849 
 257   0.0000       1.316420        35.8216 
 258   0.0000       1.329104        36.1668 
 259   0.0000       1.335086        36.3295 
 260   0.0000       1.347107        36.6567 
 261   0.0000       1.350314        36.7439 
 262   0.0000       1.358768        36.9740 
 263   0.0000       1.366444        37.1828 
 264   0.0000       1.370449        37.2918 
 265   0.0000       1.383483        37.6465 
 266   0.0000       1.387935        37.7676 
 267   0.0000       1.389468        37.8093 
 268   0.0000       1.400127        38.0994 
 269   0.0000       1.417897        38.5829 
 270   0.0000       1.421123        38.6707 
 271   0.0000       1.428240        38.8644 
 272   0.0000       1.436243        39.0822 
 273   0.0000       1.445526        39.3348 
 274   0.0000       1.447770        39.3958 
 275   0.0000       1.455050        39.5939 
 276   0.0000       1.458720        39.6938 
 277   0.0000       1.472591        40.0712 
 278   0.0000       1.486949        40.4619 
 279   0.0000       1.488970        40.5169 
 280   0.0000       1.492670        40.6176 
 281   0.0000       1.501368        40.8543 
 282   0.0000       1.512618        41.1604 
 283   0.0000       1.513912        41.1956 
 284   0.0000       1.519587        41.3501 
 285   0.0000       1.526360        41.5344 
 286   0.0000       1.528772        41.6000 
 287   0.0000       1.534488        41.7556 
 288   0.0000       1.538108        41.8540 
 289   0.0000       1.547820        42.1183 
 290   0.0000       1.557540        42.3828 
 291   0.0000       1.563123        42.5347 
 292   0.0000       1.571921        42.7741 
 293   0.0000       1.584449        43.1150 
 294   0.0000       1.586940        43.1828 
 295   0.0000       1.596206        43.4350 
 296   0.0000       1.599868        43.5346 
 297   0.0000       1.607248        43.7354 
 298   0.0000       1.613136        43.8957 
 299   0.0000       1.630460        44.3671 
 300   0.0000       1.636246        44.5245 
 301   0.0000       1.642099        44.6838 
 302   0.0000       1.651866        44.9496 
 303   0.0000       1.660428        45.1825 
 304   0.0000       1.666595        45.3504 
 305   0.0000       1.680469        45.7279 
 306   0.0000       1.685726        45.8709 
 307   0.0000       1.690663        46.0053 
 308   0.0000       1.694809        46.1181 
 309   0.0000       1.706897        46.4470 
 310   0.0000       1.721391        46.8414 
 311   0.0000       1.730320        47.0844 
 312   0.0000       1.736119        47.2422 
 313   0.0000       1.748488        47.5788 
 314   0.0000       1.757578        47.8261 
 315   0.0000       1.775020        48.3007 
 316   0.0000       1.779956        48.4351 
 317   0.0000       1.789693        48.7000 
 318   0.0000       1.790982        48.7351 
 319   0.0000       1.799734        48.9733 
 320   0.0000       1.805595        49.1327 
 321   0.0000       1.832050        49.8526 
 322   0.0000       1.845759        50.2257 
 323   0.0000       1.848027        50.2874 
 324   0.0000       1.859575        50.6016 
 325   0.0000       1.875260        51.0284 
 326   0.0000       1.890854        51.4528 
 327   0.0000       1.893447        51.5233 
 328   0.0000       1.905059        51.8393 
 329   0.0000       1.919097        52.2213 
 330   0.0000       1.929520        52.5049 
 331   0.0000       1.936789        52.7027 
 332   0.0000       1.944534        52.9135 
 333   0.0000       1.958143        53.2838 
 334   0.0000       1.964941        53.4688 
 335   0.0000       1.967254        53.5317 
 336   0.0000       1.979580        53.8671 
 337   0.0000       1.998299        54.3765 
 338   0.0000       2.009962        54.6938 
 339   0.0000       2.013198        54.7819 
 340   0.0000       2.024155        55.0800 
 341   0.0000       2.047676        55.7201 
 342   0.0000       2.048226        55.7351 
 343   0.0000       2.059405        56.0393 
 344   0.0000       2.070500        56.3412 
 345   0.0000       2.092770        56.9472 
 346   0.0000       2.108257        57.3686 
 347   0.0000       2.134420        58.0805 
 348   0.0000       2.144323        58.3500 
 349   0.0000       2.151695        58.5506 
 350   0.0000       2.167704        58.9862 
 351   0.0000       2.179500        59.3072 
 352   0.0000       2.186566        59.4995 
 353   0.0000       2.205888        60.0253 
 354   0.0000       2.240675        60.9719 
 355   0.0000       2.247102        61.1468 
 356   0.0000       2.284830        62.1734 
 357   0.0000       2.287116        62.2356 
 358   0.0000       2.296400        62.4882 
 359   0.0000       2.305092        62.7248 
 360   0.0000       2.321187        63.1627 
 361   0.0000       2.334458        63.5238 
 362   0.0000       2.346254        63.8448 
 363   0.0000       2.360899        64.2433 
 364   0.0000       2.367733        64.4293 
 365   0.0000       2.378977        64.7352 
 366   0.0000       2.384746        64.8922 
 367   0.0000       2.388496        64.9943 
 368   0.0000       2.400897        65.3317 
 369   0.0000       2.409861        65.5757 
 370   0.0000       2.422862        65.9294 
 371   0.0000       2.444601        66.5210 
 372   0.0000       2.461160        66.9716 
 373   0.0000       2.474589        67.3370 
 374   0.0000       2.492157        67.8150 
 375   0.0000       2.511215        68.3336 
 376   0.0000       2.515959        68.4627 
 377   0.0000       2.527408        68.7743 
 378   0.0000       2.539119        69.0929 
 379   0.0000       2.555990        69.5520 
 380   0.0000       2.564657        69.7879 
 381   0.0000       2.591629        70.5218 
 382   0.0000       2.596238        70.6472 
 383   0.0000       2.612223        71.0822 
 384   0.0000       2.619981        71.2933 
 385   0.0000       2.630642        71.5834 
 386   0.0000       2.655538        72.2609 
 387   0.0000       2.662593        72.4528 
 388   0.0000       2.675692        72.8093 
 389   0.0000       2.683132        73.0117 
 390   0.0000       2.689834        73.1941 
 391   0.0000       2.695013        73.3350 
 392   0.0000       2.701420        73.5094 
 393   0.0000       2.713842        73.8474 
 394   0.0000       2.729731        74.2798 
 395   0.0000       2.733933        74.3941 
 396   0.0000       2.757563        75.0371 
 397   0.0000       2.763389        75.1956 
 398   0.0000       2.768798        75.3428 
 399   0.0000       2.773521        75.4713 
 400   0.0000       2.779985        75.6473 
 401   0.0000       2.788754        75.8859 
 402   0.0000       2.796630        76.1002 
 403   0.0000       2.810742        76.4842 
 404   0.0000       2.826482        76.9125 
 405   0.0000       2.841965        77.3338 
 406   0.0000       2.848236        77.5044 
 407   0.0000       2.850552        77.5675 
 408   0.0000       2.856089        77.7181 
 409   0.0000       2.858874        77.7939 
 410   0.0000       2.872947        78.1769 
 411   0.0000       2.883714        78.4699 
 412   0.0000       2.891778        78.6893 
 413   0.0000       2.899799        78.9076 
 414   0.0000       2.913254        79.2737 
 415   0.0000       2.914560        79.3092 
 416   0.0000       2.930049        79.7307 
 417   0.0000       2.940814        80.0236 
 418   0.0000       2.957265        80.4713 
 419   0.0000       2.960088        80.5481 
 420   0.0000       2.963630        80.6445 
 421   0.0000       2.967030        80.7370 
 422   0.0000       2.982497        81.1579 
 423   0.0000       2.985967        81.2523 
 424   0.0000       2.998834        81.6024 
 425   0.0000       3.003735        81.7358 
 426   0.0000       3.020598        82.1947 
 427   0.0000       3.034683        82.5779 
 428   0.0000       3.041122        82.7531 
 429   0.0000       3.046398        82.8967 
 430   0.0000       3.051012        83.0222 
 431   0.0000       3.058175        83.2172 
 432   0.0000       3.060848        83.2899 
 433   0.0000       3.080303        83.8193 
 434   0.0000       3.085300        83.9553 
 435   0.0000       3.090760        84.1039 
 436   0.0000       3.094728        84.2118 
 437   0.0000       3.105465        84.5040 
 438   0.0000       3.111083        84.6569 
 439   0.0000       3.113522        84.7232 
 440   0.0000       3.122490        84.9673 
 441   0.0000       3.130329        85.1806 
 442   0.0000       3.138881        85.4133 
 443   0.0000       3.148235        85.6678 
 444   0.0000       3.154978        85.8513 
 445   0.0000       3.166354        86.1609 
 446   0.0000       3.173080        86.3439 
 447   0.0000       3.181692        86.5782 
 448   0.0000       3.185647        86.6859 
 449   0.0000       3.200028        87.0772 
 450   0.0000       3.203319        87.1667 
 451   0.0000       3.207779        87.2881 
 452   0.0000       3.217650        87.5567 
 453   0.0000       3.222775        87.6962 
 454   0.0000       3.224372        87.7396 
 455   0.0000       3.235248        88.0356 
 456   0.0000       3.241948        88.2179 
 457   0.0000       3.246532        88.3426 
 458   0.0000       3.262997        88.7907 
 459   0.0000       3.268963        88.9530 
 460   0.0000       3.277260        89.1788 
 461   0.0000       3.279172        89.2308 
 462   0.0000       3.285779        89.4106 
 463   0.0000       3.291985        89.5795 
 464   0.0000       3.305192        89.9388 
 465   0.0000       3.306766        89.9817 
 466   0.0000       3.311531        90.1113 
 467   0.0000       3.316132        90.2365 
 468   0.0000       3.325356        90.4875 
 469   0.0000       3.326203        90.5106 
 470   0.0000       3.336131        90.7807 
 471   0.0000       3.345402        91.0330 
 472   0.0000       3.351521        91.1995 
 473   0.0000       3.359428        91.4147 
 474   0.0000       3.360498        91.4438 
 475   0.0000       3.364408        91.5502 
 476   0.0000       3.378161        91.9244 
 477   0.0000       3.382323        92.0377 
 478   0.0000       3.386752        92.1582 
 479   0.0000       3.395262        92.3898 
 480   0.0000       3.401530        92.5603 
 481   0.0000       3.404462        92.6401 
 482   0.0000       3.409498        92.7771 
 483   0.0000       3.413376        92.8827 
 484   0.0000       3.425815        93.2212 
 485   0.0000       3.429316        93.3164 
 486   0.0000       3.430487        93.3483 
 487   0.0000       3.442623        93.6785 
 488   0.0000       3.450181        93.8842 
 489   0.0000       3.456654        94.0603 
 490   0.0000       3.457365        94.0797 
 491   0.0000       3.460473        94.1643 
 492   0.0000       3.466699        94.3337 
 493   0.0000       3.470674        94.4418 
 494   0.0000       3.484105        94.8073 
 495   0.0000       3.487399        94.8969 
 496   0.0000       3.489615        94.9573 
 497   0.0000       3.505938        95.4014 
 498   0.0000       3.518029        95.7304 
 499   0.0000       3.520195        95.7894 
 500   0.0000       3.521341        95.8206 
 501   0.0000       3.523487        95.8790 
 502   0.0000       3.527235        95.9809 
 503   0.0000       3.537249        96.2534 
 504   0.0000       3.541338        96.3647 
 505   0.0000       3.560864        96.8960 
 506   0.0000       3.561848        96.9228 
 507   0.0000       3.575767        97.3016 
 508   0.0000       3.580558        97.4319 
 509   0.0000       3.585665        97.5709 
 510   0.0000       3.599555        97.9489 
 511   0.0000       3.601886        98.0123 
 512   0.0000       3.607037        98.1525 
 513   0.0000       3.621897        98.5568 
 514   0.0000       3.629304        98.7584 
 515   0.0000       3.632229        98.8380 
 516   0.0000       3.639893        99.0465 
 517   0.0000       3.641112        99.0797 
 518   0.0000       3.650257        99.3285 
 519   0.0000       3.654907        99.4551 
 520   0.0000       3.663397        99.6861 
 521   0.0000       3.667086        99.7865 
 522   0.0000       3.674537        99.9892 
 523   0.0000       3.675319       100.0105 
 524   0.0000       3.683360       100.2293 
 525   0.0000       3.694525       100.5331 
 526   0.0000       3.695137       100.5498 
 527   0.0000       3.702460       100.7491 
 528   0.0000       3.705206       100.8238 
 529   0.0000       3.716339       101.1267 
 530   0.0000       3.729715       101.4907 
 531   0.0000       3.731341       101.5349 
 532   0.0000       3.734580       101.6231 
 533   0.0000       3.742138       101.8287 
 534   0.0000       3.747844       101.9840 
 535   0.0000       3.752141       102.1009 
 536   0.0000       3.758271       102.2677 
 537   0.0000       3.763457       102.4089 
 538   0.0000       3.765960       102.4770 
 539   0.0000       3.777135       102.7811 
 540   0.0000       3.781350       102.8958 
 541   0.0000       3.782111       102.9165 
 542   0.0000       3.795468       103.2799 
 543   0.0000       3.804252       103.5189 
 544   0.0000       3.817736       103.8859 
 545   0.0000       3.825880       104.1075 
 546   0.0000       3.828509       104.1790 
 547   0.0000       3.833778       104.3224 
 548   0.0000       3.837283       104.4178 
 549   0.0000       3.855264       104.9071 
 550   0.0000       3.859271       105.0161 
 551   0.0000       3.865515       105.1860 
 552   0.0000       3.876591       105.4874 
 553   0.0000       3.886974       105.7699 
 554   0.0000       3.888324       105.8067 
 555   0.0000       3.896822       106.0379 
 556   0.0000       3.901413       106.1629 
 557   0.0000       3.912165       106.4554 
 558   0.0000       3.929351       106.9231 
 559   0.0000       3.936323       107.1128 
 560   0.0000       3.937160       107.1356 
 561   0.0000       3.957779       107.6966 
 562   0.0000       3.966232       107.9267 
 563   0.0000       3.971459       108.0689 
 564   0.0000       3.976054       108.1939 
 565   0.0000       3.982056       108.3573 
 566   0.0000       3.993563       108.6704 
 567   0.0000       4.006712       109.0282 
 568   0.0000       4.011291       109.1528 
 569   0.0000       4.022606       109.4607 
 570   0.0000       4.036791       109.8467 
 571   0.0000       4.041832       109.9838 
 572   0.0000       4.049960       110.2050 
 573   0.0000       4.063673       110.5782 
 574   0.0000       4.073471       110.8448 
 575   0.0000       4.079698       111.0142 
 576   0.0000       4.093353       111.3858 
 577   0.0000       4.097184       111.4900 
 578   0.0000       4.104502       111.6892 
 579   0.0000       4.117787       112.0507 
 580   0.0000       4.124396       112.2305 
 581   0.0000       4.127503       112.3151 
 582   0.0000       4.136216       112.5522 
 583   0.0000       4.138023       112.6013 
 584   0.0000       4.147534       112.8601 
 585   0.0000       4.150078       112.9294 
 586   0.0000       4.155628       113.0804 
 587   0.0000       4.160994       113.2264 
 588   0.0000       4.168195       113.4223 
 589   0.0000       4.181340       113.7801 
 590   0.0000       4.192709       114.0894 
 591   0.0000       4.194192       114.1298 
 592   0.0000       4.199465       114.2732 
 593   0.0000       4.202452       114.3545 
 594   0.0000       4.210406       114.5710 
 595   0.0000       4.219869       114.8285 
 596   0.0000       4.227998       115.0497 
 597   0.0000       4.243102       115.4607 
 598   0.0000       4.248560       115.6092 
 599   0.0000       4.253339       115.7392 
 600   0.0000       4.261854       115.9709 
 601   0.0000       4.270065       116.1944 
 602   0.0000       4.276117       116.3591 
 603   0.0000       4.285242       116.6074 
 604   0.0000       4.290679       116.7553 
 605   0.0000       4.292112       116.7943 
 606   0.0000       4.299062       116.9834 
 607   0.0000       4.312752       117.3560 
 608   0.0000       4.316371       117.4544 
 609   0.0000       4.326531       117.7309 
 610   0.0000       4.333129       117.9104 
 611   0.0000       4.342882       118.1758 
 612   0.0000       4.345231       118.2397 
 613   0.0000       4.357599       118.5763 
 614   0.0000       4.363829       118.7458 
 615   0.0000       4.371187       118.9461 
 616   0.0000       4.382374       119.2505 
 617   0.0000       4.386838       119.3719 
 618   0.0000       4.396186       119.6263 
 619   0.0000       4.406828       119.9159 
 620   0.0000       4.415738       120.1583 
 621   0.0000       4.435173       120.6872 
 622   0.0000       4.445302       120.9628 
 623   0.0000       4.451585       121.1338 
 624   0.0000       4.461467       121.4027 
 625   0.0000       4.468253       121.5873 
 626   0.0000       4.468485       121.5937 
 627   0.0000       4.484126       122.0193 
 628   0.0000       4.494233       122.2943 
 629   0.0000       4.499667       122.4422 
 630   0.0000       4.506674       122.6328 
 631   0.0000       4.515250       122.8662 
 632   0.0000       4.520437       123.0074 
 633   0.0000       4.529598       123.2566 
 634   0.0000       4.539220       123.5184 
 635   0.0000       4.542222       123.6001 
 636   0.0000       4.549971       123.8110 
 637   0.0000       4.553297       123.9015 
 638   0.0000       4.558503       124.0432 
 639   0.0000       4.570063       124.3577 
 640   0.0000       4.578453       124.5860 
 641   0.0000       4.589290       124.8809 
 642   0.0000       4.598693       125.1368 
 643   0.0000       4.600839       125.1952 
 644   0.0000       4.613675       125.5445 
 645   0.0000       4.621697       125.7628 
 646   0.0000       4.631660       126.0339 
 647   0.0000       4.640188       126.2659 
 648   0.0000       4.645081       126.3991 
 649   0.0000       4.653278       126.6221 
 650   0.0000       4.672073       127.1336 
 651   0.0000       4.679262       127.3292 
 652   0.0000       4.691402       127.6595 
 653   0.0000       4.704375       128.0125 
 654   0.0000       4.709483       128.1515 
 655   0.0000       4.726004       128.6011 
 656   0.0000       4.739171       128.9594 
 657   0.0000       4.741206       129.0148 
 658   0.0000       4.759683       129.5176 
 659   0.0000       4.773856       129.9032 
 660   0.0000       4.782589       130.1409 
 661   0.0000       4.791664       130.3878 
 662   0.0000       4.798078       130.5624 
 663   0.0000       4.806562       130.7932 
 664   0.0000       4.823226       131.2467 
 665   0.0000       4.830553       131.4460 
 666   0.0000       4.847335       131.9027 
 667   0.0000       4.872223       132.5799 
 668   0.0000       4.889896       133.0608 
 669   0.0000       4.902037       133.3912 
 670   0.0000       4.920186       133.8851 
 671   0.0000       4.937317       134.3512 
 672   0.0000       4.959641       134.9587 
 673   0.0000       4.963775       135.0712 
 674   0.0000       4.980554       135.5278 
 675   0.0000       4.990882       135.8088 
 676   0.0000       5.000769       136.0778 
 677   0.0000       5.028156       136.8231 
 678   0.0000       5.039936       137.1436 
 679   0.0000       5.049785       137.4116 
 680   0.0000       5.061874       137.7406 
 681   0.0000       5.067359       137.8899 
 682   0.0000       5.079631       138.2238 
 683   0.0000       5.095260       138.6491 
 684   0.0000       5.109722       139.0426 
 685   0.0000       5.119303       139.3033 
 686   0.0000       5.127304       139.5210 
 687   0.0000       5.143449       139.9604 
 688   0.0000       5.150514       140.1526 
 689   0.0000       5.163198       140.4978 
 690   0.0000       5.176452       140.8584 
 691   0.0000       5.192262       141.2886 
 692   0.0000       5.199879       141.4959 
 693   0.0000       5.213015       141.8534 
 694   0.0000       5.230465       142.3282 
 695   0.0000       5.257091       143.0527 
 696   0.0000       5.257555       143.0654 
 697   0.0000       5.261735       143.1791 
 698   0.0000       5.271671       143.4495 
 699   0.0000       5.282777       143.7517 
 700   0.0000       5.292456       144.0150 
 701   0.0000       5.296877       144.1354 
 702   0.0000       5.311653       144.5374 
 703   0.0000       5.325012       144.9009 
 704   0.0000       5.336077       145.2020 
 705   0.0000       5.346353       145.4816 
 706   0.0000       5.353070       145.6644 
 707   0.0000       5.383132       146.4825 
 708   0.0000       5.394784       146.7995 
 709   0.0000       5.400725       146.9612 
 710   0.0000       5.421772       147.5339 
 711   0.0000       5.427117       147.6794 
 712   0.0000       5.437938       147.9738 
 713   0.0000       5.451879       148.3532 
 714   0.0000       5.472304       148.9090 
 715   0.0000       5.494215       149.5052 
 716   0.0000       5.507969       149.8795 
 717   0.0000       5.519923       150.2047 
 718   0.0000       5.530276       150.4865 
 719   0.0000       5.532394       150.5441 
 720   0.0000       5.552651       151.0953 
 721   0.0000       5.562430       151.3614 
 722   0.0000       5.570765       151.5882 
 723   0.0000       5.579334       151.8214 
 724   0.0000       5.596684       152.2935 
 725   0.0000       5.606330       152.5560 
 726   0.0000       5.619128       152.9042 
 727   0.0000       5.633220       153.2877 
 728   0.0000       5.649704       153.7363 
 729   0.0000       5.671081       154.3180 
 730   0.0000       5.677439       154.4910 
 731   0.0000       5.684145       154.6734 
 732   0.0000       5.699351       155.0872 
 733   0.0000       5.713754       155.4792 
 734   0.0000       5.731981       155.9751 
 735   0.0000       5.744601       156.3185 
 736   0.0000       5.763508       156.8330 
 737   0.0000       5.769249       156.9892 
 738   0.0000       5.777491       157.2135 
 739   0.0000       5.800110       157.8290 
 740   0.0000       5.811379       158.1357 
 741   0.0000       5.817950       158.3145 
 742   0.0000       5.825548       158.5212 
 743   0.0000       5.836198       158.8110 
 744   0.0000       5.854371       159.3055 
 745   0.0000       5.865235       159.6012 
 746   0.0000       5.899586       160.5359 
 747   0.0000       5.918067       161.0388 
 748   0.0000       5.924214       161.2061 
 749   0.0000       5.933555       161.4602 
 750   0.0000       5.968334       162.4066 
 751   0.0000       5.996146       163.1634 
 752   0.0000       5.997503       163.2004 
 753   0.0000       6.006171       163.4362 
 754   0.0000       6.008361       163.4958 
 755   0.0000       6.028697       164.0492 
 756   0.0000       6.052518       164.6974 
 757   0.0000       6.069040       165.1470 
 758   0.0000       6.091824       165.7670 
 759   0.0000       6.116897       166.4492 
 760   0.0000       6.139701       167.0698 
 761   0.0000       6.149902       167.3473 
 762   0.0000       6.166729       167.8052 
 763   0.0000       6.192132       168.4965 
 764   0.0000       6.199037       168.6844 
 765   0.0000       6.212805       169.0590 
 766   0.0000       6.277309       170.8143 
 767   0.0000       6.332288       172.3103 
 768   0.0000       6.373707       173.4374 
 769   0.0000       6.387526       173.8134 
 770   0.0000       6.392225       173.9413 
 771   0.0000       6.404678       174.2801 
 772   0.0000       6.430344       174.9786 
 773   0.0000       6.434896       175.1024 
 774   0.0000       6.454585       175.6382 
 775   0.0000       6.469042       176.0316 
 776   0.0000       6.486993       176.5200 
 777   0.0000       6.556787       178.4192 
 778   0.0000       6.598986       179.5675 
 779   0.0000       6.649968       180.9548 
 780   0.0000       6.666434       181.4029 
 781   0.0000       6.693612       182.1424 
 782   0.0000       6.709226       182.5673 
 783   0.0000       6.767943       184.1651 
 784   0.0000       6.798809       185.0050 
 785   0.0000       6.841340       186.1623 
 786   0.0000       6.895771       187.6435 
 787   0.0000       6.933949       188.6823 
 788   0.0000       6.942335       188.9105 
 789   0.0000       7.019999       191.0239 
 790   0.0000       7.083328       192.7471 
 791   0.0000       7.109875       193.4695 
 792   0.0000       7.124987       193.8807 
 793   0.0000       7.172816       195.1823 
 794   0.0000       7.186712       195.5604 
 795   0.0000       7.235165       196.8788 
 796   0.0000       7.236356       196.9113 
 797   0.0000       7.294007       198.4800 
 798   0.0000       7.328739       199.4251 
 799   0.0000       7.338671       199.6954 
 800   0.0000       7.391969       201.1457 
 801   0.0000       7.452676       202.7976 
 802   0.0000       7.562533       205.7870 
 803   0.0000       7.574797       206.1207 
 804   0.0000       7.658939       208.4103 
 805   0.0000       7.765864       211.3199 
 806   0.0000       7.801063       212.2777 
 807   0.0000       7.963290       216.6921 
 808   0.0000       7.974504       216.9973 
 809   0.0000       9.383514       255.3384 
 810   0.0000       9.853749       268.1341 
 811   0.0000      11.094709       301.9024 
 812   0.0000      11.405593       310.3620 
 813   0.0000      11.640476       316.7534 
 814   0.0000      12.234644       332.9216 
 815   0.0000      12.692678       345.3853 
 816   0.0000      13.061439       355.4198 
 817   0.0000      13.244092       360.3901 
 818   0.0000      13.291704       361.6857 
 819   0.0000      13.569976       369.2578 
 820   0.0000      13.726865       373.5270 
 821   0.0000      13.936930       379.2431 
 822   0.0000      14.097655       383.6167 
 823   0.0000      14.141030       384.7970 
 824   0.0000      14.581775       396.7903 
 825   0.0000      14.759110       401.6158 
 826   0.0000      15.005842       408.3297 
 827   0.0000      15.967118       434.4874 

                    ********************************
                    * MULLIKEN POPULATION ANALYSIS *
                    ********************************

-----------------------
MULLIKEN ATOMIC CHARGES
-----------------------
   0 C :   -0.296930
   1 C :    0.030897
   2 O :   -0.356087
   3 C :    0.485567
   4 O :   -0.447543
   5 C :   -0.269584
   6 C :    0.200745
   7 C :   -0.304267
   8 N :   -0.128775
   9 C :    0.199154
  10 S :   -0.447169
  11 N :   -0.182280
  12 C :    0.038400
  13 C :    0.137326
  14 C :   -0.244809
  15 C :   -0.116334
  16 C :   -0.222464
  17 C :    0.305136
  18 O :   -0.347045
  19 C :   -0.312597
  20 H :    0.095806
  21 H :    0.121119
  22 H :    0.095740
  23 H :    0.113184
  24 H :    0.116313
  25 H :    0.136752
  26 H :    0.137273
  27 H :    0.094427
  28 H :    0.200188
  29 H :    0.189113
  30 H :    0.156811
  31 H :    0.143254
  32 H :    0.155970
  33 H :    0.155366
  34 H :    0.238124
  35 H :    0.129219
Sum of atomic charges:    0.0000000

--------------------------------
MULLIKEN REDUCED ORBITAL CHARGES
--------------------------------
  0 C s       :     3.268349  s :     3.268349
      pz      :     0.950347  p :     2.952488
      px      :     0.994008
      py      :     1.008133
      dz2     :     0.022015  d :     0.071709
      dxz     :     0.009854
      dyz     :     0.016226
      dx2y2   :     0.015133
      dxy     :     0.008480
      f0      :     0.000497  f :     0.004384
      f+1     :     0.000851
      f-1     :     0.001219
      f+2     :     0.000379
      f-2     :     0.000485
      f+3     :     0.000891
      f-3     :     0.000063
  1 C s       :     3.166935  s :     3.166935
      pz      :     0.845473  p :     2.647697
      px      :     0.841287
      py      :     0.960936
      dz2     :     0.028675  d :     0.143557
      dxz     :     0.029699
      dyz     :     0.034039
      dx2y2   :     0.018047
      dxy     :     0.033098
      f0      :     0.001223  f :     0.010914
      f+1     :     0.001896
      f-1     :     0.001267
      f+2     :     0.001679
      f-2     :     0.002402
      f+3     :     0.001363
      f-3     :     0.001086
  2 O s       :     3.727163  s :     3.727163
      pz      :     1.665122  p :     4.593783
      px      :     1.575661
      py      :     1.353000
      dz2     :     0.004320  d :     0.033020
      dxz     :     0.006852
      dyz     :     0.007511
      dx2y2   :     0.008950
      dxy     :     0.005387
      f0      :     0.000197  f :     0.002122
      f+1     :     0.000145
      f-1     :     0.000235
      f+2     :     0.000283
      f-2     :     0.000359
      f+3     :     0.000464
      f-3     :     0.000439
  3 C s       :     3.052536  s :     3.052536
      pz      :     0.736688  p :     2.141930
      px      :     0.734648
      py      :     0.670594
      dz2     :     0.067581  d :     0.294451
[...]
 15 C s       :     2.695892  s :     2.695892
      pz      :     0.912670  p :     2.791339
      px      :     0.935338
      py      :     0.943330
      dz2     :     0.078445  d :     0.434828
      dxz     :     0.078618
      dyz     :     0.089069
      dx2y2   :     0.112796
      dxy     :     0.075900
      f0      :     0.006992  f :     0.044641
      f+1     :     0.005748
      f-1     :     0.004518
      f+2     :     0.005899
      f-2     :     0.007505
      f+3     :     0.007211
      f-3     :     0.006767
 16 C s       :     2.697490  s :     2.697490
      pz      :     0.925300  p :     2.842366
      px      :     0.945328
      py      :     0.971739
      dz2     :     0.048352  d :     0.394868
      dxz     :     0.066624
      dyz     :     0.080126
      dx2y2   :     0.103110
      dxy     :     0.096656
      f0      :     0.003522  f :     0.042337
      f+1     :     0.002849
      f-1     :     0.007614
      f+2     :     0.004868
      f-2     :     0.006603
      f+3     :     0.009950
      f-3     :     0.006932
 17 C s       :     2.693360  s :     2.693360
      pz      :     0.923087  p :     2.690075
      px      :     0.857530
      py      :     0.909458
      dz2     :     0.118865  d :     0.727398
      dxz     :     0.130482
      dyz     :     0.118046
      dx2y2   :     0.198319
      dxy     :     0.161687
      f0      :     0.013291  f :     0.107548
      f+1     :     0.010426
      f-1     :     0.010386
      f+2     :     0.011689
      f-2     :     0.016410
      f+3     :     0.029618
      f-3     :     0.015728
 18 O s       :     3.164839  s :     3.164839
      pz      :     1.508287  p :     4.336500
      px      :     1.420244
      py      :     1.407968
      dz2     :     0.009319  d :     0.080265
      dxz     :     0.012949
      dyz     :     0.018435
      dx2y2   :     0.020514
      dxy     :     0.019048
      f0      :     0.000531  f :     0.005328
      f+1     :     0.000638
      f-1     :     0.000609
      f+2     :     0.000786
      f-2     :     0.000826
      f+3     :     0.001090
      f-3     :     0.000847
 19 C s       :     2.692034  s :     2.692034
      pz      :     0.945081  p :     2.859366
      px      :     0.961046
      py      :     0.953239
      dz2     :     0.067217  d :     0.396977
      dxz     :     0.077725
      dyz     :     0.080210
      dx2y2   :     0.099774
      dxy     :     0.072050
      f0      :     0.006101  f :     0.042003
      f+1     :     0.006018
      f-1     :     0.003784
      f+2     :     0.006261
      f-2     :     0.006706
      f+3     :     0.006860
      f-3     :     0.006273
 20 H s       :     0.848837  s :     0.848837
      pz      :     0.037116  p :     0.151887
      px      :     0.074042
      py      :     0.040730
      dz2     :     0.002696  d :     0.027927
      dxz     :     0.008554
      dyz     :     0.000535
      dx2y2   :     0.006825
      dxy     :     0.009317
 21 H s       :     0.844323  s :     0.844323
      pz      :     0.061294  p :     0.150286
      px      :     0.039041
      py      :     0.049951
      dz2     :     0.008656  d :     0.027177
      dxz     :     0.006002
      dyz     :     0.006934
      dx2y2   :     0.003256
      dxy     :     0.002329
 22 H s       :     0.844329  s :     0.844329
      pz      :     0.040553  p :     0.154305
      px      :     0.044578
      py      :     0.069174
      dz2     :     0.002666  d :     0.027959
      dxz     :     0.001342
      dyz     :     0.008317
      dx2y2   :     0.008398
      dxy     :     0.007236
 23 H s       :     0.848452  s :     0.848452
      pz      :     0.039382  p :     0.151878
      px      :     0.056258
      py      :     0.056238
      dz2     :     0.002940  d :     0.027678
      dxz     :     0.005030
      dyz     :     0.004960
      dx2y2   :     0.007009
      dxy     :     0.007740
 24 H s       :     0.853609  s :     0.853609
      pz      :     0.041693  p :     0.145352
      px      :     0.043700
      py      :     0.059959
      dz2     :     0.003840  d :     0.026911
      dxz     :     0.004546
      dyz     :     0.005761
      dx2y2   :     0.006529
      dxy     :     0.006234
 25 H s       :     0.826469  s :     0.826469
      pz      :     0.065461  p :     0.156823
      px      :     0.042008
      py      :     0.049354
      dz2     :     0.007415  d :     0.028528
      dxz     :     0.006935
      dyz     :     0.007430
      dx2y2   :     0.003852
      dxy     :     0.002896
 26 H s       :     0.824537  s :     0.824537
      pz      :     0.059043  p :     0.154164
      px      :     0.057023
      py      :     0.038098
      dz2     :     0.007760  d :     0.028131
      dxz     :     0.006996
      dyz     :     0.005308
      dx2y2   :     0.004223
      dxy     :     0.003845
 27 H s       :     0.830972  s :     0.830972
      pz      :     0.049408  p :     0.156700
      px      :     0.065894
      py      :     0.041398
      dz2     :     0.004529  d :     0.028879
      dxz     :     0.007724
      dyz     :     0.002845
      dx2y2   :     0.006865
      dxy     :     0.006917
 28 H s       :     0.740244  s :     0.740244
      pz      :     0.110812  p :     0.250980
      px      :     0.087767
      py      :     0.052401
      dz2     :     0.020138  d :     0.060871
      dxz     :     0.015989
      dyz     :     0.014182
      dx2y2   :     0.004728
      dxy     :     0.005833
 29 H s       :     0.744296  s :     0.744296
      pz      :     0.051233  p :     0.248938
      px      :     0.079849
      py      :     0.117855
      dz2     :     0.006018  d :     0.061116
      dxz     :     0.000999
      dyz     :     0.017040
      dx2y2   :     0.015346
      dxy     :     0.021713
 30 H s       :     0.822933  s :     0.822933
      pz      :     0.036317  p :     0.150287
      px      :     0.071696
      py      :     0.042274
      dz2     :     0.003245  d :     0.028825
      dxz     :     0.007188
      dyz     :     0.002305
      dx2y2   :     0.008568
      dxy     :     0.007519
 31 H s       :     0.844782  s :     0.844782
      pz      :     0.042785  p :     0.158439
      px      :     0.061480
      py      :     0.054175
      dz2     :     0.003068  d :     0.027771
      dxz     :     0.004678
      dyz     :     0.004343
      dx2y2   :     0.008339
      dxy     :     0.007342
 32 H s       :     0.841035  s :     0.841035
      pz      :     0.044575  p :     0.149334
      px      :     0.035103
      py      :     0.069657
      dz2     :     0.004367  d :     0.026580
      dxz     :     0.001817
      dyz     :     0.007680
      dx2y2   :     0.006159
      dxy     :     0.006558
 33 H s       :     0.840512  s :     0.840512
      pz      :     0.063103  p :     0.156440
      px      :     0.055786
      py      :     0.037551
      dz2     :     0.007081  d :     0.027697
      dxz     :     0.006855
      dyz     :     0.005056
      dx2y2   :     0.004381
      dxy     :     0.004325
 34 H s       :     0.707171  s :     0.707171
      pz      :     0.141260  p :     0.343771
      px      :     0.076822
      py      :     0.125689
      dz2     :     0.028231  d :     0.097468
      dxz     :     0.015408
      dyz     :     0.024323
      dx2y2   :     0.015446
      dxy     :     0.014059
 35 H s       :     0.846242  s :     0.846242
      pz      :     0.053091  p :     0.164703
      px      :     0.040005
      py      :     0.071607
      dz2     :     0.005089  d :     0.028251
      dxz     :     0.002404
      dyz     :     0.007729
      dx2y2   :     0.006172
      dxy     :     0.006857


                      *****************************
                      * MAYER POPULATION ANALYSIS *
                      *****************************

  NA   - Mulliken gross atomic population
  ZA   - Total nuclear charge
  QA   - Mulliken gross atomic charge
  VA   - Mayer's total valence
  BVA  - Mayer's bonded valence
  FA   - Mayer's free valence

  ATOM       NA         ZA         QA         VA         BVA        FA
  0 C      6.2969     6.0000    -0.2969     3.8671     3.8671     0.0000
  1 C      5.9691     6.0000     0.0309     3.8144     3.8144     0.0000
  2 O      8.3561     8.0000    -0.3561     2.0742     2.0742    -0.0000
  3 C      5.5144     6.0000     0.4856     4.1968     4.1968     0.0000
  4 O      8.4475     8.0000    -0.4475     2.0664     2.0664    -0.0000
  5 C      6.2696     6.0000    -0.2696     3.6578     3.6578     0.0000
  6 C      5.7993     6.0000     0.2007     3.8251     3.8251     0.0000
  7 C      6.3043     6.0000    -0.3043     3.8631     3.8631    -0.0000
  8 N      7.1288     7.0000    -0.1288     3.2735     3.2735    -0.0000
  9 C      5.8008     6.0000     0.1992     4.1919     4.1919     0.0000
 10 S     16.4472    16.0000    -0.4472     1.7844     1.7844    -0.0000
 11 N      7.1823     7.0000    -0.1823     3.2281     3.2281     0.0000
 12 C      5.9616     6.0000     0.0384     3.9828     3.9828    -0.0000
 13 C      5.8627     6.0000     0.1373     3.6725     3.6725    -0.0000
 14 C      6.2448     6.0000    -0.2448     3.8779     3.8779    -0.0000
 15 C      6.1163     6.0000    -0.1163     3.7954     3.7954     0.0000
 16 C      6.2225     6.0000    -0.2225     3.7771     3.7771     0.0000
 17 C      5.6949     6.0000     0.3051     3.9087     3.9087     0.0000
 18 O      8.3470     8.0000    -0.3470     2.1197     2.1197     0.0000
 19 C      6.3126     6.0000    -0.3126     3.8165     3.8165     0.0000
 20 H      0.9042     1.0000     0.0958     0.9886     0.9886     0.0000
 21 H      0.8789     1.0000     0.1211     0.9810     0.9810     0.0000
 22 H      0.9043     1.0000     0.0957     0.9796     0.9796     0.0000
 23 H      0.8868     1.0000     0.1132     0.9866     0.9866     0.0000
 24 H      0.8837     1.0000     0.1163     0.9779     0.9779     0.0000
 25 H      0.8632     1.0000     0.1368     0.9944     0.9944     0.0000
 26 H      0.8627     1.0000     0.1373     0.9807     0.9807     0.0000
 27 H      0.9056     1.0000     0.0944     0.9750     0.9750    -0.0000
 28 H      0.7998     1.0000     0.2002     1.0232     1.0232     0.0000
 29 H      0.8109     1.0000     0.1891     1.0202     1.0202     0.0000
 30 H      0.8432     1.0000     0.1568     0.9959     0.9959    -0.0000
 31 H      0.8567     1.0000     0.1433     0.9821     0.9821    -0.0000
 32 H      0.8440     1.0000     0.1560     0.9760     0.9760     0.0000
 33 H      0.8446     1.0000     0.1554     0.9856     0.9856    -0.0000
 34 H      0.7619     1.0000     0.2381     1.0107     1.0107    -0.0000
 35 H      0.8708     1.0000     0.1292     0.9982     0.9982     0.0000

  Mayer bond orders larger than 0.100000
B(  0-C ,  1-C ) :   0.9464 B(  0-C , 20-H ) :   0.9772 B(  0-C , 21-H ) :   0.9769 
B(  0-C , 22-H ) :   0.9808 B(  1-C ,  2-O ) :   0.8842 B(  1-C , 23-H ) :   0.9798 
B(  1-C , 24-H ) :   0.9876 B(  2-O ,  3-C ) :   1.1709 B(  3-C ,  4-O ) :   1.9457 
B(  3-C ,  5-C ) :   1.0628 B(  5-C ,  6-C ) :   1.6319 B(  5-C , 12-C ) :   0.9942 
B(  6-C ,  7-C ) :   0.9429 B(  6-C ,  8-N ) :   1.1543 B(  7-C , 25-H ) :   0.9745 
B(  7-C , 26-H ) :   0.9668 B(  7-C , 27-H ) :   0.9762 B(  8-N ,  9-C ) :   1.2014 
B(  8-N , 28-H ) :   0.9409 B(  9-C , 10-S ) :   1.6326 B(  9-C , 11-N ) :   1.3059 
B( 11-N , 12-C ) :   0.9640 B( 11-N , 29-H ) :   0.9549 B( 12-C , 13-C ) :   0.9505 
B( 12-C , 30-H ) :   1.0044 B( 13-C , 14-C ) :   1.3608 B( 13-C , 19-C ) :   1.3324 
B( 14-C , 15-C ) :   1.4022 B( 14-C , 31-H ) :   0.9740 B( 15-C , 16-C ) :   1.3544 
B( 15-C , 32-H ) :   0.9761 B( 16-C , 17-C ) :   1.3367 B( 16-C , 33-H ) :   0.9748 
B( 17-C , 18-O ) :   1.1237 B( 17-C , 19-C ) :   1.3749 B( 18-O , 34-H ) :   0.9784 
B( 19-C , 35-H ) :   0.9645 

-------
TIMINGS
-------

Total SCF time: 0 days 1 hours 54 min 22 sec 

Total time                  ....    6862.965 sec
Sum of individual times     ....    6859.669 sec  (100.0%)

Fock matrix formation       ....    6846.918 sec  ( 99.8%)
Diagonalization             ....       1.504 sec  (  0.0%)
Density matrix formation    ....       0.173 sec  (  0.0%)
Population analysis         ....       0.207 sec  (  0.0%)
Initial guess               ....       6.165 sec  (  0.1%)
Orbital Transformation      ....       0.000 sec  (  0.0%)
Orbital Orthonormalization  ....       0.000 sec  (  0.0%)
DIIS solution               ....       1.388 sec  (  0.0%)
SOSCF solution              ....       1.865 sec  (  0.0%)

Maximum memory used throughout the entire SCF-calculation: 721.3 MB

------------------------------------------------------------------------------
                                ORCA  MP2 
------------------------------------------------------------------------------

Freezing NCore=48 chemical core electrons

-------------
RI-MP2 ENERGY
-------------
Dimension of the basis                    ...  828
Memory devoted to MP2                     ...  256 MB   
Data format for buffers                   ... DOUBLE
Compression type for matrix containers    ... UNCOMPRESSED
Overall scaling of the MP2 energy         ...   1.000e+00
Calculating two index integrals           ... done (    0.055 sec)
Cholesky decomposition of V**-1           ... done (    0.606 sec)

-----------------
RI-TRANSFORMATION (AUX index driven)
-----------------

Dimension of the orbital-basis         ... 828
Dimension of the aux-basis             ... 2141
Transformation of internal/external MOs...   24-  76 to   77- 827
Number Format for Storage              ... Double (8 Byte)
Integral mode                          ... Direct

First Phase: integral generation and transformation of MO indices
  Aux angular momentum 0               ... done (    5.501 sec)
  Aux angular momentum 1               ... done (    9.184 sec)
  Aux angular momentum 2               ... done (   11.425 sec)
  Aux angular momentum 3               ... done (    9.044 sec)
  Aux angular momentum 4               ... done (    3.089 sec)
Closing buffer VIA ( 0.63 GB; CompressionRatio= 1.00)
  Phase 1 completed in    38.420 sec
Second Phase: sorting and transformation of aux index

IA-Transformation
Memory available                       ... 158 MB 
Max. # MO pairs treated in a batch     ... 11    
# of internal orbitals                 ... 53
# batches for internal orbitals        ... 5
Closing buffer IAV ( 0.63 GB; CompressionRatio= 1.00)
(ia|v) transformation done in    19.381 sec

  Phase 2 completed in    19.390 sec
RI-Integral transformation completed in    57.815 sec
Opening buffers                              ... done

Starting loop over batches of integrals:

Operator 0  - window                       ... ( 24- 76)x( 77-827)
Operator 0  - Memory available             ...   256 MB
Operator 0  - Memory needed per MO         ...  12.3 MB
Operator 0  - Number of orbitals per batch ... 13
Operator 0  - Number of batches            ... 5

OPERATOR  0   PASS   0:  MOs    24 ...   36
  Reading integrals       ... ok
  Internal MO  26
  Internal MO  29
  Internal MO  32
  Internal MO  35
OPERATOR  0   PASS   1:  MOs    37 ...   49
  Reading integrals       ... ok
  Internal MO  38
  Internal MO  41
  Internal MO  44
  Internal MO  47
OPERATOR  0   PASS   2:  MOs    50 ...   62
  Reading integrals       ... ok
  Internal MO  50
  Internal MO  53
  Internal MO  56
  Internal MO  59
  Internal MO  62
OPERATOR  0   PASS   3:  MOs    63 ...   75
  Reading integrals       ... ok
  Internal MO  65
  Internal MO  68
  Internal MO  71
  Internal MO  74
OPERATOR  0   PASS   4:  MOs    76 ...   76
  Reading integrals       ... ok
Time spent in pair loops =    95.883 sec
Deleting buffer (Ka|jb)[aa] ...done

-----------------------------------------------
 RI-MP2 CORRELATION ENERGY:     -3.536757134 Eh
-----------------------------------------------


-------
TIMINGS
-------

Total time                :  154.460 sec
Integral trafo            :   57.839 sec ( 37.4%)
I/O of integrals          :    0.946 sec (  0.6%)
K(i,j) Operators          :   66.820 sec ( 43.3%)
T(i,j) pair energies      :    9.898 sec (  6.4%)
V-calculation             :    0.055 sec (  0.0%)
V**(-1/2)                 :    0.606 sec (  0.4%)
Gamma(ia|P)               :    0.000 sec (  0.0%)
Gamma-Trafo               :    0.000 sec (  0.0%)
D(virtual)                :    0.000 sec (  0.0%)
D(internal)               :    0.000 sec (  0.0%)
W(virtual)                :    0.000 sec (  0.0%)
W(internal)               :    0.000 sec (  0.0%)
L(virtual)                :    0.000 sec (  0.0%)
L(internal)               :    0.000 sec (  0.0%)
G(D)                      :    0.000 sec (  0.0%)
G(Z)                      :    0.000 sec (  0.0%)
Z-Vector Solution         :    0.000 sec (  0.0%)
3-Index Derivative        :    0.000 sec (  0.0%)
2-Index Derivative        :    0.000 sec (  0.0%)
Separable Gradient        :    0.000 sec (  0.0%)


---------------------------------------
MP2 TOTAL ENERGY:    -1274.307413204 Eh
---------------------------------------

Maximum memory used throughout the entire MP2-calculation: 303.1 MB

-------------------------   --------------------
FINAL SINGLE POINT ENERGY     -1274.307413204343
-------------------------   --------------------


                            ***************************************
                            *     ORCA property calculations      *
                            ***************************************


  WARNING: The energy has been calculated at the MP2 level but the densities
           used in the property calculations are still SCF densities
           MP2 response densities have not been calculated 
           use %mp2 Density relaxed end
           or  %mp2 Density unrelaxed end

                                    ---------------------
                                    Active property flags
                                    ---------------------
   (+) Dipole Moment


------------------------------------------------------------------------------
                       ORCA ELECTRIC PROPERTIES CALCULATION
------------------------------------------------------------------------------

Dipole Moment Calculation                       ... on
Quadrupole Moment Calculation                   ... off
Polarizability Calculation                      ... off
GBWName                                         ... qm_input.vacu.gbw
Electron density file                           ... qm_input.vacu.scfp
The origin for moment calculation is the CENTER OF MASS  = (14.464696, 14.104425 -7.437328)

-------------
DIPOLE MOMENT
-------------
                                X             Y             Z
Electronic contribution:      7.14434     -12.10992      -8.41458
Nuclear contribution   :     -7.81549      14.28447       8.76283
                        -----------------------------------------
Total Dipole Moment    :     -0.67115       2.17455       0.34825
                        -----------------------------------------
Magnitude (a.u.)       :      2.30225
Magnitude (Debye)      :      5.85187



--------------------
Rotational spectrum 
--------------------
 
Rotational constants in cm-1:     0.010429     0.008905     0.005864 
Rotational constants in MHz :   312.653010   266.963892   175.804884 

 Dipole components along the rotational axes: 
x,y,z [a.u.] :     2.078810    -0.045009    -0.988383 
x,y,z [Debye]:     5.283915    -0.114404    -2.512271 

 

Timings for individual modules:

Sum of individual times         ...     7019.975 sec (= 117.000 min)
GTO integral calculation        ...        2.012 sec (=   0.034 min)   0.0 %
SCF iterations                  ...     6863.080 sec (= 114.385 min)  97.8 %
MP2 module                      ...      154.883 sec (=   2.581 min)   2.2 %
                             ****ORCA TERMINATED NORMALLY****
TOTAL RUN TIME: 0 days 1 hours 57 minutes 1 seconds 50 msec
