
                                        *****************
                                        * O   R   C   A *
                                        *****************

                                            #,                                       
                                            ###                                      
                                            ####                                     
                                            #####                                    
                                            ######                                   
                                           ########,                                 
                                     ,,################,,,,,                         
                               ,,#################################,,                 
                          ,,##########################################,,             
                       ,#########################################, ''#####,          
                    ,#############################################,,   '####,        
                  ,##################################################,,,,####,       
                ,###########''''           ''''###############################       
              ,#####''   ,,,,##########,,,,          '''####'''          '####       
            ,##' ,,,,###########################,,,                        '##       
           ' ,,###''''                  '''############,,,                           
         ,,##''                                '''############,,,,        ,,,,,,###''
      ,#''                                            '''#######################'''  
     '                                                          ''''####''''         
             ,#######,   #######,   ,#######,      ##                                
            ,#'     '#,  ##    ##  ,#'     '#,    #''#        ######   ,####,        
            ##       ##  ##   ,#'  ##            #'  '#       #        #'  '#        
            ##       ##  #######   ##           ,######,      #####,   #    #        
            '#,     ,#'  ##    ##  '#,     ,#' ,#      #,         ##   #,  ,#        
             '#######'   ##     ##  '#######'  #'      '#     #####' # '####'        



                  #######################################################
                  #                        -***-                        #
                  #          Department of theory and spectroscopy      #
                  #    Directorship and core code : Frank Neese         #
                  #        Max Planck Institute fuer Kohlenforschung    #
                  #                Kaiser Wilhelm Platz 1               #
                  #                 D-45470 Muelheim/Ruhr               #
                  #                      Germany                        #
                  #                                                     #
                  #                  All rights reserved                #
                  #                        -***-                        #
                  #######################################################


                         Program Version 5.0.0 -  RELEASE  -
                                (SVN: $Rev: 19529$)
                ($Date: 2021-06-28 11:36:33 +0200 (Mo, 28 Jun 2021) $)


 With contributions from (in alphabetic order):
   Daniel Aravena         : Magnetic Suceptibility
   Michael Atanasov       : Ab Initio Ligand Field Theory (pilot matlab implementation)
   Alexander A. Auer      : GIAO ZORA, VPT2 properties, NMR spectrum
   Ute Becker             : Parallelization
   Giovanni Bistoni       : ED, misc. LED, open-shell LED, HFLD
   Martin Brehm           : Molecular dynamics
   Dmytro Bykov           : SCF Hessian
   Vijay G. Chilkuri      : MRCI spin determinant printing, contributions to CSF-ICE
   Dipayan Datta          : RHF DLPNO-CCSD density
   Achintya Kumar Dutta   : EOM-CC, STEOM-CC
   Dmitry Ganyushin       : Spin-Orbit,Spin-Spin,Magnetic field MRCI
   Miquel Garcia          : C-PCM Hessian, Gaussian charge scheme
   Yang Guo               : DLPNO-NEVPT2, F12-NEVPT2, CIM, IAO-localization
   Andreas Hansen         : Spin unrestricted coupled pair/coupled cluster methods
   Benjamin Helmich-Paris : MC-RPA, TRAH-SCF, COSX integrals
   Lee Huntington         : MR-EOM, pCC
   Robert Izsak           : Overlap fitted RIJCOSX, COSX-SCS-MP3, EOM
   Marcus Kettner         : VPT2
   Christian Kollmar      : KDIIS, OOCD, Brueckner-CCSD(T), CCSD density, CASPT2, CASPT2-K
   Simone Kossmann        : Meta GGA functionals, TD-DFT gradient, OOMP2, MP2 Hessian
   Martin Krupicka        : Initial AUTO-CI
   Lucas Lang             : DCDCAS
   Marvin Lechner         : AUTO-CI (C++ implementation), FIC-MRCC
   Dagmar Lenk            : GEPOL surface, SMD
   Dimitrios Liakos       : Extrapolation schemes; Compound Job, initial MDCI parallelization
   Dimitrios Manganas     : Further ROCIS development; embedding schemes
   Dimitrios Pantazis     : SARC Basis sets
   Anastasios Papadopoulos: AUTO-CI, single reference methods and gradients
   Taras Petrenko         : DFT Hessian,TD-DFT gradient, ASA, ECA, R-Raman, ABS, FL, XAS/XES, NRVS
   Peter Pinski           : DLPNO-MP2, DLPNO-MP2 Gradient
   Christoph Reimann      : Effective Core Potentials
   Marius Retegan         : Local ZFS, SOC
   Christoph Riplinger    : Optimizer, TS searches, QM/MM, DLPNO-CCSD(T), (RO)-DLPNO pert. Triples
   Tobias Risthaus        : Range-separated hybrids, TD-DFT gradient, RPA, STAB
   Michael Roemelt        : Original ROCIS implementation
   Masaaki Saitow         : Open-shell DLPNO-CCSD energy and density
   Barbara Sandhoefer     : DKH picture change effects
   Avijit Sen             : IP-ROCIS
   Kantharuban Sivalingam : CASSCF convergence, NEVPT2, FIC-MRCI
   Bernardo de Souza      : ESD, SOC TD-DFT
   Georgi Stoychev        : AutoAux, RI-MP2 NMR
   Willem Van den Heuvel  : Paramagnetic NMR
   Boris Wezisla          : Elementary symmetry handling
   Frank Wennmohs         : Technical directorship


 We gratefully acknowledge several colleagues who have allowed us to
 interface, adapt or use parts of their codes:
   Stefan Grimme, W. Hujo, H. Kruse, P. Pracht,  : VdW corrections, initial TS optimization,
                  C. Bannwarth, S. Ehlert          DFT functionals, gCP, sTDA/sTD-DF
   Ed Valeev, F. Pavosevic, A. Kumar             : LibInt (2-el integral package), F12 methods
   Garnet Chan, S. Sharma, J. Yang, R. Olivares  : DMRG
   Ulf Ekstrom                                   : XCFun DFT Library
   Mihaly Kallay                                 : mrcc  (arbitrary order and MRCC methods)
   Jiri Pittner, Ondrej Demel                    : Mk-CCSD
   Frank Weinhold                                : gennbo (NPA and NBO analysis)
   Christopher J. Cramer and Donald G. Truhlar   : smd solvation model
   Lars Goerigk                                  : TD-DFT with DH, B97 family of functionals
   V. Asgeirsson, H. Jonsson                     : NEB implementation
   FAccTs GmbH                                   : IRC, NEB, NEB-TS, DLPNO-Multilevel, CI-OPT
                                                   MM, QMMM, 2- and 3-layer-ONIOM, Crystal-QMMM,
                                                   LR-CPCM, SF, NACMEs, symmetry and pop. for TD-DFT,
                                                   nearIR, NL-DFT gradient (VV10), updates on ESD,
                                                   ML-optimized integration grids
   S Lehtola, MJT Oliveira, MAL Marques          : LibXC Library
   Liviu Ungur et al                             : ANISO software


 Your calculation uses the libint2 library for the computation of 2-el integrals
 For citations please refer to: http://libint.valeyev.net

 Your ORCA version has been built with support for libXC version: 5.1.0
 For citations please refer to: https://tddft.org/programs/libxc/

 This ORCA versions uses:
   CBLAS   interface :  Fast vector & matrix operations
   LAPACKE interface :  Fast linear algebra routines
   SCALAPACK package :  Parallel linear algebra routines
   Shared memory     :  Shared parallel matrices
   BLAS/LAPACK       :  OpenBLAS 0.3.15  USE64BITINT DYNAMIC_ARCH NO_AFFINITY SkylakeX SINGLE_THREADED
        Core in use  :  SkylakeX
   Copyright (c) 2011-2014, The OpenBLAS Project


================================================================================

----- Orbital basis set information -----
Your calculation utilizes the basis: cc-pVTZ 
       H, B-Ne : Obtained from the ccRepo (grant-hill.group.shef.ac.uk/ccrepo) Feb. 2017
                 T. H. Dunning, Jr., J. Chem. Phys. 90, 1007 (1989)
            He : Obtained from the ccRepo (grant-hill.group.shef.ac.uk/ccrepo) Feb. 2017
                 D. E. Woon, T. H. Dunning, Jr., J. Chem. Phys. 100, 2975 (1994)
  Li-Be, Na-Mg : Obtained from the ccRepo (grant-hill.group.shef.ac.uk/ccrepo) Feb. 2017
                 B. P. Prascher, D. E. Woon, K. A. Peterson, T. H. Dunning, Jr., A. K. Wilson, Theor. Chem. Acc. 128, 69 (2011)
         Al-Ar : Obtained from the ccRepo (grant-hill.group.shef.ac.uk/ccrepo) Feb. 2017
                 D. E. Woon, T. H. Dunning, Jr., J. Chem. Phys. 98, 1358 (1993)
            Ca : Obtained from the Peterson Research Group Website (tyr0.chem.wsu.edu/~kipeters) Feb. 2017
                 J. Koput, K. A. Peterson, J. Phys. Chem. 106, 9595 (2002)
         Sc-Zn : Obtained from the ccRepo (grant-hill.group.shef.ac.uk/ccrepo) Feb. 2017
                 N. B. Balabanov, K. A. Peterson, J. Chem. Phys. 123, 064107 (2005)
                 N. B. Balabanov, K. A. Peterson, J. Chem. Phys. 125, 074110 (2006)
         Ga-Kr : Obtained from the ccRepo (grant-hill.group.shef.ac.uk/ccrepo) Feb. 2017
                 A. K. Wilson, D. E. Woon, K. A. Peterson, T. H. Dunning, Jr., J. Chem. Phys. 110, 7667 (1999)
             Y : Obtained from the ccRepo (grant-hill.group.shef.ac.uk/ccrepo) Feb. 2017
                 K. A. Peterson, D. Figgen, M. Dolg, H. Stoll, J. Chem. Phys. 126, 124101 (2007)
        Ag, Au : Obtained from the Peterson Research Group Website (tyr0.chem.wsu.edu/~kipeters) Feb. 2017
                 K. A. Peterson, C. Puzzarini, Theor. Chem. Acc. 114, 283 (2005)

----- AuxC basis set information -----
Your calculation utilizes the auxiliary basis: cc-pVTZ/C 
  Obtained from the EMSL Basis Set Exchange (bse.pnl.gov) Feb. 2017
  H-He, B-F, Al-Ar, Ga-Kr : F. Weigend, A. Kohn, C. Hattig, J. Chem. Phys. 116, 3175 (2002)
             Li-Be, Na-Mg : C. Haettig, Phys. Chem. Chem. Phys. 7, 59 (2005)
                       Ne : C. Haettig, Phys. Chem. Chem. Phys. 7, 59 (2005)
                            F. Weigend, A. Kohn, C. Hattig, J. Chem. Phys. 116, 3175 (2002)
                    Sc-Zn : J. G. Hill, J. A. Platts, J. Chem. Phys. 128, 044104 (2008)

================================================================================
                                        WARNINGS
                       Please study these warnings very carefully!
================================================================================


WARNING: No MP2 level density has been requested!
         To caclulate MP2 level properties use
         %mp2 Density relaxed end
         or
         %mp2 Density unrelaxed end

WARNING: Post HF methods need fully converged wavefunctions
  ===> : Setting SCFConvForced true
         You can overwrite this default with %scf ConvForced false 


INFO   : the flag for use of the SHARK integral package has been found!

================================================================================
                                       INPUT FILE
================================================================================
NAME = qm_input.solv
|  1> ! RI-MP2 cc-pVTZ cc-pVTZ/c TightSCF KeepDens NoKeepInts
|  2> 
|  3> %pointcharges "srfp_output"
|  4> 
|  5> *xyz  0  1
|  6>     C     7.3612127    7.7953408    2.5701948
|  7>     C     8.1672947    8.8583672    3.3120743
|  8>     O     7.2778008    9.7460043    4.0232743
|  9>     C     6.8195382    9.4128769    5.2737712
| 10>     O     7.1190636    8.3981418    5.8368488
| 11>     C     6.0648748   10.4879479    6.0132194
| 12>     C     5.8798437   11.7376654    5.5738774
| 13>     C     6.3029363   12.3527345    4.2932089
| 14>     N     5.2458804   12.6530290    6.4089846
| 15>     C     4.8692944   12.3687709    7.6495876
| 16>     S     4.0929849   13.4265639    8.6330089
| 17>     N     5.3148395   11.1707699    8.1483641
| 18>     C     5.5387052    9.9941469    7.3107505
| 19>     C     4.2114130    9.2427202    7.0289098
| 20>     C     2.9973339    9.8835781    6.5747998
| 21>     C     1.8641287    9.1269046    6.1435365
| 22>     C     1.8947167    7.7305540    6.2803024
| 23>     C     3.0542279    7.0879165    6.8016465
| 24>     O     3.1525985    5.7405574    6.7642663
| 25>     C     4.1564852    7.8642855    7.2056055
| 26>     H     6.5079969    8.3060722    2.1071982
| 27>     H     7.0447228    7.0027857    3.2593110
| 28>     H     7.9281445    7.3211810    1.7596723
| 29>     H     8.8439963    8.4047296    4.0465665
| 30>     H     8.7376070    9.3941401    2.5433866
| 31>     H     6.0375262   13.4145171    4.2200258
| 32>     H     5.8281415   11.7755743    3.4903103
| 33>     H     7.3926769   12.2753607    4.1948811
| 34>     H     4.7987737   13.4904923    6.0558314
| 35>     H     5.1105076   11.0460642    9.1325711
| 36>     H     6.2116743    9.3005317    7.8295956
| 37>     H     2.9593782   10.9684562    6.5432602
| 38>     H     0.9529852    9.6014255    5.7913370
| 39>     H     1.0123070    7.1816659    5.9649073
| 40>     H     2.2961620    5.4798682    6.3831015
| 41>     H     5.0798957    7.3475733    7.4499832
| 42> *
| 43> 
| 44>                          ****END OF INPUT****
================================================================================

                       ****************************
                       * Single Point Calculation *
                       ****************************

---------------------------------
CARTESIAN COORDINATES (ANGSTROEM)
---------------------------------
  C      7.361213    7.795341    2.570195
  C      8.167295    8.858367    3.312074
  O      7.277801    9.746004    4.023274
  C      6.819538    9.412877    5.273771
  O      7.119064    8.398142    5.836849
  C      6.064875   10.487948    6.013219
  C      5.879844   11.737665    5.573877
  C      6.302936   12.352734    4.293209
  N      5.245880   12.653029    6.408985
  C      4.869294   12.368771    7.649588
  S      4.092985   13.426564    8.633009
  N      5.314839   11.170770    8.148364
  C      5.538705    9.994147    7.310751
  C      4.211413    9.242720    7.028910
  C      2.997334    9.883578    6.574800
  C      1.864129    9.126905    6.143536
  C      1.894717    7.730554    6.280302
  C      3.054228    7.087917    6.801647
  O      3.152598    5.740557    6.764266
  C      4.156485    7.864285    7.205605
  H      6.507997    8.306072    2.107198
  H      7.044723    7.002786    3.259311
  H      7.928144    7.321181    1.759672
  H      8.843996    8.404730    4.046566
  H      8.737607    9.394140    2.543387
  H      6.037526   13.414517    4.220026
  H      5.828141   11.775574    3.490310
  H      7.392677   12.275361    4.194881
  H      4.798774   13.490492    6.055831
  H      5.110508   11.046064    9.132571
  H      6.211674    9.300532    7.829596
  H      2.959378   10.968456    6.543260
  H      0.952985    9.601425    5.791337
  H      1.012307    7.181666    5.964907
  H      2.296162    5.479868    6.383102
  H      5.079896    7.347573    7.449983

----------------------------
CARTESIAN COORDINATES (A.U.)
----------------------------
  NO LB      ZA    FRAG     MASS         X           Y           Z
   0 C     6.0000    0    12.011   13.910676   14.731059    4.856964
   1 C     6.0000    0    12.011   15.433950   16.739888    6.258913
   2 O     8.0000    0    15.999   13.753050   18.417279    7.602887
   3 C     6.0000    0    12.011   12.887060   17.787759    9.965983
   4 O     8.0000    0    15.999   13.453081   15.870188   11.030046
   5 C     6.0000    0    12.011   11.460952   19.819349   11.363338
   6 C     6.0000    0    12.011   11.111294   22.180973   10.533102
   7 C     6.0000    0    12.011   11.910823   23.343285    8.112989
   8 N     7.0000    0    14.007    9.913277   23.910760   12.111226
   9 C     6.0000    0    12.011    9.201633   23.373590   14.455626
  10 S    16.0000    0    32.060    7.734621   25.372529   16.314023
  11 N     7.0000    0    14.007   10.043591   21.109696   15.398177
  12 C     6.0000    0    12.011   10.466636   18.886201   13.815316
  13 C     6.0000    0    12.011    7.958417   17.466210   13.282715
  14 C     6.0000    0    12.011    5.664140   18.677256   12.424571
  15 C     6.0000    0    12.011    3.522693   17.247350   11.609601
  16 C     6.0000    0    12.011    3.580496   14.608630   11.868052
  17 C     6.0000    0    12.011    5.771654   13.394221   12.853249
  18 O     8.0000    0    15.999    5.957548   10.848081   12.782611
  19 C     6.0000    0    12.011    7.854619   14.861346   13.616621
  20 H     1.0000    0     1.008   12.298332   15.696202    3.982028
  21 H     1.0000    0     1.008   13.312597   13.233347    6.159205
  22 H     1.0000    0     1.008   14.982022   13.835027    3.325299
  23 H     1.0000    0     1.008   16.712731   15.882637    7.646902
  24 H     1.0000    0     1.008   16.511684   17.752352    4.806304
  25 H     1.0000    0     1.008   11.409271   25.349764    7.974693
  26 H     1.0000    0     1.008   11.013591   22.252610    6.595731
  27 H     1.0000    0     1.008   13.970135   23.197070    7.927176
  28 H     1.0000    0     1.008    9.068368   25.493336   11.443863
  29 H     1.0000    0     1.008    9.657460   20.874036   17.258058
  30 H     1.0000    0     1.008   11.738363   17.575458   14.795791
  31 H     1.0000    0     1.008    5.592414   20.727378   12.364970
  32 H     1.0000    0     1.008    1.800881   18.144065   10.944041
  33 H     1.0000    0     1.008    1.912983   13.571382   11.272041
  34 H     1.0000    0     1.008    4.339117   10.355450   12.062314
  35 H     1.0000    0     1.008    9.599612   13.884901   14.078428

--------------------------------
INTERNAL COORDINATES (ANGSTROEM)
--------------------------------
 C      0   0   0     0.000000000000     0.00000000     0.00000000
 C      1   0   0     1.526492224134     0.00000000     0.00000000
 O      2   1   0     1.443919824448   110.00950738     0.00000000
 C      3   2   1     1.372851402046   120.33884816    84.66521834
 O      4   3   2     1.198523746965   123.36427437     0.04497494
 C      4   3   2     1.507341415481   116.16123010   171.33125064
 C      6   4   3     1.337554384217   125.06538035   356.20304265
 C      7   6   4     1.482372811691   129.19515260     2.24200886
 N      7   6   4     1.391834768011   118.71195988   184.69645494
 C      9   7   6     1.327296306942   123.31211552     3.33032675
 S     10   9   7     1.639725563603   123.83085471   181.37223844
 N     10   9   7     1.372040389015   115.76289037     9.29383967
 C     12  10   9     1.461558783857   122.97893238   328.37590007
 C     13  12  10     1.551057977585   111.28935180   278.72500487
 C     14  13  12     1.445995436075   124.11396937    48.70949033
 C     15  14  13     1.429229458427   121.72446415   170.66743807
 C     16  15  14     1.403365788121   118.69144818     5.79627629
 C     17  16  15     1.424517058493   120.15093338   358.08693067
 O     18  17  16     1.351462392614   119.92602985   188.94835587
 C     14  13  12     1.390798567649   119.39743120   228.22555002
 H      1   2   3     1.096900002702   106.95630504    43.00343472
 H      1   2   3     1.096900442356   110.49970353   280.66193418
 H      1   2   3     1.096898311054   112.78152280   160.29228679
 H      2   1   3     1.096900596881   111.29711192   119.32269775
 H      2   1   3     1.096899949876   105.90945453   239.47372090
 H      8   7   6     1.096895882466   112.96814401   181.80512433
 H      8   7   6     1.096900250913   106.88840767    59.63198224
 H      8   7   6     1.096900012065   109.37375306   301.64068877
 H      9   7   6     1.012899976652   122.38599114   201.14325545
 H     12  10   9     1.012900022618   113.27991367   172.40826434
 H     13  12  10     1.096900037843   109.38754261   159.79728553
 H     15  14  13     1.085999941708   118.76395049   351.97190963
 H     16  15  14     1.086000483393   122.12348276   180.66240383
 H     17  16  15     1.086001424529   117.18606825   178.70185097
 H     19  18  17     0.972999970343   102.34962307   357.27322512
 H     20  14  13     1.086001339500   117.81196425   354.48477141

---------------------------
INTERNAL COORDINATES (A.U.)
---------------------------
 C      0   0   0     0.000000000000     0.00000000     0.00000000
 C      1   0   0     2.884652249173     0.00000000     0.00000000
 O      2   1   0     2.728613027546   110.00950738     0.00000000
 C      3   2   1     2.594313172436   120.33884816    84.66521834
 O      4   3   2     2.264881646765   123.36427437     0.04497494
 C      4   3   2     2.848462465576   116.16123010   171.33125064
 C      6   4   3     2.527611475395   125.06538035   356.20304265
 C      7   6   4     2.801278642468   129.19515260     2.24200886
 N      7   6   4     2.630186535210   118.71195988   184.69645494
 C      9   7   6     2.508226518685   123.31211552     3.33032675
 S     10   9   7     3.098632249999   123.83085471   181.37223844
 N     10   9   7     2.592780579916   115.76289037     9.29383967
 C     12  10   9     2.761945830117   122.97893238   328.37590007
 C     13  12  10     2.931074795470   111.28935180   278.72500487
 C     14  13  12     2.732535365081   124.11396937    48.70949033
 C     15  14  13     2.700852258960   121.72446415   170.66743807
 C     16  15  14     2.651977005262   118.69144818     5.79627629
 C     17  16  15     2.691947113650   120.15093338   358.08693067
 O     18  17  16     2.553893802334   119.92602985   188.94835587
 C     14  13  12     2.628228400307   119.39743120   228.22555002
 H      1   2   3     2.072840601404   106.95630504    43.00343472
 H      1   2   3     2.072841432230   110.49970353   280.66193418
 H      1   2   3     2.072837404653   112.78152280   160.29228679
 H      2   1   3     2.072841724239   111.29711192   119.32269775
 H      2   1   3     2.072840501577   105.90945453   239.47372090
 H      8   7   6     2.072832815286   112.96814401   181.80512433
 H      8   7   6     2.072841070455   106.88840767    59.63198224
 H      8   7   6     2.072840619097   109.37375306   301.64068877
 H      9   7   6     1.914103556928   122.38599114   201.14325545
 H     12  10   9     1.914103643790   113.27991367   172.40826434
 H     13  12  10     2.072840667811   109.38754261   159.79728553
 H     15  14  13     2.052242471283   118.76395049   351.97190963
 H     16  15  14     2.052243494918   122.12348276   180.66240383
 H     17  16  15     2.052245273409   117.18606825   178.70185097
 H     19  18  17     1.838703472262   102.34962307   357.27322512
 H     20  14  13     2.052245112727   117.81196425   354.48477141

---------------------
BASIS SET INFORMATION
---------------------
There are 5 groups of distinct atoms

 Group   1 Type C   : 18s5p2d1f contracted to 4s3p2d1f pattern {8811/311/11/1}
 Group   2 Type O   : 18s5p2d1f contracted to 4s3p2d1f pattern {8811/311/11/1}
 Group   3 Type N   : 18s5p2d1f contracted to 4s3p2d1f pattern {8811/311/11/1}
 Group   4 Type S   : 41s16p2d1f contracted to 5s4p2d1f pattern {13131311/7711/11/1}
 Group   5 Type H   : 5s2p1d contracted to 3s2p1d pattern {311/11/1}

Atom   0C    basis set group =>   1
Atom   1C    basis set group =>   1
Atom   2O    basis set group =>   2
Atom   3C    basis set group =>   1
Atom   4O    basis set group =>   2
Atom   5C    basis set group =>   1
Atom   6C    basis set group =>   1
Atom   7C    basis set group =>   1
Atom   8N    basis set group =>   3
Atom   9C    basis set group =>   1
Atom  10S    basis set group =>   4
Atom  11N    basis set group =>   3
Atom  12C    basis set group =>   1
Atom  13C    basis set group =>   1
Atom  14C    basis set group =>   1
Atom  15C    basis set group =>   1
Atom  16C    basis set group =>   1
Atom  17C    basis set group =>   1
Atom  18O    basis set group =>   2
Atom  19C    basis set group =>   1
Atom  20H    basis set group =>   5
Atom  21H    basis set group =>   5
Atom  22H    basis set group =>   5
Atom  23H    basis set group =>   5
Atom  24H    basis set group =>   5
Atom  25H    basis set group =>   5
Atom  26H    basis set group =>   5
Atom  27H    basis set group =>   5
Atom  28H    basis set group =>   5
Atom  29H    basis set group =>   5
Atom  30H    basis set group =>   5
Atom  31H    basis set group =>   5
Atom  32H    basis set group =>   5
Atom  33H    basis set group =>   5
Atom  34H    basis set group =>   5
Atom  35H    basis set group =>   5
---------------------------------
AUXILIARY/C BASIS SET INFORMATION
---------------------------------
There are 5 groups of distinct atoms

 Group   1 Type C   : 8s6p5d3f1g contracted to 8s6p5d3f1g pattern {11111111/111111/11111/111/1}
 Group   2 Type O   : 8s6p5d3f1g contracted to 8s6p5d3f1g pattern {11111111/111111/11111/111/1}
 Group   3 Type N   : 8s6p5d3f1g contracted to 8s6p5d3f1g pattern {11111111/111111/11111/111/1}
 Group   4 Type S   : 10s8p7d5f2g contracted to 10s8p7d5f2g pattern {1111111111/11111111/1111111/11111/11}
 Group   5 Type H   : 4s3p2d1f contracted to 4s3p2d1f pattern {1111/111/11/1}

Atom   0C    basis set group =>   1
Atom   1C    basis set group =>   1
Atom   2O    basis set group =>   2
Atom   3C    basis set group =>   1
Atom   4O    basis set group =>   2
Atom   5C    basis set group =>   1
Atom   6C    basis set group =>   1
Atom   7C    basis set group =>   1
Atom   8N    basis set group =>   3
Atom   9C    basis set group =>   1
Atom  10S    basis set group =>   4
Atom  11N    basis set group =>   3
Atom  12C    basis set group =>   1
Atom  13C    basis set group =>   1
Atom  14C    basis set group =>   1
Atom  15C    basis set group =>   1
Atom  16C    basis set group =>   1
Atom  17C    basis set group =>   1
Atom  18O    basis set group =>   2
Atom  19C    basis set group =>   1
Atom  20H    basis set group =>   5
Atom  21H    basis set group =>   5
Atom  22H    basis set group =>   5
Atom  23H    basis set group =>   5
Atom  24H    basis set group =>   5
Atom  25H    basis set group =>   5
Atom  26H    basis set group =>   5
Atom  27H    basis set group =>   5
Atom  28H    basis set group =>   5
Atom  29H    basis set group =>   5
Atom  30H    basis set group =>   5
Atom  31H    basis set group =>   5
Atom  32H    basis set group =>   5
Atom  33H    basis set group =>   5
Atom  34H    basis set group =>   5
Atom  35H    basis set group =>   5
------------------------------------------------------------------------------
                           ORCA GTO INTEGRAL CALCULATION
------------------------------------------------------------------------------
------------------------------------------------------------------------------
                   ___                                                        
                  /   \      - P O W E R E D   B Y -                         
                 /     \                                                     
                 |  |  |   _    _      __       _____    __    __             
                 |  |  |  | |  | |    /  \     |  _  \  |  |  /  |          
                  \  \/   | |  | |   /    \    | | | |  |  | /  /          
                 / \  \   | |__| |  /  /\  \   | |_| |  |  |/  /          
                |  |  |   |  __  | /  /__\  \  |    /   |      \           
                |  |  |   | |  | | |   __   |  |    \   |  |\   \          
                \     /   | |  | | |  |  |  |  | |\  \  |  | \   \       
                 \___/    |_|  |_| |__|  |__|  |_| \__\ |__|  \__/        
                                                                              
                      - O R C A' S   B I G   F R I E N D -                    
                                      &                                       
                       - I N T E G R A L  F E E D E R -                       
                                                                              
 v1 FN, 2020, v2 2021                                                         
------------------------------------------------------------------------------


Reading SHARK input file qm_input.solv.SHARKINP.tmp ... ok
----------------------
SHARK INTEGRAL PACKAGE
----------------------

Number of atoms                             ...     36
Number of basis functions                   ...    828
Number of shells                            ...    298
Maximum angular momentum                    ...      3
Integral batch strategy                     ... SHARK/LIBINT Hybrid
RI-J (if used) integral strategy            ... SPLIT-RIJ (Revised 2003 algorithm where possible)
Printlevel                                  ...      1
Contraction scheme used                     ... SEGMENTED contraction
Coulomb Range Separation                    ... NOT USED
Exchange Range Separation                   ... NOT USED
Finite Nucleus Model                        ... NOT USED
Auxiliary Coulomb fitting basis             ... NOT available
Auxiliary J/K fitting basis                 ... NOT available
Auxiliary Correlation fitting basis         ... AVAILABLE
   # of basis functions in Aux-C            ...   2141
   # of shells in Aux-C                     ...    629
   Maximum angular momentum in Aux-C        ...      4
Auxiliary 'external' fitting basis          ... NOT available
Integral threshold                          ...     2.500000e-11
Primitive cut-off                           ...     2.500000e-12
Primitive pair pre-selection threshold      ...     2.500000e-12

Calculating pre-screening integrals         ... done (  0.6 sec) Dimension = 298
Organizing shell pair data                  ... done (  0.4 sec)
Shell pair information
Total number of shell pairs                 ...     44551
Shell pairs after pre-screening             ...     32553
Total number of primitive shell pairs       ...    234348
Primitive shell pairs kept                  ...     94271
          la=0 lb=0:   6528 shell pairs
          la=1 lb=0:   9064 shell pairs
          la=1 lb=1:   3185 shell pairs
          la=2 lb=0:   5188 shell pairs
          la=2 lb=1:   3553 shell pairs
          la=2 lb=2:   1004 shell pairs
          la=3 lb=0:   1883 shell pairs
          la=3 lb=1:   1286 shell pairs
          la=3 lb=2:    720 shell pairs
          la=3 lb=3:    142 shell pairs

Reading point charge file                   ... ok (42057 point charges)
Calculating one electron integrals          ... done (217.8 sec)
Calculating RI/C V-Matrix + Cholesky decomp.... done (  0.4 sec)
Calculating Nuclear repulsion               ... (+Point charges) done (  0.0 sec) ENN=   2205.159559109596 Eh

SHARK setup successfully completed in 219.9 seconds

Maximum memory used throughout the entire GTOINT-calculation: 484.4 MB
ENUC WAS=  0.000000000
ENUC IS =  0.000000000
-------------------------------------------------------------------------------
                                 ORCA SCF
-------------------------------------------------------------------------------

------------
SCF SETTINGS
------------
Hamiltonian:
 Ab initio Hamiltonian  Method          .... Hartree-Fock(GTOs)


General Settings:
 Integral files         IntName         .... qm_input.solv
 Hartree-Fock type      HFTyp           .... RHF
 Total Charge           Charge          ....    0
 Multiplicity           Mult            ....    1
 Number of Electrons    NEL             ....  154
 Basis Dimension        Dim             ....  828
 Nuclear Repulsion      ENuc            ....   2205.1595591096 Eh

Convergence Acceleration:
 DIIS                   CNVDIIS         .... on
   Start iteration      DIISMaxIt       ....    12
   Startup error        DIISStart       ....  0.200000
   # of expansion vecs  DIISMaxEq       ....     5
   Bias factor          DIISBfac        ....   1.050
   Max. coefficient     DIISMaxC        ....  10.000
 Trust-Rad. Augm. Hess. CNVTRAH         .... auto
   Auto Start mean grad. ratio tolernc. ....  1.125000
   Auto Start start iteration           ....    20
   Auto Start num. interpolation iter.  ....    10
   Max. Number of Micro iterations      ....    16
   Max. Number of Macro iterations      .... Maxiter - #DIIS iter
   Number of Davidson start vectors     ....     2
   Converg. threshold I  (grad. norm)   ....   1.000e-05
   Converg. threshold II (energy diff.) ....   1.000e-08
   Grad. Scal. Fac. for Micro threshold ....   0.100
   Minimum threshold for Micro iter.    ....   0.010
   NR start threshold (gradient norm)   ....   0.001
   Initial trust radius                 ....   0.400
   Minimum AH scaling param. (alpha)    ....   1.000
   Maximum AH scaling param. (alpha)    .... 1000.000
   Orbital update algorithm             .... Taylor
   White noise on init. David. guess    .... on
   Maximum white noise                  ....   0.010
   Quad. conv. algorithm                .... NR
 SOSCF                  CNVSOSCF        .... on
   Start iteration      SOSCFMaxIt      ....   150
   Startup grad/error   SOSCFStart      ....  0.003300
 Level Shifting         CNVShift        .... on
   Level shift para.    LevelShift      ....    0.2500
   Turn off err/grad.   ShiftErr        ....    0.0010
 Zerner damping         CNVZerner       .... off
 Static damping         CNVDamp         .... on
   Fraction old density DampFac         ....    0.7000
   Max. Damping (<1)    DampMax         ....    0.9800
   Min. Damping (>=0)   DampMin         ....    0.0000
   Turn off err/grad.   DampErr         ....    0.1000
 Fernandez-Rico         CNVRico         .... off

SCF Procedure:
 Maximum # iterations   MaxIter         ....   125
 SCF integral mode      SCFMode         .... Direct
   Integral package                     .... SHARK and LIBINT hybrid scheme
 Reset frequency        DirectResetFreq ....    20
 Integral Threshold     Thresh          ....  2.500e-11 Eh
 Primitive CutOff       TCut            ....  2.500e-12 Eh

Convergence Tolerance:
 Convergence Check Mode ConvCheckMode   .... Total+1el-Energy
 Convergence forced     ConvForced      .... 1
 Energy Change          TolE            ....  1.000e-08 Eh
 1-El. energy change                    ....  1.000e-05 Eh
 Orbital Gradient       TolG            ....  1.000e-05
 Orbital Rotation angle TolX            ....  1.000e-05
 DIIS Error             TolErr          ....  5.000e-07


Diagonalization of the overlap matrix:
Smallest eigenvalue                        ... 3.836e-05
Time for diagonalization                   ...    0.143 sec
Threshold for overlap eigenvalues          ... 1.000e-08
Number of eigenvalues below threshold      ... 0
Time for construction of square roots      ...    0.185 sec
Total time needed                          ...    0.330 sec

Time for model grid setup =    1.477 sec

------------------------------
INITIAL GUESS: MODEL POTENTIAL
------------------------------
Loading Hartree-Fock densities                     ... done
Calculating cut-offs                               ... done
Initializing the effective Hamiltonian             ... done
Setting up the integral package (SHARK)            ... done
Starting the Coulomb interaction                   ... done (   4.3 sec)
Reading the grid                                   ... done
Mapping shells                                     ... done
Starting the XC term evaluation                    ... done (   1.5 sec)
Transforming the Hamiltonian                       ... done (   0.1 sec)
Diagonalizing the Hamiltonian                      ... done (   0.1 sec)
Back transforming the eigenvectors                 ... done (   0.0 sec)
Now organizing SCF variables                       ... done
                      ------------------
                      INITIAL GUESS DONE (   7.6 sec)
                      ------------------
--------------
SCF ITERATIONS
--------------
ITER       Energy         Delta-E        Max-DP      RMS-DP      [F,P]     Damp
               ***  Starting incremental Fock matrix formation  ***
  0  -1270.0743000027   0.000000000000 0.04826327  0.00047895  0.3589810 0.7000
  1  -1270.3637089232  -0.289408920514 0.03589216  0.00038972  0.2075169 0.7000
                               ***Turning on DIIS***
  2  -1270.5432376555  -0.179528732262 0.02607933  0.00026093  0.1101454 0.7000
  3  -1272.6633065235  -2.120068867996 0.06514854  0.00055666  0.0840594 0.0000
  4  -1270.8843937066   1.778912816875 0.00815620  0.00010206  0.0077505 0.0000
  5  -1270.9366726510  -0.052278944396 0.00423728  0.00005351  0.0046819 0.0000
                      *** Initiating the SOSCF procedure ***
                           *** Shutting down DIIS ***
                      *** Re-Reading the Fockian *** 
                      *** Removing any level shift *** 
ITER      Energy       Delta-E        Grad      Rot      Max-DP    RMS-DP
  6  -1270.91599908   0.0206735677  0.001871  0.001871  0.003432  0.000028
               *** Restarting incremental Fock matrix formation ***
  7  -1270.93193287  -0.0159337861  0.000796  0.001628  0.002106  0.000017
  8  -1270.93198309  -0.0000502196  0.000437  0.001927  0.001967  0.000018
  9  -1270.93200085  -0.0000177603  0.000145  0.000307  0.000678  0.000004
 10  -1270.93200295  -0.0000020961  0.000049  0.000117  0.000184  0.000001
 11  -1270.93200311  -0.0000001625  0.000027  0.000130  0.000084  0.000001
 12  -1270.93200316  -0.0000000534  0.000008  0.000027  0.000032  0.000000
 13  -1270.93200316  -0.0000000003  0.000003  0.000012  0.000017  0.000000
                  ***Gradient check signals convergence***
              ***Rediagonalizing the Fockian in SOSCF/NRSCF***

               *****************************************************
               *                     SUCCESS                       *
               *           SCF CONVERGED AFTER  14 CYCLES          *
               *****************************************************


----------------
TOTAL SCF ENERGY
----------------

Total Energy       :        -1270.93200315 Eh          -34583.81801 eV

Components:
Nuclear Repulsion  :         2205.15955911 Eh           60005.44222 eV
Electronic Energy  :        -3476.09156226 Eh          -94589.26023 eV
One Electron Energy:        -5627.06341474 Eh         -153120.17999 eV
Two Electron Energy:         2150.97185248 Eh           58530.91976 eV

Virial components:
Potential Energy   :        -2540.25164832 Eh          -69123.76153 eV
Kinetic Energy     :         1269.31964517 Eh           34539.94352 eV
Virial Ratio       :            2.00127025


---------------
SCF CONVERGENCE
---------------

  Last Energy change         ...    9.9203e-09  Tolerance :   1.0000e-08
  Last MAX-Density change    ...    2.5688e-06  Tolerance :   1.0000e-07
  Last RMS-Density change    ...    4.1186e-08  Tolerance :   5.0000e-09
  Last Orbital Gradient      ...    1.1210e-06  Tolerance :   1.0000e-05
  Last Orbital Rotation      ...    4.2465e-06  Tolerance :   1.0000e-05

             **** THE GBW FILE WAS UPDATED (qm_input.solv.gbw) ****
             **** DENSITY qm_input.solv.scfp WAS UPDATED ****
             **** ENERGY FILE WAS UPDATED (qm_input.solv.en.tmp) ****
             **** THE GBW FILE WAS UPDATED (qm_input.solv.gbw) ****
             **** DENSITY qm_input.solv.scfp WAS UPDATED ****
----------------
ORBITAL ENERGIES
----------------

  NO   OCC          E(Eh)            E(eV) 
   0   2.0000     -95.198136     -2590.4730 
   1   2.0000     -23.873855      -649.6406 
   2   2.0000     -23.866387      -649.4374 
   3   2.0000     -23.839947      -648.7179 
   4   2.0000     -18.903266      -514.3840 
   5   2.0000     -18.880799      -513.7727 
   6   2.0000     -14.681350      -399.4998 
   7   2.0000     -14.670614      -399.2077 
   8   2.0000     -14.598765      -397.2526 
   9   2.0000     -14.587548      -396.9474 
  10   2.0000     -14.578687      -396.7062 
  11   2.0000     -14.556321      -396.0976 
  12   2.0000     -14.535139      -395.5212 
  13   2.0000     -14.526522      -395.2868 
  14   2.0000     -14.524744      -395.2384 
  15   2.0000     -14.514895      -394.9704 
  16   2.0000     -14.509743      -394.8302 
  17   2.0000     -14.507732      -394.7755 
  18   2.0000     -14.504786      -394.6953 
  19   2.0000     -14.481293      -394.0560 
  20   2.0000     -12.205724      -332.1346 
  21   2.0000      -9.887848      -269.0620 
  22   2.0000      -9.885748      -269.0049 
  23   2.0000      -9.885351      -268.9941 
  24   2.0000      -4.740493      -128.9954 
  25   2.0000      -4.689225      -127.6003 
  26   2.0000      -4.649254      -126.5126 
  27   2.0000      -4.635779      -126.1459 
  28   2.0000      -4.517178      -122.9187 
  29   2.0000      -4.428117      -120.4952 
  30   2.0000      -4.402154      -119.7887 
  31   2.0000      -4.315602      -117.4335 
  32   2.0000      -4.304316      -117.1264 
  33   2.0000      -4.282111      -116.5222 
  34   2.0000      -4.276184      -116.3609 
  35   2.0000      -4.263119      -116.0054 
  36   2.0000      -4.198533      -114.2479 
  37   2.0000      -4.159282      -113.1798 
  38   2.0000      -4.127787      -112.3228 
  39   2.0000      -4.108691      -111.8032 
  40   2.0000      -4.099915      -111.5644 
  41   2.0000      -4.085830      -111.1811 
  42   2.0000      -4.033458      -109.7560 
  43   2.0000      -4.019181      -109.3675 
  44   2.0000      -3.998224      -108.7972 
  45   2.0000      -3.972776      -108.1047 
  46   2.0000      -3.968402      -107.9857 
  47   2.0000      -3.958536      -107.7172 
  48   2.0000      -3.944905      -107.3463 
  49   2.0000      -3.928734      -106.9063 
  50   2.0000      -3.924741      -106.7976 
  51   2.0000      -3.914240      -106.5119 
  52   2.0000      -3.908807      -106.3640 
  53   2.0000      -3.885526      -105.7305 
  54   2.0000      -3.881123      -105.6107 
  55   2.0000      -3.872041      -105.3636 
  56   2.0000      -3.861540      -105.0778 
  57   2.0000      -3.854361      -104.8825 
  58   2.0000      -3.847796      -104.7038 
  59   2.0000      -3.839966      -104.4908 
  60   2.0000      -3.833147      -104.3052 
  61   2.0000      -3.819815      -103.9425 
  62   2.0000      -3.817024      -103.8665 
  63   2.0000      -3.797587      -103.3376 
  64   2.0000      -3.791355      -103.1680 
  65   2.0000      -3.786563      -103.0376 
  66   2.0000      -3.772006      -102.6415 
  67   2.0000      -3.762763      -102.3900 
  68   2.0000      -3.754465      -102.1642 
  69   2.0000      -3.744058      -101.8810 
  70   2.0000      -3.729683      -101.4898 
  71   2.0000      -3.727901      -101.4413 
  72   2.0000      -3.653380       -99.4135 
  73   2.0000      -3.642878       -99.1277 
  74   2.0000      -3.627555       -98.7108 
  75   2.0000      -3.614232       -98.3483 
  76   2.0000      -3.582265       -97.4784 
  77   0.0000      -3.209191       -87.3265 
  78   0.0000      -3.149250       -85.6955 
  79   0.0000      -3.147243       -85.6408 
  80   0.0000      -3.125048       -85.0369 
  81   0.0000      -3.120661       -84.9175 
  82   0.0000      -3.103570       -84.4524 
  83   0.0000      -3.099760       -84.3487 
  84   0.0000      -3.096400       -84.2573 
  85   0.0000      -3.090418       -84.0946 
  86   0.0000      -3.076940       -83.7278 
  87   0.0000      -3.069335       -83.5208 
  88   0.0000      -3.063795       -83.3701 
  89   0.0000      -3.056753       -83.1785 
  90   0.0000      -3.053418       -83.0877 
  91   0.0000      -3.050679       -83.0132 
  92   0.0000      -3.042800       -82.7988 
  93   0.0000      -3.022884       -82.2568 
  94   0.0000      -3.019755       -82.1717 
  95   0.0000      -3.015555       -82.0574 
  96   0.0000      -3.008336       -81.8610 
  97   0.0000      -3.000803       -81.6560 
  98   0.0000      -2.998021       -81.5803 
  99   0.0000      -2.989227       -81.3410 
 100   0.0000      -2.975168       -80.9584 
 101   0.0000      -2.961612       -80.5896 
 102   0.0000      -2.954978       -80.4090 
 103   0.0000      -2.946414       -80.1760 
 104   0.0000      -2.942946       -80.0816 
 105   0.0000      -2.936504       -79.9063 
 106   0.0000      -2.926175       -79.6253 
 107   0.0000      -2.916261       -79.3555 
 108   0.0000      -2.910275       -79.1926 
 109   0.0000      -2.901281       -78.9479 
 110   0.0000      -2.889929       -78.6390 
 111   0.0000      -2.885732       -78.5248 
 112   0.0000      -2.880383       -78.3792 
 113   0.0000      -2.878894       -78.3387 
 114   0.0000      -2.868215       -78.0481 
 115   0.0000      -2.863840       -77.9290 
 116   0.0000      -2.857222       -77.7490 
 117   0.0000      -2.852301       -77.6151 
 118   0.0000      -2.850131       -77.5560 
 119   0.0000      -2.835979       -77.1709 
 120   0.0000      -2.829163       -76.9854 
 121   0.0000      -2.821449       -76.7755 
 122   0.0000      -2.819412       -76.7201 
 123   0.0000      -2.812829       -76.5410 
 124   0.0000      -2.807946       -76.4081 
 125   0.0000      -2.804982       -76.3274 
 126   0.0000      -2.802736       -76.2663 
 127   0.0000      -2.795404       -76.0668 
 128   0.0000      -2.792648       -75.9918 
 129   0.0000      -2.784778       -75.7777 
 130   0.0000      -2.777558       -75.5812 
 131   0.0000      -2.772698       -75.4489 
 132   0.0000      -2.765224       -75.2456 
 133   0.0000      -2.758509       -75.0628 
 134   0.0000      -2.753029       -74.9137 
 135   0.0000      -2.749219       -74.8100 
 136   0.0000      -2.746634       -74.7397 
 137   0.0000      -2.731427       -74.3259 
 138   0.0000      -2.717649       -73.9510 
 139   0.0000      -2.712106       -73.8002 
 140   0.0000      -2.710938       -73.7684 
 141   0.0000      -2.702919       -73.5502 
 142   0.0000      -2.700391       -73.4814 
 143   0.0000      -2.699757       -73.4641 
 144   0.0000      -2.691786       -73.2472 
 145   0.0000      -2.688441       -73.1562 
 146   0.0000      -2.681714       -72.9731 
 147   0.0000      -2.679124       -72.9027 
 148   0.0000      -2.672226       -72.7150 
 149   0.0000      -2.668604       -72.6164 
 150   0.0000      -2.664153       -72.4953 
 151   0.0000      -2.655943       -72.2719 
 152   0.0000      -2.655137       -72.2499 
 153   0.0000      -2.645602       -71.9905 
 154   0.0000      -2.643884       -71.9438 
 155   0.0000      -2.639561       -71.8261 
 156   0.0000      -2.631430       -71.6049 
 157   0.0000      -2.627696       -71.5032 
 158   0.0000      -2.620673       -71.3121 
 159   0.0000      -2.617974       -71.2387 
 160   0.0000      -2.614062       -71.1322 
 161   0.0000      -2.604866       -70.8820 
 162   0.0000      -2.600980       -70.7763 
 163   0.0000      -2.597917       -70.6929 
 164   0.0000      -2.593446       -70.5712 
 165   0.0000      -2.587958       -70.4219 
 166   0.0000      -2.586376       -70.3789 
 167   0.0000      -2.581717       -70.2521 
 168   0.0000      -2.579475       -70.1911 
 169   0.0000      -2.576012       -70.0968 
 170   0.0000      -2.563744       -69.7630 
 171   0.0000      -2.562634       -69.7328 
 172   0.0000      -2.558486       -69.6199 
 173   0.0000      -2.550716       -69.4085 
 174   0.0000      -2.546106       -69.2831 
 175   0.0000      -2.540914       -69.1418 
 176   0.0000      -2.534667       -68.9718 
 177   0.0000      -2.530553       -68.8599 
 178   0.0000      -2.522323       -68.6359 
 179   0.0000      -2.516341       -68.4731 
 180   0.0000      -2.506190       -68.1969 
 181   0.0000      -2.502019       -68.0834 
 182   0.0000      -2.489958       -67.7552 
 183   0.0000      -2.479600       -67.4734 
 184   0.0000      -2.466561       -67.1185 
 185   0.0000      -2.464521       -67.0630 
 186   0.0000      -2.459593       -66.9289 
 187   0.0000      -2.450531       -66.6823 
 188   0.0000      -2.442220       -66.4562 
 189   0.0000      -2.438423       -66.3529 
 190   0.0000      -2.433003       -66.2054 
 191   0.0000      -2.416662       -65.7607 
 192   0.0000      -2.411436       -65.6185 
 193   0.0000      -2.408852       -65.5482 
 194   0.0000      -2.400784       -65.3286 
 195   0.0000      -2.392972       -65.1161 
 196   0.0000      -2.390103       -65.0380 
 197   0.0000      -2.375684       -64.6456 
 198   0.0000      -2.367035       -64.4103 
 199   0.0000      -2.361758       -64.2667 
 200   0.0000      -2.360315       -64.2274 
 201   0.0000      -2.354379       -64.0659 
 202   0.0000      -2.341376       -63.7121 
 203   0.0000      -2.335266       -63.5458 
 204   0.0000      -2.325360       -63.2763 
 205   0.0000      -2.321091       -63.1601 
 206   0.0000      -2.307830       -62.7993 
 207   0.0000      -2.305741       -62.7424 
 208   0.0000      -2.298069       -62.5336 
 209   0.0000      -2.289069       -62.2887 
 210   0.0000      -2.281030       -62.0700 
 211   0.0000      -2.268928       -61.7407 
 212   0.0000      -2.263740       -61.5995 
 213   0.0000      -2.262132       -61.5557 
 214   0.0000      -2.254576       -61.3501 
 215   0.0000      -2.252297       -61.2881 
 216   0.0000      -2.243524       -61.0494 
 217   0.0000      -2.235479       -60.8305 
 218   0.0000      -2.228799       -60.6487 
 219   0.0000      -2.223685       -60.5095 
 220   0.0000      -2.220606       -60.4258 
 221   0.0000      -2.212182       -60.1965 
 222   0.0000      -2.199742       -59.8580 
 223   0.0000      -2.189964       -59.5919 
 224   0.0000      -2.187069       -59.5132 
 225   0.0000      -2.175966       -59.2111 
 226   0.0000      -2.168449       -59.0065 
 227   0.0000      -2.167608       -58.9836 
 228   0.0000      -2.151772       -58.5527 
 229   0.0000      -2.147824       -58.4453 
 230   0.0000      -2.141545       -58.2744 
 231   0.0000      -2.133060       -58.0435 
 232   0.0000      -2.127719       -57.8982 
 233   0.0000      -2.112665       -57.4885 
 234   0.0000      -2.105823       -57.3024 
 235   0.0000      -2.099341       -57.1260 
 236   0.0000      -2.095399       -57.0187 
 237   0.0000      -2.086644       -56.7805 
 238   0.0000      -2.083231       -56.6876 
 239   0.0000      -2.080209       -56.6054 
 240   0.0000      -2.076707       -56.5101 
 241   0.0000      -2.065729       -56.2113 
 242   0.0000      -2.061782       -56.1039 
 243   0.0000      -2.048792       -55.7505 
 244   0.0000      -2.043490       -55.6062 
 245   0.0000      -2.033687       -55.3394 
 246   0.0000      -2.032143       -55.2974 
 247   0.0000      -2.026167       -55.1348 
 248   0.0000      -2.020073       -54.9690 
 249   0.0000      -2.015748       -54.8513 
 250   0.0000      -2.002015       -54.4776 
 251   0.0000      -1.995197       -54.2921 
 252   0.0000      -1.986941       -54.0674 
 253   0.0000      -1.986351       -54.0514 
 254   0.0000      -1.979719       -53.8709 
 255   0.0000      -1.968118       -53.5552 
 256   0.0000      -1.963505       -53.4297 
 257   0.0000      -1.958380       -53.2902 
 258   0.0000      -1.940671       -52.8083 
 259   0.0000      -1.934177       -52.6316 
 260   0.0000      -1.926101       -52.4119 
 261   0.0000      -1.918358       -52.2012 
 262   0.0000      -1.914076       -52.0847 
 263   0.0000      -1.896793       -51.6144 
 264   0.0000      -1.893697       -51.5301 
 265   0.0000      -1.890025       -51.4302 
 266   0.0000      -1.882558       -51.2270 
 267   0.0000      -1.863553       -50.7099 
 268   0.0000      -1.859083       -50.5882 
 269   0.0000      -1.854093       -50.4524 
 270   0.0000      -1.848084       -50.2889 
 271   0.0000      -1.829510       -49.7835 
 272   0.0000      -1.821803       -49.5738 
 273   0.0000      -1.815907       -49.4133 
 274   0.0000      -1.809845       -49.2484 
 275   0.0000      -1.801017       -49.0082 
 276   0.0000      -1.792824       -48.7852 
 277   0.0000      -1.778382       -48.3922 
 278   0.0000      -1.775409       -48.3113 
 279   0.0000      -1.768243       -48.1163 
 280   0.0000      -1.766197       -48.0607 
 281   0.0000      -1.756362       -47.7930 
 282   0.0000      -1.753502       -47.7152 
 283   0.0000      -1.746723       -47.5307 
 284   0.0000      -1.740344       -47.3572 
 285   0.0000      -1.735313       -47.2203 
 286   0.0000      -1.729372       -47.0586 
 287   0.0000      -1.724527       -46.9268 
 288   0.0000      -1.719488       -46.7896 
 289   0.0000      -1.716155       -46.6989 
 290   0.0000      -1.710242       -46.5380 
 291   0.0000      -1.698206       -46.2105 
 292   0.0000      -1.691088       -46.0168 
 293   0.0000      -1.682643       -45.7870 
 294   0.0000      -1.674507       -45.5657 
 295   0.0000      -1.666560       -45.3494 
 296   0.0000      -1.657980       -45.1159 
 297   0.0000      -1.656366       -45.0720 
 298   0.0000      -1.644288       -44.7433 
 299   0.0000      -1.638966       -44.5985 
 300   0.0000      -1.630943       -44.3802 
 301   0.0000      -1.628355       -44.3098 
 302   0.0000      -1.621819       -44.1319 
 303   0.0000      -1.604453       -43.6594 
 304   0.0000      -1.601419       -43.5768 
 305   0.0000      -1.588700       -43.2307 
 306   0.0000      -1.580644       -43.0115 
 307   0.0000      -1.571199       -42.7545 
 308   0.0000      -1.567091       -42.6427 
 309   0.0000      -1.562868       -42.5278 
 310   0.0000      -1.558180       -42.4002 
 311   0.0000      -1.544096       -42.0170 
 312   0.0000      -1.533599       -41.7313 
 313   0.0000      -1.521461       -41.4011 
 314   0.0000      -1.508190       -41.0399 
 315   0.0000      -1.498525       -40.7769 
 316   0.0000      -1.490746       -40.5653 
 317   0.0000      -1.484225       -40.3878 
 318   0.0000      -1.474991       -40.1366 
 319   0.0000      -1.467274       -39.9265 
 320   0.0000      -1.464979       -39.8641 
 321   0.0000      -1.458331       -39.6832 
 322   0.0000      -1.446879       -39.3716 
 323   0.0000      -1.434086       -39.0235 
 324   0.0000      -1.418193       -38.5910 
 325   0.0000      -1.409814       -38.3630 
 326   0.0000      -1.404319       -38.2135 
 327   0.0000      -1.393519       -37.9196 
 328   0.0000      -1.386484       -37.7281 
 329   0.0000      -1.369857       -37.2757 
 330   0.0000      -1.357676       -36.9442 
 331   0.0000      -1.348707       -36.7002 
 332   0.0000      -1.330191       -36.1963 
 333   0.0000      -1.323962       -36.0268 
 334   0.0000      -1.310044       -35.6481 
 335   0.0000      -1.299621       -35.3645 
 336   0.0000      -1.295564       -35.2541 
 337   0.0000      -1.289400       -35.0864 
 338   0.0000      -1.284273       -34.9469 
 339   0.0000      -1.280183       -34.8356 
 340   0.0000      -1.268987       -34.5309 
 341   0.0000      -1.260619       -34.3032 
 342   0.0000      -1.239385       -33.7254 
 343   0.0000      -1.199635       -32.6437 
 344   0.0000      -1.186888       -32.2969 
 345   0.0000      -1.168674       -31.8012 
 346   0.0000      -1.152781       -31.3688 
 347   0.0000      -1.147960       -31.2376 
 348   0.0000      -1.133709       -30.8498 
 349   0.0000      -1.121668       -30.5221 
 350   0.0000      -1.101127       -29.9632 
 351   0.0000      -1.076434       -29.2913 
 352   0.0000      -1.073771       -29.2188 
 353   0.0000      -1.055056       -28.7095 
 354   0.0000      -1.041231       -28.3333 
 355   0.0000      -1.028918       -27.9983 
 356   0.0000      -1.011259       -27.5177 
 357   0.0000      -0.999811       -27.2062 
 358   0.0000      -0.985921       -26.8283 
 359   0.0000      -0.983588       -26.7648 
 360   0.0000      -0.970653       -26.4128 
 361   0.0000      -0.946340       -25.7512 
 362   0.0000      -0.935300       -25.4508 
 363   0.0000      -0.919590       -25.0233 
 364   0.0000      -0.904423       -24.6106 
 365   0.0000      -0.900399       -24.5011 
 366   0.0000      -0.876154       -23.8414 
 367   0.0000      -0.863318       -23.4921 
 368   0.0000      -0.857409       -23.3313 
 369   0.0000      -0.846023       -23.0215 
 370   0.0000      -0.843126       -22.9426 
 371   0.0000      -0.819465       -22.2988 
 372   0.0000      -0.804223       -21.8840 
 373   0.0000      -0.795118       -21.6363 
 374   0.0000      -0.779528       -21.2120 
 375   0.0000      -0.772312       -21.0157 
 376   0.0000      -0.749000       -20.3813 
 377   0.0000      -0.735518       -20.0145 
 378   0.0000      -0.718658       -19.5557 
 379   0.0000      -0.716997       -19.5105 
 380   0.0000      -0.699667       -19.0389 
 381   0.0000      -0.692715       -18.8497 
 382   0.0000      -0.678531       -18.4638 
 383   0.0000      -0.658285       -17.9129 
 384   0.0000      -0.654990       -17.8232 
 385   0.0000      -0.643942       -17.5226 
 386   0.0000      -0.633531       -17.2393 
 387   0.0000      -0.616630       -16.7793 
 388   0.0000      -0.614946       -16.7335 
 389   0.0000      -0.599209       -16.3053 
 390   0.0000      -0.594207       -16.1692 
 391   0.0000      -0.565682       -15.3930 
 392   0.0000      -0.561547       -15.2805 
 393   0.0000      -0.555482       -15.1154 
 394   0.0000      -0.547257       -14.8916 
 395   0.0000      -0.533038       -14.5047 
 396   0.0000      -0.522239       -14.2108 
 397   0.0000      -0.517819       -14.0906 
 398   0.0000      -0.514115       -13.9898 
 399   0.0000      -0.505350       -13.7513 
 400   0.0000      -0.493851       -13.4384 
 401   0.0000      -0.484401       -13.1812 
 402   0.0000      -0.472508       -12.8576 
 403   0.0000      -0.462362       -12.5815 
 404   0.0000      -0.454625       -12.3710 
 405   0.0000      -0.443357       -12.0644 
 406   0.0000      -0.440658       -11.9909 
 407   0.0000      -0.427529       -11.6337 
 408   0.0000      -0.420227       -11.4350 
 409   0.0000      -0.409291       -11.1374 
 410   0.0000      -0.403612       -10.9828 
 411   0.0000      -0.387934       -10.5562 
 412   0.0000      -0.376374       -10.2417 
 413   0.0000      -0.366094        -9.9619 
 414   0.0000      -0.360699        -9.8151 
 415   0.0000      -0.354369        -9.6429 
 416   0.0000      -0.343270        -9.3409 
 417   0.0000      -0.335333        -9.1249 
 418   0.0000      -0.329557        -8.9677 
 419   0.0000      -0.312867        -8.5135 
 420   0.0000      -0.293099        -7.9756 
 421   0.0000      -0.291459        -7.9310 
 422   0.0000      -0.285198        -7.7606 
 423   0.0000      -0.279997        -7.6191 
 424   0.0000      -0.267530        -7.2799 
 425   0.0000      -0.264112        -7.1869 
 426   0.0000      -0.254058        -6.9133 
 427   0.0000      -0.241920        -6.5830 
 428   0.0000      -0.235219        -6.4006 
 429   0.0000      -0.226125        -6.1532 
 430   0.0000      -0.217872        -5.9286 
 431   0.0000      -0.215714        -5.8699 
 432   0.0000      -0.200464        -5.4549 
 433   0.0000      -0.194909        -5.3037 
 434   0.0000      -0.189949        -5.1688 
 435   0.0000      -0.188384        -5.1262 
 436   0.0000      -0.164422        -4.4742 
 437   0.0000      -0.160091        -4.3563 
 438   0.0000      -0.155532        -4.2322 
 439   0.0000      -0.153770        -4.1843 
 440   0.0000      -0.149850        -4.0776 
 441   0.0000      -0.139694        -3.8013 
 442   0.0000      -0.137458        -3.7404 
 443   0.0000      -0.127237        -3.4623 
 444   0.0000      -0.123851        -3.3701 
 445   0.0000      -0.114133        -3.1057 
 446   0.0000      -0.102398        -2.7864 
 447   0.0000      -0.098345        -2.6761 
 448   0.0000      -0.089334        -2.4309 
 449   0.0000      -0.084969        -2.3121 
 450   0.0000      -0.078108        -2.1254 
 451   0.0000      -0.062296        -1.6952 
 452   0.0000      -0.054945        -1.4951 
 453   0.0000      -0.047736        -1.2990 
 454   0.0000      -0.045898        -1.2490 
 455   0.0000      -0.039928        -1.0865 
 456   0.0000      -0.022574        -0.6143 
 457   0.0000      -0.012740        -0.3467 
 458   0.0000      -0.010618        -0.2889 
 459   0.0000      -0.006335        -0.1724 
 460   0.0000      -0.000692        -0.0188 
 461   0.0000       0.007917         0.2154 
 462   0.0000       0.012763         0.3473 
 463   0.0000       0.019301         0.5252 
 464   0.0000       0.027278         0.7423 
 465   0.0000       0.034630         0.9423 
 466   0.0000       0.045930         1.2498 
 467   0.0000       0.052772         1.4360 
 468   0.0000       0.053020         1.4427 
 469   0.0000       0.060700         1.6517 
 470   0.0000       0.063266         1.7215 
 471   0.0000       0.079220         2.1557 
 472   0.0000       0.084612         2.3024 
 473   0.0000       0.088271         2.4020 
 474   0.0000       0.092588         2.5194 
 475   0.0000       0.105179         2.8621 
 476   0.0000       0.107139         2.9154 
 477   0.0000       0.113403         3.0858 
 478   0.0000       0.117476         3.1967 
 479   0.0000       0.123158         3.3513 
 480   0.0000       0.134692         3.6652 
 481   0.0000       0.136022         3.7013 
 482   0.0000       0.144003         3.9185 
 483   0.0000       0.149187         4.0596 
 484   0.0000       0.153407         4.1744 
 485   0.0000       0.157431         4.2839 
 486   0.0000       0.162227         4.4144 
 487   0.0000       0.172430         4.6921 
 488   0.0000       0.172748         4.7007 
 489   0.0000       0.179359         4.8806 
 490   0.0000       0.183571         4.9952 
 491   0.0000       0.189696         5.1619 
 492   0.0000       0.190776         5.1913 
 493   0.0000       0.197160         5.3650 
 494   0.0000       0.204137         5.5549 
 495   0.0000       0.209686         5.7059 
 496   0.0000       0.219035         5.9602 
 497   0.0000       0.233020         6.3408 
 498   0.0000       0.240631         6.5479 
 499   0.0000       0.249138         6.7794 
 500   0.0000       0.250735         6.8228 
 501   0.0000       0.259301         7.0559 
 502   0.0000       0.262318         7.1380 
 503   0.0000       0.276612         7.5270 
 504   0.0000       0.280802         7.6410 
 505   0.0000       0.290470         7.9041 
 506   0.0000       0.297678         8.1002 
 507   0.0000       0.305219         8.3054 
 508   0.0000       0.306021         8.3273 
 509   0.0000       0.316894         8.6231 
 510   0.0000       0.324965         8.8428 
 511   0.0000       0.336935         9.1685 
 512   0.0000       0.341758         9.2997 
 513   0.0000       0.348183         9.4745 
 514   0.0000       0.354084         9.6351 
 515   0.0000       0.358164         9.7461 
 516   0.0000       0.364445         9.9170 
 517   0.0000       0.368557        10.0290 
 518   0.0000       0.376277        10.2390 
 519   0.0000       0.382445        10.4069 
 520   0.0000       0.387430        10.5425 
 521   0.0000       0.396418        10.7871 
 522   0.0000       0.398594        10.8463 
 523   0.0000       0.403222        10.9722 
 524   0.0000       0.405901        11.0451 
 525   0.0000       0.418664        11.3924 
 526   0.0000       0.423145        11.5144 
 527   0.0000       0.426930        11.6174 
 528   0.0000       0.440472        11.9859 
 529   0.0000       0.443799        12.0764 
 530   0.0000       0.452904        12.3242 
 531   0.0000       0.459264        12.4972 
 532   0.0000       0.462347        12.5811 
 533   0.0000       0.470243        12.7960 
 534   0.0000       0.473784        12.8923 
 535   0.0000       0.484991        13.1973 
 536   0.0000       0.486590        13.2408 
 537   0.0000       0.494254        13.4493 
 538   0.0000       0.505389        13.7523 
 539   0.0000       0.511454        13.9174 
 540   0.0000       0.518191        14.1007 
 541   0.0000       0.525963        14.3122 
 542   0.0000       0.532394        14.4872 
 543   0.0000       0.539281        14.6746 
 544   0.0000       0.550415        14.9775 
 545   0.0000       0.556348        15.1390 
 546   0.0000       0.564650        15.3649 
 547   0.0000       0.573962        15.6183 
 548   0.0000       0.574305        15.6276 
 549   0.0000       0.585622        15.9356 
 550   0.0000       0.592044        16.1103 
 551   0.0000       0.603245        16.4151 
 552   0.0000       0.612076        16.6554 
 553   0.0000       0.626713        17.0537 
 554   0.0000       0.630062        17.1449 
 555   0.0000       0.642254        17.4766 
 556   0.0000       0.650865        17.7109 
 557   0.0000       0.655401        17.8344 
 558   0.0000       0.664527        18.0827 
 559   0.0000       0.669501        18.2181 
 560   0.0000       0.677253        18.4290 
 561   0.0000       0.689815        18.7708 
 562   0.0000       0.700890        19.0722 
 563   0.0000       0.709777        19.3140 
 564   0.0000       0.714957        19.4550 
 565   0.0000       0.720508        19.6060 
 566   0.0000       0.734075        19.9752 
 567   0.0000       0.747178        20.3317 
 568   0.0000       0.759856        20.6767 
 569   0.0000       0.760851        20.7038 
 570   0.0000       0.764808        20.8115 
 571   0.0000       0.765326        20.8256 
 572   0.0000       0.773857        21.0577 
 573   0.0000       0.778184        21.1754 
 574   0.0000       0.794117        21.6090 
 575   0.0000       0.803008        21.8510 
 576   0.0000       0.816969        22.2308 
 577   0.0000       0.825247        22.4561 
 578   0.0000       0.828867        22.5546 
 579   0.0000       0.837806        22.7979 
 580   0.0000       0.852530        23.1985 
 581   0.0000       0.862127        23.4597 
 582   0.0000       0.869374        23.6569 
 583   0.0000       0.876509        23.8510 
 584   0.0000       0.882721        24.0201 
 585   0.0000       0.887928        24.1618 
 586   0.0000       0.890598        24.2344 
 587   0.0000       0.907562        24.6960 
 588   0.0000       0.912971        24.8432 
 589   0.0000       0.920104        25.0373 
 590   0.0000       0.921631        25.0789 
 591   0.0000       0.931095        25.3364 
 592   0.0000       0.934304        25.4237 
 593   0.0000       0.940711        25.5981 
 594   0.0000       0.945725        25.7345 
 595   0.0000       0.946642        25.7594 
 596   0.0000       0.959199        26.1011 
 597   0.0000       0.966939        26.3118 
 598   0.0000       0.974348        26.5134 
 599   0.0000       0.978622        26.6297 
 600   0.0000       0.981429        26.7061 
 601   0.0000       0.998993        27.1840 
 602   0.0000       1.001088        27.2410 
 603   0.0000       1.011450        27.5230 
 604   0.0000       1.016239        27.6533 
 605   0.0000       1.026480        27.9319 
 606   0.0000       1.037553        28.2333 
 607   0.0000       1.054159        28.6851 
 608   0.0000       1.063903        28.9503 
 609   0.0000       1.068676        29.0802 
 610   0.0000       1.076884        29.3035 
 611   0.0000       1.084220        29.5031 
 612   0.0000       1.091476        29.7006 
 613   0.0000       1.092483        29.7280 
 614   0.0000       1.096570        29.8392 
 615   0.0000       1.108663        30.1683 
 616   0.0000       1.110531        30.2191 
 617   0.0000       1.113133        30.2899 
 618   0.0000       1.124731        30.6055 
 619   0.0000       1.136562        30.9274 
 620   0.0000       1.144045        31.1310 
 621   0.0000       1.147870        31.2351 
 622   0.0000       1.150789        31.3146 
 623   0.0000       1.167012        31.7560 
 624   0.0000       1.170261        31.8444 
 625   0.0000       1.177886        32.0519 
 626   0.0000       1.197698        32.5910 
 627   0.0000       1.203164        32.7398 
 628   0.0000       1.209648        32.9162 
 629   0.0000       1.213646        33.0250 
 630   0.0000       1.229660        33.4608 
 631   0.0000       1.238154        33.6919 
 632   0.0000       1.247044        33.9338 
 633   0.0000       1.255848        34.1734 
 634   0.0000       1.261885        34.3376 
 635   0.0000       1.271818        34.6079 
 636   0.0000       1.284789        34.9609 
 637   0.0000       1.291519        35.1440 
 638   0.0000       1.292777        35.1783 
 639   0.0000       1.304547        35.4985 
 640   0.0000       1.313307        35.7369 
 641   0.0000       1.323771        36.0216 
 642   0.0000       1.329229        36.1701 
 643   0.0000       1.336271        36.3618 
 644   0.0000       1.350174        36.7401 
 645   0.0000       1.359306        36.9886 
 646   0.0000       1.360816        37.0297 
 647   0.0000       1.369195        37.2577 
 648   0.0000       1.377508        37.4839 
 649   0.0000       1.389111        37.7996 
 650   0.0000       1.394325        37.9415 
 651   0.0000       1.402606        38.1669 
 652   0.0000       1.403338        38.1868 
 653   0.0000       1.422687        38.7133 
 654   0.0000       1.426007        38.8036 
 655   0.0000       1.436238        39.0820 
 656   0.0000       1.451323        39.4925 
 657   0.0000       1.454366        39.5753 
 658   0.0000       1.469874        39.9973 
 659   0.0000       1.491171        40.5768 
 660   0.0000       1.507083        41.0098 
 661   0.0000       1.520334        41.3704 
 662   0.0000       1.533866        41.7386 
 663   0.0000       1.549453        42.1628 
 664   0.0000       1.562233        42.5105 
 665   0.0000       1.578957        42.9656 
 666   0.0000       1.592709        43.3398 
 667   0.0000       1.600557        43.5534 
 668   0.0000       1.613141        43.8958 
 669   0.0000       1.633799        44.4579 
 670   0.0000       1.647413        44.8284 
 671   0.0000       1.652342        44.9625 
 672   0.0000       1.676202        45.6118 
 673   0.0000       1.689144        45.9639 
 674   0.0000       1.698687        46.2236 
 675   0.0000       1.729085        47.0508 
 676   0.0000       1.731203        47.1084 
 677   0.0000       1.741851        47.3982 
 678   0.0000       1.760498        47.9056 
 679   0.0000       1.767362        48.0924 
 680   0.0000       1.782624        48.5077 
 681   0.0000       1.792543        48.7776 
 682   0.0000       1.794950        48.8431 
 683   0.0000       1.801885        49.0318 
 684   0.0000       1.839516        50.0558 
 685   0.0000       1.852362        50.4053 
 686   0.0000       1.860844        50.6361 
 687   0.0000       1.872598        50.9560 
 688   0.0000       1.895105        51.5684 
 689   0.0000       1.902034        51.7570 
 690   0.0000       1.910652        51.9915 
 691   0.0000       1.919637        52.2360 
 692   0.0000       1.924260        52.3618 
 693   0.0000       1.937057        52.7100 
 694   0.0000       1.948170        53.0124 
 695   0.0000       1.960416        53.3456 
 696   0.0000       1.963015        53.4164 
 697   0.0000       1.976961        53.7958 
 698   0.0000       1.984865        54.0109 
 699   0.0000       1.995883        54.3107 
 700   0.0000       2.006030        54.5868 
 701   0.0000       2.035474        55.3881 
 702   0.0000       2.050548        55.7983 
 703   0.0000       2.061913        56.1075 
 704   0.0000       2.079412        56.5837 
 705   0.0000       2.082177        56.6589 
 706   0.0000       2.096698        57.0541 
 707   0.0000       2.107545        57.3492 
 708   0.0000       2.123363        57.7797 
 709   0.0000       2.136552        58.1385 
 710   0.0000       2.143809        58.3360 
 711   0.0000       2.179323        59.3024 
 712   0.0000       2.186872        59.5078 
 713   0.0000       2.194540        59.7165 
 714   0.0000       2.222749        60.4841 
 715   0.0000       2.233160        60.7674 
 716   0.0000       2.235080        60.8196 
 717   0.0000       2.243234        61.0415 
 718   0.0000       2.261847        61.5480 
 719   0.0000       2.266462        61.6736 
 720   0.0000       2.273321        61.8602 
 721   0.0000       2.299970        62.5854 
 722   0.0000       2.310985        62.8851 
 723   0.0000       2.315411        63.0055 
 724   0.0000       2.322416        63.1962 
 725   0.0000       2.339582        63.6633 
 726   0.0000       2.351882        63.9980 
 727   0.0000       2.358250        64.1712 
 728   0.0000       2.371572        64.5337 
 729   0.0000       2.377305        64.6897 
 730   0.0000       2.391747        65.0828 
 731   0.0000       2.404861        65.4396 
 732   0.0000       2.410159        65.5837 
 733   0.0000       2.417902        65.7945 
 734   0.0000       2.429973        66.1229 
 735   0.0000       2.460086        66.9423 
 736   0.0000       2.462098        66.9971 
 737   0.0000       2.464330        67.0578 
 738   0.0000       2.470438        67.2240 
 739   0.0000       2.486010        67.6478 
 740   0.0000       2.510975        68.3271 
 741   0.0000       2.527764        68.7839 
 742   0.0000       2.543029        69.1993 
 743   0.0000       2.568930        69.9041 
 744   0.0000       2.590252        70.4843 
 745   0.0000       2.604735        70.8785 
 746   0.0000       2.618017        71.2399 
 747   0.0000       2.629553        71.5538 
 748   0.0000       2.640300        71.8462 
 749   0.0000       2.649984        72.1097 
 750   0.0000       2.675207        72.7961 
 751   0.0000       2.695549        73.3496 
 752   0.0000       2.727790        74.2269 
 753   0.0000       2.730443        74.2991 
 754   0.0000       2.753142        74.9168 
 755   0.0000       2.780502        75.6613 
 756   0.0000       2.795497        76.0694 
 757   0.0000       2.822105        76.7934 
 758   0.0000       2.837734        77.2187 
 759   0.0000       2.862642        77.8965 
 760   0.0000       2.890933        78.6663 
 761   0.0000       2.917502        79.3893 
 762   0.0000       2.926597        79.6368 
 763   0.0000       2.946648        80.1824 
 764   0.0000       2.959330        80.5275 
 765   0.0000       2.964588        80.6705 
 766   0.0000       3.006134        81.8011 
 767   0.0000       3.034778        82.5805 
 768   0.0000       3.056947        83.1838 
 769   0.0000       3.058064        83.2141 
 770   0.0000       3.066664        83.4482 
 771   0.0000       3.096428        84.2581 
 772   0.0000       3.118298        84.8532 
 773   0.0000       3.147270        85.6416 
 774   0.0000       3.198192        87.0272 
 775   0.0000       3.206908        87.2644 
 776   0.0000       3.234139        88.0054 
 777   0.0000       3.264880        88.8419 
 778   0.0000       3.284988        89.3891 
 779   0.0000       3.340859        90.9094 
 780   0.0000       3.407300        92.7173 
 781   0.0000       3.423626        93.1616 
 782   0.0000       3.458195        94.1023 
 783   0.0000       3.492595        95.0383 
 784   0.0000       3.520841        95.8070 
 785   0.0000       3.559113        96.8484 
 786   0.0000       3.629656        98.7680 
 787   0.0000       3.633405        98.8700 
 788   0.0000       3.650669        99.3398 
 789   0.0000       3.751613       102.0866 
 790   0.0000       3.797469       103.3344 
 791   0.0000       3.823329       104.0381 
 792   0.0000       3.845805       104.6497 
 793   0.0000       3.876701       105.4904 
 794   0.0000       3.896358       106.0253 
 795   0.0000       3.946230       107.3824 
 796   0.0000       3.996816       108.7589 
 797   0.0000       4.011870       109.1685 
 798   0.0000       4.065359       110.6240 
 799   0.0000       4.066569       110.6570 
 800   0.0000       4.195188       114.1569 
 801   0.0000       4.222341       114.8957 
 802   0.0000       4.296732       116.9200 
 803   0.0000       4.299383       116.9922 
 804   0.0000       4.413136       120.0875 
 805   0.0000       4.541713       123.5863 
 806   0.0000       4.581300       124.6635 
 807   0.0000       4.638937       126.2319 
 808   0.0000       4.722188       128.4973 
 809   0.0000       6.056376       164.8024 
 810   0.0000       6.547704       178.1721 
 811   0.0000       7.671304       208.7468 
 812   0.0000       8.116412       220.8588 
 813   0.0000       8.604729       234.1466 
 814   0.0000       9.034588       245.8436 
 815   0.0000       9.394439       255.6357 
 816   0.0000       9.587538       260.8902 
 817   0.0000       9.736524       264.9443 
 818   0.0000       9.831560       267.5303 
 819   0.0000      10.162759       276.5427 
 820   0.0000      10.536165       286.7036 
 821   0.0000      10.587060       288.0885 
 822   0.0000      10.673912       290.4519 
 823   0.0000      11.005236       299.4677 
 824   0.0000      11.195963       304.6576 
 825   0.0000      11.712349       318.7092 
 826   0.0000      11.972335       325.7838 
 827   0.0000      12.224923       332.6571 

                    ********************************
                    * MULLIKEN POPULATION ANALYSIS *
                    ********************************

-----------------------
MULLIKEN ATOMIC CHARGES
-----------------------
   0 C :   -0.285520
   1 C :    0.021513
   2 O :   -0.334841
   3 C :    0.523361
   4 O :   -0.562569
   5 C :   -0.126988
   6 C :    0.151829
   7 C :   -0.281666
   8 N :   -0.096800
   9 C :    0.323533
  10 S :   -0.750101
  11 N :   -0.208705
  12 C :    0.051879
  13 C :    0.019523
  14 C :   -0.302512
  15 C :   -0.170191
  16 C :   -0.277235
  17 C :    0.291634
  18 O :   -0.438736
  19 C :   -0.211393
  20 H :    0.104321
  21 H :    0.091958
  22 H :    0.113292
  23 H :    0.103869
  24 H :    0.128103
  25 H :    0.123203
  26 H :    0.130741
  27 H :    0.134404
  28 H :    0.259166
  29 H :    0.236323
  30 H :    0.177887
  31 H :    0.190967
  32 H :    0.207519
  33 H :    0.176621
  34 H :    0.331341
  35 H :    0.154267
Sum of atomic charges:    0.0000000

--------------------------------
MULLIKEN REDUCED ORBITAL CHARGES
--------------------------------
  0 C s       :     3.263171  s :     3.263171
      pz      :     0.985046  p :     2.946699
      px      :     0.992767
      py      :     0.968886
      dz2     :     0.005796  d :     0.071149
      dxz     :     0.019244
      dyz     :     0.018960
      dx2y2   :     0.008522
      dxy     :     0.018628
      f0      :     0.000281  f :     0.004501
      f+1     :     0.000300
      f-1     :     0.000587
      f+2     :     0.000649
      f-2     :     0.001916
      f+3     :     0.000499
      f-3     :     0.000267
  1 C s       :     3.173638  s :     3.173638
      pz      :     0.941541  p :     2.643254
      px      :     0.854631
      py      :     0.847082
      dz2     :     0.018157  d :     0.150075
      dxz     :     0.038160
      dyz     :     0.036723
      dx2y2   :     0.025352
      dxy     :     0.031683
      f0      :     0.000763  f :     0.011519
      f+1     :     0.001472
      f-1     :     0.001380
      f+2     :     0.001618
      f-2     :     0.003141
      f+3     :     0.001483
      f-3     :     0.001662
  2 O s       :     3.721590  s :     3.721590
      pz      :     1.345474  p :     4.577243
      px      :     1.583508
      py      :     1.648261
      dz2     :     0.009745  d :     0.033786
      dxz     :     0.005779
      dyz     :     0.008269
      dx2y2   :     0.003230
      dxy     :     0.006763
      f0      :     0.000461  f :     0.002222
      f+1     :     0.000536
      f-1     :     0.000317
      f+2     :     0.000213
      f-2     :     0.000419
[...]
 15 C s       :     2.712853  s :     2.712853
      pz      :     0.837861  p :     2.800860
      px      :     0.962920
      py      :     1.000079
      dz2     :     0.028320  d :     0.410360
      dxz     :     0.041322
      dyz     :     0.086030
      dx2y2   :     0.118172
      dxy     :     0.136515
      f0      :     0.003001  f :     0.039572
      f+1     :     0.002328
      f-1     :     0.003964
      f+2     :     0.006574
      f-2     :     0.003897
      f+3     :     0.012366
      f-3     :     0.007442
 16 C s       :     2.708249  s :     2.708249
      pz      :     0.908004  p :     2.864315
      px      :     0.960142
      py      :     0.996170
      dz2     :     0.034406  d :     0.383842
      dxz     :     0.038342
      dyz     :     0.070303
      dx2y2   :     0.103334
      dxy     :     0.137457
      f0      :     0.003243  f :     0.038868
      f+1     :     0.002762
      f-1     :     0.003234
      f+2     :     0.006378
      f-2     :     0.003846
      f+3     :     0.011727
      f-3     :     0.007678
 17 C s       :     2.708544  s :     2.708544
      pz      :     0.839865  p :     2.684211
      px      :     1.011584
      py      :     0.832762
      dz2     :     0.067644  d :     0.702809
      dxz     :     0.075685
      dyz     :     0.156670
      dx2y2   :     0.199322
      dxy     :     0.203488
      f0      :     0.008824  f :     0.098027
      f+1     :     0.004885
      f-1     :     0.009628
      f+2     :     0.018945
      f-2     :     0.007018
      f+3     :     0.032331
      f-3     :     0.016396
 18 O s       :     3.180048  s :     3.180048
      pz      :     1.602547  p :     4.380699
      px      :     1.462319
      py      :     1.315833
      dz2     :     0.006554  d :     0.073325
      dxz     :     0.005270
      dyz     :     0.014607
      dx2y2   :     0.027901
      dxy     :     0.018993
      f0      :     0.000507  f :     0.005326
      f+1     :     0.000284
      f-1     :     0.000532
      f+2     :     0.000860
      f-2     :     0.000177
      f+3     :     0.001557
      f-3     :     0.001409
 19 C s       :     2.697559  s :     2.697559
      pz      :     0.902254  p :     2.857692
      px      :     0.958072
      py      :     0.997366
      dz2     :     0.029576  d :     0.398483
      dxz     :     0.037237
      dyz     :     0.071728
      dx2y2   :     0.110894
      dxy     :     0.149049
      f0      :     0.002773  f :     0.041536
      f+1     :     0.002877
      f-1     :     0.004320
      f+2     :     0.006138
      f-2     :     0.004238
      f+3     :     0.012694
      f-3     :     0.008496
 20 H s       :     0.843003  s :     0.843003
      pz      :     0.044525  p :     0.151189
      px      :     0.062336
      py      :     0.044327
      dz2     :     0.003908  d :     0.027945
      dxz     :     0.006873
      dyz     :     0.003744
      dx2y2   :     0.006964
      dxy     :     0.006456
 21 H s       :     0.851810  s :     0.851810
      pz      :     0.051953  p :     0.151848
      px      :     0.042534
      py      :     0.057361
      dz2     :     0.006095  d :     0.027407
      dxz     :     0.004463
      dyz     :     0.006570
      dx2y2   :     0.004807
      dxy     :     0.005472
 22 H s       :     0.841212  s :     0.841212
      pz      :     0.058033  p :     0.150344
      px      :     0.047906
      py      :     0.044405
      dz2     :     0.007540  d :     0.027360
      dxz     :     0.005885
      dyz     :     0.006254
      dx2y2   :     0.003548
      dxy     :     0.004134
 23 H s       :     0.855803  s :     0.855803
      pz      :     0.054075  p :     0.148500
      px      :     0.051514
      py      :     0.042911
      dz2     :     0.004834  d :     0.027374
      dxz     :     0.007280
      dyz     :     0.005777
      dx2y2   :     0.004723
      dxy     :     0.004761
 24 H s       :     0.844017  s :     0.844017
      pz      :     0.056987  p :     0.145356
      px      :     0.046813
      py      :     0.041556
      dz2     :     0.007318  d :     0.027028
      dxz     :     0.006258
      dyz     :     0.005493
      dx2y2   :     0.002935
      dxy     :     0.005024
 25 H s       :     0.832506  s :     0.832506
      pz      :     0.033984  p :     0.147338
      px      :     0.041845
      py      :     0.071509
      dz2     :     0.002429  d :     0.027433
      dxz     :     0.000367
      dyz     :     0.008453
      dx2y2   :     0.007747
      dxy     :     0.008437
 26 H s       :     0.822946  s :     0.822946
      pz      :     0.058008  p :     0.152067
      px      :     0.045245
      py      :     0.048815
      dz2     :     0.008195  d :     0.028001
      dxz     :     0.005551
      dyz     :     0.006056
      dx2y2   :     0.004848
      dxy     :     0.003351
 27 H s       :     0.821075  s :     0.821075
      pz      :     0.038072  p :     0.151866
      px      :     0.074667
      py      :     0.039126
      dz2     :     0.002506  d :     0.027950
      dxz     :     0.008982
      dyz     :     0.000097
      dx2y2   :     0.007358
      dxy     :     0.009007
 28 H s       :     0.705409  s :     0.705409
      pz      :     0.052710  p :     0.247313
      px      :     0.087085
      py      :     0.107518
      dz2     :     0.007820  d :     0.060368
      dxz     :     0.006408
      dyz     :     0.012775
      dx2y2   :     0.017967
      dxy     :     0.015398
 29 H s       :     0.726054  s :     0.726054
      pz      :     0.121589  p :     0.253876
      px      :     0.086127
      py      :     0.046159
      dz2     :     0.021098  d :     0.060885
      dxz     :     0.021955
      dyz     :     0.015389
      dx2y2   :     0.001114
      dxy     :     0.001330
 30 H s       :     0.820174  s :     0.820174
      pz      :     0.041286  p :     0.147825
      px      :     0.055032
      py      :     0.051508
      dz2     :     0.004246  d :     0.028349
      dxz     :     0.004800
      dyz     :     0.005888
      dx2y2   :     0.006919
      dxy     :     0.006497
 31 H s       :     0.843693  s :     0.843693
      pz      :     0.045662  p :     0.163786
      px      :     0.036514
      py      :     0.081609
      dz2     :     0.002504  d :     0.027817
      dxz     :     0.000082
      dyz     :     0.008564
      dx2y2   :     0.007920
      dxy     :     0.008748
 32 H s       :     0.831078  s :     0.831078
      pz      :     0.042305  p :     0.152370
      px      :     0.068374
      py      :     0.041691
      dz2     :     0.003239  d :     0.026662
      dxz     :     0.005976
      dyz     :     0.002352
      dx2y2   :     0.007656
      dxy     :     0.007438
 33 H s       :     0.832317  s :     0.832317
      pz      :     0.047976  p :     0.158983
      px      :     0.066717
      py      :     0.044291
      dz2     :     0.003299  d :     0.027674
      dxz     :     0.006079
      dyz     :     0.002879
      dx2y2   :     0.008127
      dxy     :     0.007290
 34 H s       :     0.665464  s :     0.665464
      pz      :     0.108413  p :     0.342414
      px      :     0.162469
      py      :     0.071531
      dz2     :     0.016566  d :     0.099914
      dxz     :     0.028290
      dyz     :     0.006535
      dx2y2   :     0.026426
      dxy     :     0.022097
 35 H s       :     0.838472  s :     0.838472
      pz      :     0.047027  p :     0.158259
      px      :     0.069182
      py      :     0.042050
      dz2     :     0.003058  d :     0.028253
      dxz     :     0.006458
      dyz     :     0.002434
      dx2y2   :     0.008315
      dxy     :     0.007987


                      *****************************
                      * MAYER POPULATION ANALYSIS *
                      *****************************

  NA   - Mulliken gross atomic population
  ZA   - Total nuclear charge
  QA   - Mulliken gross atomic charge
  VA   - Mayer's total valence
  BVA  - Mayer's bonded valence
  FA   - Mayer's free valence

  ATOM       NA         ZA         QA         VA         BVA        FA
  0 C      6.2855     6.0000    -0.2855     3.8695     3.8695     0.0000
  1 C      5.9785     6.0000     0.0215     3.8325     3.8325    -0.0000
  2 O      8.3348     8.0000    -0.3348     2.0971     2.0971     0.0000
  3 C      5.4766     6.0000     0.5234     4.2003     4.2003     0.0000
  4 O      8.5626     8.0000    -0.5626     1.9728     1.9728     0.0000
  5 C      6.1270     6.0000    -0.1270     3.6132     3.6132     0.0000
  6 C      5.8482     6.0000     0.1518     3.8700     3.8700     0.0000
  7 C      6.2817     6.0000    -0.2817     3.8904     3.8904     0.0000
  8 N      7.0968     7.0000    -0.0968     3.4309     3.4309    -0.0000
  9 C      5.6765     6.0000     0.3235     4.0149     4.0149    -0.0000
 10 S     16.7501    16.0000    -0.7501     1.3835     1.3835     0.0000
 11 N      7.2087     7.0000    -0.2087     3.3201     3.3201    -0.0000
 12 C      5.9481     6.0000     0.0519     3.9382     3.9382     0.0000
 13 C      5.9805     6.0000     0.0195     3.7256     3.7256    -0.0000
 14 C      6.3025     6.0000    -0.3025     3.8275     3.8275    -0.0000
 15 C      6.1702     6.0000    -0.1702     3.7841     3.7841    -0.0000
 16 C      6.2772     6.0000    -0.2772     3.7649     3.7649     0.0000
 17 C      5.7084     6.0000     0.2916     3.8734     3.8734     0.0000
 18 O      8.4387     8.0000    -0.4387     2.0575     2.0575    -0.0000
 19 C      6.2114     6.0000    -0.2114     3.8099     3.8099     0.0000
 20 H      0.8957     1.0000     0.1043     0.9841     0.9841    -0.0000
 21 H      0.9080     1.0000     0.0920     0.9927     0.9927    -0.0000
 22 H      0.8867     1.0000     0.1133     0.9797     0.9797    -0.0000
 23 H      0.8961     1.0000     0.1039     0.9882     0.9882    -0.0000
 24 H      0.8719     1.0000     0.1281     0.9774     0.9774    -0.0000
 25 H      0.8768     1.0000     0.1232     0.9873     0.9873    -0.0000
 26 H      0.8693     1.0000     0.1307     0.9812     0.9812     0.0000
 27 H      0.8656     1.0000     0.1344     0.9792     0.9792     0.0000
 28 H      0.7408     1.0000     0.2592     0.9621     0.9621    -0.0000
 29 H      0.7637     1.0000     0.2363     0.9784     0.9784     0.0000
 30 H      0.8221     1.0000     0.1779     0.9965     0.9965     0.0000
 31 H      0.8090     1.0000     0.1910     0.9715     0.9715    -0.0000
 32 H      0.7925     1.0000     0.2075     0.9618     0.9618     0.0000
 33 H      0.8234     1.0000     0.1766     0.9785     0.9785     0.0000
 34 H      0.6687     1.0000     0.3313     0.9316     0.9316    -0.0000
 35 H      0.8457     1.0000     0.1543     0.9973     0.9973     0.0000

  Mayer bond orders larger than 0.100000
B(  0-C ,  1-C ) :   0.9629 B(  0-C , 20-H ) :   0.9723 B(  0-C , 21-H ) :   0.9788 
B(  0-C , 22-H ) :   0.9746 B(  1-C ,  2-O ) :   0.8741 B(  1-C , 23-H ) :   0.9806 
B(  1-C , 24-H ) :   0.9832 B(  2-O ,  3-C ) :   1.1993 B(  3-C ,  4-O ) :   1.8748 
B(  3-C ,  5-C ) :   1.0918 B(  5-C ,  6-C ) :   1.6458 B(  5-C , 12-C ) :   0.9561 
B(  6-C ,  7-C ) :   0.9591 B(  6-C ,  8-N ) :   1.1294 B(  7-C , 25-H ) :   0.9864 
B(  7-C , 26-H ) :   0.9619 B(  7-C , 27-H ) :   0.9587 B(  8-N ,  9-C ) :   1.3281 
B(  8-N , 28-H ) :   0.9175 B(  9-C , 10-S ) :   1.2276 B(  9-C , 11-N ) :   1.3597 
B( 11-N , 12-C ) :   0.9758 B( 11-N , 29-H ) :   0.9341 B( 12-C , 13-C ) :   0.9498 
B( 12-C , 30-H ) :   0.9881 B( 13-C , 14-C ) :   1.3294 B( 13-C , 19-C ) :   1.3971 
B( 14-C , 15-C ) :   1.4152 B( 14-C , 31-H ) :   0.9594 B( 15-C , 16-C ) :   1.3349 
B( 15-C , 32-H ) :   0.9540 B( 16-C , 17-C ) :   1.3534 B( 16-C , 33-H ) :   0.9728 
B( 17-C , 18-O ) :   1.1067 B( 17-C , 19-C ) :   1.3305 B( 18-O , 34-H ) :   0.9136 
B( 19-C , 35-H ) :   0.9615 

-------
TIMINGS
-------

Total SCF time: 0 days 1 hours 57 min 5 sec 

Total time                  ....    7025.682 sec
Sum of individual times     ....    7017.503 sec  ( 99.9%)

Fock matrix formation       ....    7002.074 sec  ( 99.7%)
Diagonalization             ....       1.492 sec  (  0.0%)
Density matrix formation    ....       0.186 sec  (  0.0%)
Population analysis         ....       0.390 sec  (  0.0%)
Initial guess               ....       6.107 sec  (  0.1%)
Orbital Transformation      ....       0.000 sec  (  0.0%)
Orbital Orthonormalization  ....       0.000 sec  (  0.0%)
DIIS solution               ....       2.917 sec  (  0.0%)
SOSCF solution              ....       2.860 sec  (  0.0%)

Maximum memory used throughout the entire SCF-calculation: 726.8 MB

------------------------------------------------------------------------------
                                ORCA  MP2 
------------------------------------------------------------------------------

Freezing NCore=48 chemical core electrons

-------------
RI-MP2 ENERGY
-------------
Dimension of the basis                    ...  828
Memory devoted to MP2                     ...  256 MB   
Data format for buffers                   ... DOUBLE
Compression type for matrix containers    ... UNCOMPRESSED
Overall scaling of the MP2 energy         ...   1.000e+00
Calculating two index integrals           ... done (    0.045 sec)
Cholesky decomposition of V**-1           ... done (    0.592 sec)

-----------------
RI-TRANSFORMATION (AUX index driven)
-----------------

Dimension of the orbital-basis         ... 828
Dimension of the aux-basis             ... 2141
Transformation of internal/external MOs...   24-  76 to   77- 827
Number Format for Storage              ... Double (8 Byte)
Integral mode                          ... Direct

First Phase: integral generation and transformation of MO indices
  Aux angular momentum 0               ... done (    5.256 sec)
  Aux angular momentum 1               ... done (    8.682 sec)
  Aux angular momentum 2               ... done (   11.317 sec)
  Aux angular momentum 3               ... done (    9.097 sec)
  Aux angular momentum 4               ... done (    3.195 sec)
Closing buffer VIA ( 0.63 GB; CompressionRatio= 1.00)
  Phase 1 completed in    37.957 sec
Second Phase: sorting and transformation of aux index

IA-Transformation
Memory available                       ... 158 MB 
Max. # MO pairs treated in a batch     ... 11    
# of internal orbitals                 ... 53
# batches for internal orbitals        ... 5
Closing buffer IAV ( 0.63 GB; CompressionRatio= 1.00)
(ia|v) transformation done in    25.772 sec

  Phase 2 completed in    25.780 sec
RI-Integral transformation completed in    63.821 sec
Opening buffers                              ... done

Starting loop over batches of integrals:

Operator 0  - window                       ... ( 24- 76)x( 77-827)
Operator 0  - Memory available             ...   256 MB
Operator 0  - Memory needed per MO         ...  12.3 MB
Operator 0  - Number of orbitals per batch ... 13
Operator 0  - Number of batches            ... 5

OPERATOR  0   PASS   0:  MOs    24 ...   36
  Reading integrals       ... ok
  Internal MO  26
  Internal MO  29
  Internal MO  32
  Internal MO  35
OPERATOR  0   PASS   1:  MOs    37 ...   49
  Reading integrals       ... ok
  Internal MO  38
  Internal MO  41
  Internal MO  44
  Internal MO  47
OPERATOR  0   PASS   2:  MOs    50 ...   62
  Reading integrals       ... ok
  Internal MO  50
  Internal MO  53
  Internal MO  56
  Internal MO  59
  Internal MO  62
OPERATOR  0   PASS   3:  MOs    63 ...   75
  Reading integrals       ... ok
  Internal MO  65
  Internal MO  68
  Internal MO  71
  Internal MO  74
OPERATOR  0   PASS   4:  MOs    76 ...   76
  Reading integrals       ... ok
Time spent in pair loops =    96.328 sec
Deleting buffer (Ka|jb)[aa] ...done

-----------------------------------------------
 RI-MP2 CORRELATION ENERGY:     -3.524489948 Eh
-----------------------------------------------


-------
TIMINGS
-------

Total time                :  160.882 sec
Integral trafo            :   63.841 sec ( 39.7%)
I/O of integrals          :    4.217 sec (  2.6%)
K(i,j) Operators          :   63.959 sec ( 39.8%)
T(i,j) pair energies      :    8.992 sec (  5.6%)
V-calculation             :    0.045 sec (  0.0%)
V**(-1/2)                 :    0.592 sec (  0.4%)
Gamma(ia|P)               :    0.000 sec (  0.0%)
Gamma-Trafo               :    0.000 sec (  0.0%)
D(virtual)                :    0.000 sec (  0.0%)
D(internal)               :    0.000 sec (  0.0%)
W(virtual)                :    0.000 sec (  0.0%)
W(internal)               :    0.000 sec (  0.0%)
L(virtual)                :    0.000 sec (  0.0%)
L(internal)               :    0.000 sec (  0.0%)
G(D)                      :    0.000 sec (  0.0%)
G(Z)                      :    0.000 sec (  0.0%)
Z-Vector Solution         :    0.000 sec (  0.0%)
3-Index Derivative        :    0.000 sec (  0.0%)
2-Index Derivative        :    0.000 sec (  0.0%)
Separable Gradient        :    0.000 sec (  0.0%)


---------------------------------------
MP2 TOTAL ENERGY:    -1274.456493100 Eh
---------------------------------------

Maximum memory used throughout the entire MP2-calculation: 303.5 MB

-------------------------   --------------------
FINAL SINGLE POINT ENERGY     -1274.456493099858
-------------------------   --------------------


                            ***************************************
                            *     ORCA property calculations      *
                            ***************************************


  WARNING: The energy has been calculated at the MP2 level but the densities
           used in the property calculations are still SCF densities
           MP2 response densities have not been calculated 
           use %mp2 Density relaxed end
           or  %mp2 Density unrelaxed end

                                    ---------------------
                                    Active property flags
                                    ---------------------
   (+) Dipole Moment


------------------------------------------------------------------------------
                       ORCA ELECTRIC PROPERTIES CALCULATION
------------------------------------------------------------------------------

Dipole Moment Calculation                       ... on
Quadrupole Moment Calculation                   ... off
Polarizability Calculation                      ... off
GBWName                                         ... qm_input.solv.gbw
Electron density file                           ... qm_input.solv.scfp
The origin for moment calculation is the CENTER OF MASS  = ( 9.555513, 18.800853 11.721230)

-------------
DIPOLE MOMENT
-------------
                                X             Y             Z
Electronic contribution:     -5.21401       5.85035      13.73964
Nuclear contribution   :      5.54219      -6.61559     -17.41575
                        -----------------------------------------
Total Dipole Moment    :      0.32819      -0.76524      -3.67612
                        -----------------------------------------
Magnitude (a.u.)       :      3.76924
Magnitude (Debye)      :      9.58064



--------------------
Rotational spectrum 
--------------------
 
Rotational constants in cm-1:     0.010818     0.009222     0.005746 
Rotational constants in MHz :   324.315361   276.471133   172.269857 

 Dipole components along the rotational axes: 
x,y,z [a.u.] :     2.683080    -1.312967    -2.298772 
x,y,z [Debye]:     6.819848    -3.337296    -5.843015 

 

Timings for individual modules:

Sum of individual times         ...     7407.693 sec (= 123.462 min)
GTO integral calculation        ...      220.117 sec (=   3.669 min)   3.0 %
SCF iterations                  ...     7026.039 sec (= 117.101 min)  94.8 %
MP2 module                      ...      161.536 sec (=   2.692 min)   2.2 %
                             ****ORCA TERMINATED NORMALLY****
TOTAL RUN TIME: 0 days 2 hours 3 minutes 30 seconds 203 msec
