
                                        *****************
                                        * O   R   C   A *
                                        *****************

                                            #,                                       
                                            ###                                      
                                            ####                                     
                                            #####                                    
                                            ######                                   
                                           ########,                                 
                                     ,,################,,,,,                         
                               ,,#################################,,                 
                          ,,##########################################,,             
                       ,#########################################, ''#####,          
                    ,#############################################,,   '####,        
                  ,##################################################,,,,####,       
                ,###########''''           ''''###############################       
              ,#####''   ,,,,##########,,,,          '''####'''          '####       
            ,##' ,,,,###########################,,,                        '##       
           ' ,,###''''                  '''############,,,                           
         ,,##''                                '''############,,,,        ,,,,,,###''
      ,#''                                            '''#######################'''  
     '                                                          ''''####''''         
             ,#######,   #######,   ,#######,      ##                                
            ,#'     '#,  ##    ##  ,#'     '#,    #''#        ######   ,####,        
            ##       ##  ##   ,#'  ##            #'  '#       #        #'  '#        
            ##       ##  #######   ##           ,######,      #####,   #    #        
            '#,     ,#'  ##    ##  '#,     ,#' ,#      #,         ##   #,  ,#        
             '#######'   ##     ##  '#######'  #'      '#     #####' # '####'        



                  #######################################################
                  #                        -***-                        #
                  #          Department of theory and spectroscopy      #
                  #    Directorship and core code : Frank Neese         #
                  #        Max Planck Institute fuer Kohlenforschung    #
                  #                Kaiser Wilhelm Platz 1               #
                  #                 D-45470 Muelheim/Ruhr               #
                  #                      Germany                        #
                  #                                                     #
                  #                  All rights reserved                #
                  #                        -***-                        #
                  #######################################################


                         Program Version 5.0.0 -  RELEASE  -
                                (SVN: $Rev: 19529$)
                ($Date: 2021-06-28 11:36:33 +0200 (Mo, 28 Jun 2021) $)


 With contributions from (in alphabetic order):
   Daniel Aravena         : Magnetic Suceptibility
   Michael Atanasov       : Ab Initio Ligand Field Theory (pilot matlab implementation)
   Alexander A. Auer      : GIAO ZORA, VPT2 properties, NMR spectrum
   Ute Becker             : Parallelization
   Giovanni Bistoni       : ED, misc. LED, open-shell LED, HFLD
   Martin Brehm           : Molecular dynamics
   Dmytro Bykov           : SCF Hessian
   Vijay G. Chilkuri      : MRCI spin determinant printing, contributions to CSF-ICE
   Dipayan Datta          : RHF DLPNO-CCSD density
   Achintya Kumar Dutta   : EOM-CC, STEOM-CC
   Dmitry Ganyushin       : Spin-Orbit,Spin-Spin,Magnetic field MRCI
   Miquel Garcia          : C-PCM Hessian, Gaussian charge scheme
   Yang Guo               : DLPNO-NEVPT2, F12-NEVPT2, CIM, IAO-localization
   Andreas Hansen         : Spin unrestricted coupled pair/coupled cluster methods
   Benjamin Helmich-Paris : MC-RPA, TRAH-SCF, COSX integrals
   Lee Huntington         : MR-EOM, pCC
   Robert Izsak           : Overlap fitted RIJCOSX, COSX-SCS-MP3, EOM
   Marcus Kettner         : VPT2
   Christian Kollmar      : KDIIS, OOCD, Brueckner-CCSD(T), CCSD density, CASPT2, CASPT2-K
   Simone Kossmann        : Meta GGA functionals, TD-DFT gradient, OOMP2, MP2 Hessian
   Martin Krupicka        : Initial AUTO-CI
   Lucas Lang             : DCDCAS
   Marvin Lechner         : AUTO-CI (C++ implementation), FIC-MRCC
   Dagmar Lenk            : GEPOL surface, SMD
   Dimitrios Liakos       : Extrapolation schemes; Compound Job, initial MDCI parallelization
   Dimitrios Manganas     : Further ROCIS development; embedding schemes
   Dimitrios Pantazis     : SARC Basis sets
   Anastasios Papadopoulos: AUTO-CI, single reference methods and gradients
   Taras Petrenko         : DFT Hessian,TD-DFT gradient, ASA, ECA, R-Raman, ABS, FL, XAS/XES, NRVS
   Peter Pinski           : DLPNO-MP2, DLPNO-MP2 Gradient
   Christoph Reimann      : Effective Core Potentials
   Marius Retegan         : Local ZFS, SOC
   Christoph Riplinger    : Optimizer, TS searches, QM/MM, DLPNO-CCSD(T), (RO)-DLPNO pert. Triples
   Tobias Risthaus        : Range-separated hybrids, TD-DFT gradient, RPA, STAB
   Michael Roemelt        : Original ROCIS implementation
   Masaaki Saitow         : Open-shell DLPNO-CCSD energy and density
   Barbara Sandhoefer     : DKH picture change effects
   Avijit Sen             : IP-ROCIS
   Kantharuban Sivalingam : CASSCF convergence, NEVPT2, FIC-MRCI
   Bernardo de Souza      : ESD, SOC TD-DFT
   Georgi Stoychev        : AutoAux, RI-MP2 NMR
   Willem Van den Heuvel  : Paramagnetic NMR
   Boris Wezisla          : Elementary symmetry handling
   Frank Wennmohs         : Technical directorship


 We gratefully acknowledge several colleagues who have allowed us to
 interface, adapt or use parts of their codes:
   Stefan Grimme, W. Hujo, H. Kruse, P. Pracht,  : VdW corrections, initial TS optimization,
                  C. Bannwarth, S. Ehlert          DFT functionals, gCP, sTDA/sTD-DF
   Ed Valeev, F. Pavosevic, A. Kumar             : LibInt (2-el integral package), F12 methods
   Garnet Chan, S. Sharma, J. Yang, R. Olivares  : DMRG
   Ulf Ekstrom                                   : XCFun DFT Library
   Mihaly Kallay                                 : mrcc  (arbitrary order and MRCC methods)
   Jiri Pittner, Ondrej Demel                    : Mk-CCSD
   Frank Weinhold                                : gennbo (NPA and NBO analysis)
   Christopher J. Cramer and Donald G. Truhlar   : smd solvation model
   Lars Goerigk                                  : TD-DFT with DH, B97 family of functionals
   V. Asgeirsson, H. Jonsson                     : NEB implementation
   FAccTs GmbH                                   : IRC, NEB, NEB-TS, DLPNO-Multilevel, CI-OPT
                                                   MM, QMMM, 2- and 3-layer-ONIOM, Crystal-QMMM,
                                                   LR-CPCM, SF, NACMEs, symmetry and pop. for TD-DFT,
                                                   nearIR, NL-DFT gradient (VV10), updates on ESD,
                                                   ML-optimized integration grids
   S Lehtola, MJT Oliveira, MAL Marques          : LibXC Library
   Liviu Ungur et al                             : ANISO software


 Your calculation uses the libint2 library for the computation of 2-el integrals
 For citations please refer to: http://libint.valeyev.net

 Your ORCA version has been built with support for libXC version: 5.1.0
 For citations please refer to: https://tddft.org/programs/libxc/

 This ORCA versions uses:
   CBLAS   interface :  Fast vector & matrix operations
   LAPACKE interface :  Fast linear algebra routines
   SCALAPACK package :  Parallel linear algebra routines
   Shared memory     :  Shared parallel matrices
   BLAS/LAPACK       :  OpenBLAS 0.3.15  USE64BITINT DYNAMIC_ARCH NO_AFFINITY SkylakeX SINGLE_THREADED
        Core in use  :  SkylakeX
   Copyright (c) 2011-2014, The OpenBLAS Project


================================================================================

----- Orbital basis set information -----
Your calculation utilizes the basis: cc-pVTZ 
       H, B-Ne : Obtained from the ccRepo (grant-hill.group.shef.ac.uk/ccrepo) Feb. 2017
                 T. H. Dunning, Jr., J. Chem. Phys. 90, 1007 (1989)
            He : Obtained from the ccRepo (grant-hill.group.shef.ac.uk/ccrepo) Feb. 2017
                 D. E. Woon, T. H. Dunning, Jr., J. Chem. Phys. 100, 2975 (1994)
  Li-Be, Na-Mg : Obtained from the ccRepo (grant-hill.group.shef.ac.uk/ccrepo) Feb. 2017
                 B. P. Prascher, D. E. Woon, K. A. Peterson, T. H. Dunning, Jr., A. K. Wilson, Theor. Chem. Acc. 128, 69 (2011)
         Al-Ar : Obtained from the ccRepo (grant-hill.group.shef.ac.uk/ccrepo) Feb. 2017
                 D. E. Woon, T. H. Dunning, Jr., J. Chem. Phys. 98, 1358 (1993)
            Ca : Obtained from the Peterson Research Group Website (tyr0.chem.wsu.edu/~kipeters) Feb. 2017
                 J. Koput, K. A. Peterson, J. Phys. Chem. 106, 9595 (2002)
         Sc-Zn : Obtained from the ccRepo (grant-hill.group.shef.ac.uk/ccrepo) Feb. 2017
                 N. B. Balabanov, K. A. Peterson, J. Chem. Phys. 123, 064107 (2005)
                 N. B. Balabanov, K. A. Peterson, J. Chem. Phys. 125, 074110 (2006)
         Ga-Kr : Obtained from the ccRepo (grant-hill.group.shef.ac.uk/ccrepo) Feb. 2017
                 A. K. Wilson, D. E. Woon, K. A. Peterson, T. H. Dunning, Jr., J. Chem. Phys. 110, 7667 (1999)
             Y : Obtained from the ccRepo (grant-hill.group.shef.ac.uk/ccrepo) Feb. 2017
                 K. A. Peterson, D. Figgen, M. Dolg, H. Stoll, J. Chem. Phys. 126, 124101 (2007)
        Ag, Au : Obtained from the Peterson Research Group Website (tyr0.chem.wsu.edu/~kipeters) Feb. 2017
                 K. A. Peterson, C. Puzzarini, Theor. Chem. Acc. 114, 283 (2005)

----- AuxC basis set information -----
Your calculation utilizes the auxiliary basis: cc-pVTZ/C 
  Obtained from the EMSL Basis Set Exchange (bse.pnl.gov) Feb. 2017
  H-He, B-F, Al-Ar, Ga-Kr : F. Weigend, A. Kohn, C. Hattig, J. Chem. Phys. 116, 3175 (2002)
             Li-Be, Na-Mg : C. Haettig, Phys. Chem. Chem. Phys. 7, 59 (2005)
                       Ne : C. Haettig, Phys. Chem. Chem. Phys. 7, 59 (2005)
                            F. Weigend, A. Kohn, C. Hattig, J. Chem. Phys. 116, 3175 (2002)
                    Sc-Zn : J. G. Hill, J. A. Platts, J. Chem. Phys. 128, 044104 (2008)

================================================================================
                                        WARNINGS
                       Please study these warnings very carefully!
================================================================================


WARNING: No MP2 level density has been requested!
         To caclulate MP2 level properties use
         %mp2 Density relaxed end
         or
         %mp2 Density unrelaxed end

WARNING: Post HF methods need fully converged wavefunctions
  ===> : Setting SCFConvForced true
         You can overwrite this default with %scf ConvForced false 


INFO   : the flag for use of the SHARK integral package has been found!

================================================================================
                                       INPUT FILE
================================================================================
NAME = qm_input.solv
|  1> ! RI-MP2 cc-pVTZ cc-pVTZ/c TightSCF KeepDens NoKeepInts
|  2> 
|  3> %pointcharges "srfp_output"
|  4> 
|  5> *xyz  0  1
|  6>     C    -2.4835253   14.6293394    7.7937730
|  7>     C    -3.9202917   14.2744813    7.7458046
|  8>     O    -4.3287013   14.6592660    6.4162481
|  9>     C    -5.6443702   14.6229965    5.9532897
| 10>     O    -6.6098783   14.3410118    6.6272874
| 11>     C    -5.9128025   15.1795610    4.5988326
| 12>     C    -4.9898069   15.4278253    3.6559957
| 13>     C    -3.4474000   15.3644639    3.7902007
| 14>     N    -5.3188559   15.9994903    2.3818605
| 15>     C    -6.4774183   16.5754677    2.1885827
| 16>     S    -6.8430223   17.4617927    0.7800522
| 17>     N    -7.3982058   16.4668016    3.1858512
| 18>     C    -7.3517385   15.3277999    4.1217201
| 19>     C    -7.9438125   14.0729659    3.4712109
| 20>     C    -9.2817477   13.9552726    3.0774197
| 21>     C    -9.7984437   12.7357767    2.6733922
| 22>     C    -9.0631370   11.5711069    2.6046089
| 23>     C    -7.7190910   11.6038873    3.0182146
| 24>     O    -6.9509992   10.4806872    2.9623862
| 25>     C    -7.1622442   12.8512732    3.4226503
| 26>     H    -2.5055934   15.7230410    7.8744707
| 27>     H    -1.8899395   14.5319486    6.8765153
| 28>     H    -1.9358030   14.2767680    8.6763167
| 29>     H    -4.0926566   13.2056300    7.9219772
| 30>     H    -4.5439523   14.7869289    8.4885293
| 31>     H    -2.8676481   15.5945638    2.8879084
| 32>     H    -3.3076890   14.3167324    4.0833474
| 33>     H    -3.0617311   15.8813385    4.6774946
| 34>     H    -4.5893270   16.1432860    1.6940546
| 35>     H    -8.2606399   16.9842749    3.0658678
| 36>     H    -7.9488376   15.6248981    4.9925789
| 37>     H    -9.8658854   14.8684334    3.1431567
| 38>     H   -10.7800369   12.7086797    2.2095631
| 39>     H    -9.4858374   10.6448614    2.2267339
| 40>     H    -7.5488628    9.8578234    2.5136891
| 41>     H    -6.1248472   12.8046728    3.7405107
| 42> *
| 43> 
| 44>                          ****END OF INPUT****
================================================================================

                       ****************************
                       * Single Point Calculation *
                       ****************************

---------------------------------
CARTESIAN COORDINATES (ANGSTROEM)
---------------------------------
  C     -2.483525   14.629339    7.793773
  C     -3.920292   14.274481    7.745805
  O     -4.328701   14.659266    6.416248
  C     -5.644370   14.622996    5.953290
  O     -6.609878   14.341012    6.627287
  C     -5.912802   15.179561    4.598833
  C     -4.989807   15.427825    3.655996
  C     -3.447400   15.364464    3.790201
  N     -5.318856   15.999490    2.381861
  C     -6.477418   16.575468    2.188583
  S     -6.843022   17.461793    0.780052
  N     -7.398206   16.466802    3.185851
  C     -7.351738   15.327800    4.121720
  C     -7.943812   14.072966    3.471211
  C     -9.281748   13.955273    3.077420
  C     -9.798444   12.735777    2.673392
  C     -9.063137   11.571107    2.604609
  C     -7.719091   11.603887    3.018215
  O     -6.950999   10.480687    2.962386
  C     -7.162244   12.851273    3.422650
  H     -2.505593   15.723041    7.874471
  H     -1.889939   14.531949    6.876515
  H     -1.935803   14.276768    8.676317
  H     -4.092657   13.205630    7.921977
  H     -4.543952   14.786929    8.488529
  H     -2.867648   15.594564    2.887908
  H     -3.307689   14.316732    4.083347
  H     -3.061731   15.881338    4.677495
  H     -4.589327   16.143286    1.694055
  H     -8.260640   16.984275    3.065868
  H     -7.948838   15.624898    4.992579
  H     -9.865885   14.868433    3.143157
  H    -10.780037   12.708680    2.209563
  H     -9.485837   10.644861    2.226734
  H     -7.548863    9.857823    2.513689
  H     -6.124847   12.804673    3.740511

----------------------------
CARTESIAN COORDINATES (A.U.)
----------------------------
  NO LB      ZA    FRAG     MASS         X           Y           Z
   0 C     6.0000    0    12.011   -4.693183   27.645445   14.728097
   1 C     6.0000    0    12.011   -7.408278   26.974860   14.637449
   2 O     8.0000    0    15.999   -8.180060   27.701998   12.124952
   3 C     6.0000    0    12.011  -10.666314   27.633459   11.250087
   4 O     8.0000    0    15.999  -12.490860   27.100585   12.523758
   5 C     6.0000    0    12.011  -11.173577   28.685213    8.690534
   6 C     6.0000    0    12.011   -9.429369   29.154365    6.908831
   7 C     6.0000    0    12.011   -6.514642   29.034629    7.162441
   8 N     7.0000    0    14.007  -10.051181   30.234655    4.501064
   9 C     6.0000    0    12.011  -12.240547   31.323094    4.135822
  10 S    16.0000    0    32.060  -12.931438   32.998006    1.474085
  11 N     7.0000    0    14.007  -13.980583   31.117745    6.020386
  12 C     6.0000    0    12.011  -13.892772   28.965344    7.788922
  13 C     6.0000    0    12.011  -15.011630   26.594051    6.559638
  14 C     6.0000    0    12.011  -17.539961   26.371643    5.815480
  15 C     6.0000    0    12.011  -18.516375   24.067130    5.051979
  16 C     6.0000    0    12.011  -17.126847   21.866223    4.921998
  17 C     6.0000    0    12.011  -14.586968   21.928169    5.703599
  18 O     8.0000    0    15.999  -13.135485   19.805629    5.598099
  19 C     6.0000    0    12.011  -13.534680   24.285387    6.467872
  20 H     1.0000    0     1.008   -4.734885   29.712241   14.880593
  21 H     1.0000    0     1.008   -3.571468   27.461403   12.994731
  22 H     1.0000    0     1.008   -3.658138   26.979182   16.395862
  23 H     1.0000    0     1.008   -7.734000   24.955024   14.970367
  24 H     1.0000    0     1.008   -8.586825   27.943246   16.040996
  25 H     1.0000    0     1.008   -5.419070   29.469455    5.457356
  26 H     1.0000    0     1.008   -6.250626   27.054703    7.716408
  27 H     1.0000    0     1.008   -5.785833   30.011380    8.839184
  28 H     1.0000    0     1.008   -8.672571   30.506389    3.201299
  29 H     1.0000    0     1.008  -15.610347   32.095628    5.793651
  30 H     1.0000    0     1.008  -15.021126   29.526778    9.434607
  31 H     1.0000    0     1.008  -18.643821   28.097267    5.939705
  32 H     1.0000    0     1.008  -20.371317   24.015924    4.175469
  33 H     1.0000    0     1.008  -17.925635   20.115873    4.207917
  34 H     1.0000    0     1.008  -14.265283   18.628587    4.750184
  35 H     1.0000    0     1.008  -11.574284   24.197325    7.068541

--------------------------------
INTERNAL COORDINATES (ANGSTROEM)
--------------------------------
 C      0   0   0     0.000000000000     0.00000000     0.00000000
 C      1   0   0     1.480717031273     0.00000000     0.00000000
 O      2   1   0     1.443114047267   103.91912025     0.00000000
 C      3   2   1     1.395217048057   124.44720175   186.09569270
 O      4   3   2     1.210782458497   124.98088860     4.51971723
 C      4   3   2     1.488749132018   117.52886113   174.15196729
 C      6   4   3     1.342571212367   125.73853447    16.53241144
 C      7   6   4     1.549530475403   128.02015340   352.06613933
 N      7   6   4     1.434745491195   122.66035249   181.69279941
 C      9   7   6     1.308194598665   120.64678088    15.25773206
 S     10   9   7     1.703876891055   122.76474540   171.09476244
 N     10   9   7     1.361691008466   117.09865117   352.48491012
 C     12  10   9     1.474901583347   120.33383217   334.19293585
 C     13  12  10     1.532423638658   110.53857154   281.52396686
 C     14  13  12     1.399640604391   123.89136443   295.88351697
 C     15  14  13     1.384696077589   120.85357923   189.31697246
 C     16  15  14     1.379080428567   124.01199942   358.98799599
 C     17  16  15     1.406628550760   118.36700020     2.60848136
 O     18  17  16     1.361859129321   120.50642688   180.33109483
 C     18  17  16     1.424646685190   118.51277868   356.81215192
 H      1   2   3     1.096896672283   102.81575338    74.23591276
 H      1   2   3     1.096900523336   118.47125983   326.10907885
 H      1   2   3     1.096900037572   115.69302875   188.96026903
 H      2   1   3     1.096899970487   112.38298374   120.45546385
 H      2   1   3     1.096902487338   114.69535925   240.15549118
 H      8   7   6     1.096900006460   116.50558420   179.29346108
 H      8   7   6     1.096902660829   100.89368970    59.45553861
 H      8   7   6     1.096900322513   113.62657417   312.33355737
 H      9   7   6     1.012900081621   119.63115640   181.72365452
 H     12  10   9     1.012900394576   116.63048318   174.64636875
 H     13  12  10     1.096900052512   106.10824384   161.81795141
 H     15  14  13     1.086002234062   115.24120146     7.62762538
 H     16  15  14     1.086000410544   118.93826400   190.74216159
 H     17  16  15     1.085999940173   122.01340173   183.72503778
 H     19  18  17     0.973000146508   101.55544023     6.10776169
 H     20  18  17     1.086001550081   114.76465866   179.33226922

---------------------------
INTERNAL COORDINATES (A.U.)
---------------------------
 C      0   0   0     0.000000000000     0.00000000     0.00000000
 C      1   0   0     2.798149670940     0.00000000     0.00000000
 O      2   1   0     2.727090329349   103.91912025     0.00000000
 C      3   2   1     2.636578118205   124.44720175   186.09569270
 O      4   3   2     2.288047254316   124.98088860     4.51971723
 C      4   3   2     2.813328141627   117.52886113   174.15196729
 C      6   4   3     2.537091906659   125.73853447    16.53241144
 C      7   6   4     2.928188234676   128.02015340   352.06613933
 N      7   6   4     2.711276050237   122.66035249   181.69279941
 C      9   7   6     2.472129521353   120.64678088    15.25773206
 S     10   9   7     3.219860690011   122.76474540   171.09476244
 N     10   9   7     2.573223085024   117.09865117   352.48491012
 C     12  10   9     2.787160067013   120.33383217   334.19293585
 C     13  12  10     2.895860998210   110.53857154   281.52396686
 C     14  13  12     2.644937428216   123.89136443   295.88351697
 C     15  14  13     2.616696365357   120.85357923   189.31697246
 C     16  15  14     2.606084326642   124.01199942   358.98799599
 C     17  16  15     2.658142733091   118.36700020     2.60848136
 O     18  17  16     2.573540787396   120.50642688   180.33109483
 C     18  17  16     2.692192072608   118.51277868   356.81215192
 H      1   2   3     2.072834307824   102.81575338    74.23591276
 H      1   2   3     2.072841585261   118.47125983   326.10907885
 H      1   2   3     2.072840667299   115.69302875   188.96026903
 H      2   1   3     2.072840540527   112.38298374   120.45546385
 H      2   1   3     2.072845296686   114.69535925   240.15549118
 H      8   7   6     2.072840608507   116.50558420   179.29346108
 H      8   7   6     2.072845624537   100.89368970    59.45553861
 H      8   7   6     2.072841205760   113.62657417   312.33355737
 H      9   7   6     1.914103755291   119.63115640   181.72365452
 H     12  10   9     1.914104346689   116.63048318   174.64636875
 H     13  12  10     2.072840695532   106.10824384   161.81795141
 H     15  14  13     2.052246803203   115.24120146     7.62762538
 H     16  15  14     2.052243357254   118.93826400   190.74216159
 H     17  16  15     2.052242468382   122.01340173   183.72503778
 H     19  18  17     1.838703805165   101.55544023     6.10776169
 H     20  18  17     2.052245510666   114.76465866   179.33226922

---------------------
BASIS SET INFORMATION
---------------------
There are 5 groups of distinct atoms

 Group   1 Type C   : 18s5p2d1f contracted to 4s3p2d1f pattern {8811/311/11/1}
 Group   2 Type O   : 18s5p2d1f contracted to 4s3p2d1f pattern {8811/311/11/1}
 Group   3 Type N   : 18s5p2d1f contracted to 4s3p2d1f pattern {8811/311/11/1}
 Group   4 Type S   : 41s16p2d1f contracted to 5s4p2d1f pattern {13131311/7711/11/1}
 Group   5 Type H   : 5s2p1d contracted to 3s2p1d pattern {311/11/1}

Atom   0C    basis set group =>   1
Atom   1C    basis set group =>   1
Atom   2O    basis set group =>   2
Atom   3C    basis set group =>   1
Atom   4O    basis set group =>   2
Atom   5C    basis set group =>   1
Atom   6C    basis set group =>   1
Atom   7C    basis set group =>   1
Atom   8N    basis set group =>   3
Atom   9C    basis set group =>   1
Atom  10S    basis set group =>   4
Atom  11N    basis set group =>   3
Atom  12C    basis set group =>   1
Atom  13C    basis set group =>   1
Atom  14C    basis set group =>   1
Atom  15C    basis set group =>   1
Atom  16C    basis set group =>   1
Atom  17C    basis set group =>   1
Atom  18O    basis set group =>   2
Atom  19C    basis set group =>   1
Atom  20H    basis set group =>   5
Atom  21H    basis set group =>   5
Atom  22H    basis set group =>   5
Atom  23H    basis set group =>   5
Atom  24H    basis set group =>   5
Atom  25H    basis set group =>   5
Atom  26H    basis set group =>   5
Atom  27H    basis set group =>   5
Atom  28H    basis set group =>   5
Atom  29H    basis set group =>   5
Atom  30H    basis set group =>   5
Atom  31H    basis set group =>   5
Atom  32H    basis set group =>   5
Atom  33H    basis set group =>   5
Atom  34H    basis set group =>   5
Atom  35H    basis set group =>   5
---------------------------------
AUXILIARY/C BASIS SET INFORMATION
---------------------------------
There are 5 groups of distinct atoms

 Group   1 Type C   : 8s6p5d3f1g contracted to 8s6p5d3f1g pattern {11111111/111111/11111/111/1}
 Group   2 Type O   : 8s6p5d3f1g contracted to 8s6p5d3f1g pattern {11111111/111111/11111/111/1}
 Group   3 Type N   : 8s6p5d3f1g contracted to 8s6p5d3f1g pattern {11111111/111111/11111/111/1}
 Group   4 Type S   : 10s8p7d5f2g contracted to 10s8p7d5f2g pattern {1111111111/11111111/1111111/11111/11}
 Group   5 Type H   : 4s3p2d1f contracted to 4s3p2d1f pattern {1111/111/11/1}

Atom   0C    basis set group =>   1
Atom   1C    basis set group =>   1
Atom   2O    basis set group =>   2
Atom   3C    basis set group =>   1
Atom   4O    basis set group =>   2
Atom   5C    basis set group =>   1
Atom   6C    basis set group =>   1
Atom   7C    basis set group =>   1
Atom   8N    basis set group =>   3
Atom   9C    basis set group =>   1
Atom  10S    basis set group =>   4
Atom  11N    basis set group =>   3
Atom  12C    basis set group =>   1
Atom  13C    basis set group =>   1
Atom  14C    basis set group =>   1
Atom  15C    basis set group =>   1
Atom  16C    basis set group =>   1
Atom  17C    basis set group =>   1
Atom  18O    basis set group =>   2
Atom  19C    basis set group =>   1
Atom  20H    basis set group =>   5
Atom  21H    basis set group =>   5
Atom  22H    basis set group =>   5
Atom  23H    basis set group =>   5
Atom  24H    basis set group =>   5
Atom  25H    basis set group =>   5
Atom  26H    basis set group =>   5
Atom  27H    basis set group =>   5
Atom  28H    basis set group =>   5
Atom  29H    basis set group =>   5
Atom  30H    basis set group =>   5
Atom  31H    basis set group =>   5
Atom  32H    basis set group =>   5
Atom  33H    basis set group =>   5
Atom  34H    basis set group =>   5
Atom  35H    basis set group =>   5
------------------------------------------------------------------------------
                           ORCA GTO INTEGRAL CALCULATION
------------------------------------------------------------------------------
------------------------------------------------------------------------------
                   ___                                                        
                  /   \      - P O W E R E D   B Y -                         
                 /     \                                                     
                 |  |  |   _    _      __       _____    __    __             
                 |  |  |  | |  | |    /  \     |  _  \  |  |  /  |          
                  \  \/   | |  | |   /    \    | | | |  |  | /  /          
                 / \  \   | |__| |  /  /\  \   | |_| |  |  |/  /          
                |  |  |   |  __  | /  /__\  \  |    /   |      \           
                |  |  |   | |  | | |   __   |  |    \   |  |\   \          
                \     /   | |  | | |  |  |  |  | |\  \  |  | \   \       
                 \___/    |_|  |_| |__|  |__|  |_| \__\ |__|  \__/        
                                                                              
                      - O R C A' S   B I G   F R I E N D -                    
                                      &                                       
                       - I N T E G R A L  F E E D E R -                       
                                                                              
 v1 FN, 2020, v2 2021                                                         
------------------------------------------------------------------------------


Reading SHARK input file qm_input.solv.SHARKINP.tmp ... ok
----------------------
SHARK INTEGRAL PACKAGE
----------------------

Number of atoms                             ...     36
Number of basis functions                   ...    828
Number of shells                            ...    298
Maximum angular momentum                    ...      3
Integral batch strategy                     ... SHARK/LIBINT Hybrid
RI-J (if used) integral strategy            ... SPLIT-RIJ (Revised 2003 algorithm where possible)
Printlevel                                  ...      1
Contraction scheme used                     ... SEGMENTED contraction
Coulomb Range Separation                    ... NOT USED
Exchange Range Separation                   ... NOT USED
Finite Nucleus Model                        ... NOT USED
Auxiliary Coulomb fitting basis             ... NOT available
Auxiliary J/K fitting basis                 ... NOT available
Auxiliary Correlation fitting basis         ... AVAILABLE
   # of basis functions in Aux-C            ...   2141
   # of shells in Aux-C                     ...    629
   Maximum angular momentum in Aux-C        ...      4
Auxiliary 'external' fitting basis          ... NOT available
Integral threshold                          ...     2.500000e-11
Primitive cut-off                           ...     2.500000e-12
Primitive pair pre-selection threshold      ...     2.500000e-12

Calculating pre-screening integrals         ... done (  0.5 sec) Dimension = 298
Organizing shell pair data                  ... done (  0.3 sec)
Shell pair information
Total number of shell pairs                 ...     44551
Shell pairs after pre-screening             ...     31797
Total number of primitive shell pairs       ...    234348
Primitive shell pairs kept                  ...     92395
          la=0 lb=0:   6353 shell pairs
          la=1 lb=0:   8864 shell pairs
          la=1 lb=1:   3133 shell pairs
          la=2 lb=0:   5050 shell pairs
          la=2 lb=1:   3474 shell pairs
          la=2 lb=2:    980 shell pairs
          la=3 lb=0:   1846 shell pairs
          la=3 lb=1:   1260 shell pairs
          la=3 lb=2:    698 shell pairs
          la=3 lb=3:    139 shell pairs

Reading point charge file                   ... ok (45234 point charges)
Calculating one electron integrals          ... done (222.7 sec)
Calculating RI/C V-Matrix + Cholesky decomp.... done (  0.4 sec)
Calculating Nuclear repulsion               ... (+Point charges) done (  0.0 sec) ENN=   1882.065067852615 Eh

SHARK setup successfully completed in 224.2 seconds

Maximum memory used throughout the entire GTOINT-calculation: 475.1 MB
ENUC WAS=  0.000000000
ENUC IS =  0.000000000
-------------------------------------------------------------------------------
                                 ORCA SCF
-------------------------------------------------------------------------------

------------
SCF SETTINGS
------------
Hamiltonian:
 Ab initio Hamiltonian  Method          .... Hartree-Fock(GTOs)


General Settings:
 Integral files         IntName         .... qm_input.solv
 Hartree-Fock type      HFTyp           .... RHF
 Total Charge           Charge          ....    0
 Multiplicity           Mult            ....    1
 Number of Electrons    NEL             ....  154
 Basis Dimension        Dim             ....  828
 Nuclear Repulsion      ENuc            ....   1882.0650678526 Eh

Convergence Acceleration:
 DIIS                   CNVDIIS         .... on
   Start iteration      DIISMaxIt       ....    12
   Startup error        DIISStart       ....  0.200000
   # of expansion vecs  DIISMaxEq       ....     5
   Bias factor          DIISBfac        ....   1.050
   Max. coefficient     DIISMaxC        ....  10.000
 Trust-Rad. Augm. Hess. CNVTRAH         .... auto
   Auto Start mean grad. ratio tolernc. ....  1.125000
   Auto Start start iteration           ....    20
   Auto Start num. interpolation iter.  ....    10
   Max. Number of Micro iterations      ....    16
   Max. Number of Macro iterations      .... Maxiter - #DIIS iter
   Number of Davidson start vectors     ....     2
   Converg. threshold I  (grad. norm)   ....   1.000e-05
   Converg. threshold II (energy diff.) ....   1.000e-08
   Grad. Scal. Fac. for Micro threshold ....   0.100
   Minimum threshold for Micro iter.    ....   0.010
   NR start threshold (gradient norm)   ....   0.001
   Initial trust radius                 ....   0.400
   Minimum AH scaling param. (alpha)    ....   1.000
   Maximum AH scaling param. (alpha)    .... 1000.000
   Orbital update algorithm             .... Taylor
   White noise on init. David. guess    .... on
   Maximum white noise                  ....   0.010
   Quad. conv. algorithm                .... NR
 SOSCF                  CNVSOSCF        .... on
   Start iteration      SOSCFMaxIt      ....   150
   Startup grad/error   SOSCFStart      ....  0.003300
 Level Shifting         CNVShift        .... on
   Level shift para.    LevelShift      ....    0.2500
   Turn off err/grad.   ShiftErr        ....    0.0010
 Zerner damping         CNVZerner       .... off
 Static damping         CNVDamp         .... on
   Fraction old density DampFac         ....    0.7000
   Max. Damping (<1)    DampMax         ....    0.9800
   Min. Damping (>=0)   DampMin         ....    0.0000
   Turn off err/grad.   DampErr         ....    0.1000
 Fernandez-Rico         CNVRico         .... off

SCF Procedure:
 Maximum # iterations   MaxIter         ....   125
 SCF integral mode      SCFMode         .... Direct
   Integral package                     .... SHARK and LIBINT hybrid scheme
 Reset frequency        DirectResetFreq ....    20
 Integral Threshold     Thresh          ....  2.500e-11 Eh
 Primitive CutOff       TCut            ....  2.500e-12 Eh

Convergence Tolerance:
 Convergence Check Mode ConvCheckMode   .... Total+1el-Energy
 Convergence forced     ConvForced      .... 1
 Energy Change          TolE            ....  1.000e-08 Eh
 1-El. energy change                    ....  1.000e-05 Eh
 Orbital Gradient       TolG            ....  1.000e-05
 Orbital Rotation angle TolX            ....  1.000e-05
 DIIS Error             TolErr          ....  5.000e-07


Diagonalization of the overlap matrix:
Smallest eigenvalue                        ... 3.961e-05
Time for diagonalization                   ...    0.126 sec
Threshold for overlap eigenvalues          ... 1.000e-08
Number of eigenvalues below threshold      ... 0
Time for construction of square roots      ...    0.077 sec
Total time needed                          ...    0.206 sec

Time for model grid setup =    1.444 sec

------------------------------
INITIAL GUESS: MODEL POTENTIAL
------------------------------
Loading Hartree-Fock densities                     ... done
Calculating cut-offs                               ... done
Initializing the effective Hamiltonian             ... done
Setting up the integral package (SHARK)            ... done
Starting the Coulomb interaction                   ... done (   3.8 sec)
Reading the grid                                   ... done
Mapping shells                                     ... done
Starting the XC term evaluation                    ... done (   1.3 sec)
Transforming the Hamiltonian                       ... done (   0.0 sec)
Diagonalizing the Hamiltonian                      ... done (   0.1 sec)
Back transforming the eigenvectors                 ... done (   0.0 sec)
Now organizing SCF variables                       ... done
                      ------------------
                      INITIAL GUESS DONE (   6.7 sec)
                      ------------------
--------------
SCF ITERATIONS
--------------
ITER       Energy         Delta-E        Max-DP      RMS-DP      [F,P]     Damp
               ***  Starting incremental Fock matrix formation  ***
  0  -1270.0485021105   0.000000000000 0.04744895  0.00048256  0.3814237 0.7000
  1  -1270.3467590716  -0.298256961104 0.03743893  0.00039478  0.2205484 0.7000
                               ***Turning on DIIS***
  2  -1270.5304997111  -0.183740639471 0.02581131  0.00025787  0.1160204 0.7000
  3  -1272.5691907843  -2.038691073212 0.06472403  0.00052428  0.0846276 0.0000
  4  -1270.8842522592   1.684938525095 0.01388103  0.00011241  0.0081423 0.0000
  5  -1270.9322685323  -0.048016273079 0.00551628  0.00005764  0.0047042 0.0000
  6  -1270.9097178574   0.022550674856 0.00352014  0.00002850  0.0039317 0.0000
                      *** Initiating the SOSCF procedure ***
                           *** Shutting down DIIS ***
                      *** Re-Reading the Fockian *** 
                      *** Removing any level shift *** 
ITER      Energy       Delta-E        Grad      Rot      Max-DP    RMS-DP
  7  -1270.92594937  -0.0162315158  0.001100  0.001100  0.002024  0.000015
               *** Restarting incremental Fock matrix formation ***
  8  -1270.92732899  -0.0013796138  0.000488  0.000975  0.000871  0.000008
  9  -1270.92734252  -0.0000135366  0.000198  0.000974  0.000798  0.000009
 10  -1270.92734734  -0.0000048140  0.000073  0.000105  0.000186  0.000002
 11  -1270.92734786  -0.0000005254  0.000027  0.000058  0.000073  0.000001
 12  -1270.92734793  -0.0000000653  0.000010  0.000033  0.000022  0.000000
 13  -1270.92734794  -0.0000000114  0.000006  0.000028  0.000011  0.000000
                  ***Gradient check signals convergence***
              ***Rediagonalizing the Fockian in SOSCF/NRSCF***

               *****************************************************
               *                     SUCCESS                       *
               *           SCF CONVERGED AFTER  14 CYCLES          *
               *****************************************************


----------------
TOTAL SCF ENERGY
----------------

Total Energy       :        -1270.92734794 Eh          -34583.69134 eV

Components:
Nuclear Repulsion  :         1882.06506785 Eh           51213.59415 eV
Electronic Energy  :        -3152.99241579 Eh          -85797.28548 eV
One Electron Energy:        -5282.29912136 Eh         -143738.66662 eV
Two Electron Energy:         2129.30670556 Eh           57941.38114 eV

Virial components:
Potential Energy   :        -2539.95221045 Eh          -69115.61342 eV
Kinetic Energy     :         1269.02486251 Eh           34531.92208 eV
Virial Ratio       :            2.00149917


---------------
SCF CONVERGENCE
---------------

  Last Energy change         ...   -2.3670e-09  Tolerance :   1.0000e-08
  Last MAX-Density change    ...    3.4704e-06  Tolerance :   1.0000e-07
  Last RMS-Density change    ...    3.2645e-08  Tolerance :   5.0000e-09
  Last Orbital Gradient      ...    1.6522e-06  Tolerance :   1.0000e-05
  Last Orbital Rotation      ...    4.9188e-06  Tolerance :   1.0000e-05

             **** THE GBW FILE WAS UPDATED (qm_input.solv.gbw) ****
             **** DENSITY qm_input.solv.scfp WAS UPDATED ****
             **** ENERGY FILE WAS UPDATED (qm_input.solv.en.tmp) ****
             **** THE GBW FILE WAS UPDATED (qm_input.solv.gbw) ****
             **** DENSITY qm_input.solv.scfp WAS UPDATED ****
----------------
ORBITAL ENERGIES
----------------

  NO   OCC          E(Eh)            E(eV) 
   0   2.0000     -93.237485     -2537.1209 
   1   2.0000     -21.922132      -596.5315 
   2   2.0000     -21.907364      -596.1297 
   3   2.0000     -21.889797      -595.6516 
   4   2.0000     -16.953998      -461.3417 
   5   2.0000     -16.926121      -460.5832 
   6   2.0000     -12.736533      -346.5787 
   7   2.0000     -12.714049      -345.9669 
   8   2.0000     -12.653393      -344.3163 
   9   2.0000     -12.626553      -343.5860 
  10   2.0000     -12.625791      -343.5652 
  11   2.0000     -12.602130      -342.9214 
  12   2.0000     -12.579658      -342.3099 
  13   2.0000     -12.577788      -342.2590 
  14   2.0000     -12.557573      -341.7089 
  15   2.0000     -12.556158      -341.6704 
  16   2.0000     -12.553351      -341.5941 
  17   2.0000     -12.549801      -341.4974 
  18   2.0000     -12.548105      -341.4513 
  19   2.0000     -12.523882      -340.7922 
  20   2.0000     -10.242859      -278.7224 
  21   2.0000      -7.924769      -215.6439 
  22   2.0000      -7.922908      -215.5933 
  23   2.0000      -7.922580      -215.5844 
  24   2.0000      -2.776791       -75.5603 
  25   2.0000      -2.725869       -74.1747 
  26   2.0000      -2.693896       -73.3046 
  27   2.0000      -2.677817       -72.8671 
  28   2.0000      -2.556182       -69.5572 
  29   2.0000      -2.470919       -67.2371 
  30   2.0000      -2.444598       -66.5209 
  31   2.0000      -2.360885       -64.2429 
  32   2.0000      -2.349879       -63.9435 
  33   2.0000      -2.321908       -63.1823 
  34   2.0000      -2.308331       -62.8129 
  35   2.0000      -2.304483       -62.7082 
  36   2.0000      -2.238925       -60.9242 
  37   2.0000      -2.200807       -59.8870 
  38   2.0000      -2.172789       -59.1246 
  39   2.0000      -2.154574       -58.6289 
  40   2.0000      -2.140478       -58.2454 
  41   2.0000      -2.133195       -58.0472 
  42   2.0000      -2.084551       -56.7235 
  43   2.0000      -2.058716       -56.0205 
  44   2.0000      -2.040123       -55.5146 
  45   2.0000      -2.017687       -54.9041 
  46   2.0000      -2.009835       -54.6904 
  47   2.0000      -2.003842       -54.5273 
  48   2.0000      -1.990181       -54.1556 
  49   2.0000      -1.980584       -53.8944 
  50   2.0000      -1.972951       -53.6867 
  51   2.0000      -1.960323       -53.3431 
  52   2.0000      -1.948712       -53.0271 
  53   2.0000      -1.919837       -52.2414 
  54   2.0000      -1.910959       -51.9998 
  55   2.0000      -1.908547       -51.9342 
  56   2.0000      -1.903483       -51.7964 
  57   2.0000      -1.896083       -51.5950 
  58   2.0000      -1.890804       -51.4514 
  59   2.0000      -1.881249       -51.1914 
  60   2.0000      -1.873050       -50.9683 
  61   2.0000      -1.865368       -50.7593 
  62   2.0000      -1.853662       -50.4407 
  63   2.0000      -1.839592       -50.0578 
  64   2.0000      -1.835122       -49.9362 
  65   2.0000      -1.824603       -49.6500 
  66   2.0000      -1.818856       -49.4936 
  67   2.0000      -1.809719       -49.2450 
  68   2.0000      -1.795449       -48.8567 
  69   2.0000      -1.793810       -48.8120 
  70   2.0000      -1.766996       -48.0824 
  71   2.0000      -1.763032       -47.9745 
  72   2.0000      -1.695243       -46.1299 
  73   2.0000      -1.681855       -45.7656 
  74   2.0000      -1.669446       -45.4279 
  75   2.0000      -1.657132       -45.0928 
  76   2.0000      -1.634310       -44.4718 
  77   0.0000      -1.247141       -33.9364 
  78   0.0000      -1.207042       -32.8453 
  79   0.0000      -1.184522       -32.2325 
  80   0.0000      -1.168777       -31.8040 
  81   0.0000      -1.165050       -31.7026 
  82   0.0000      -1.149662       -31.2839 
  83   0.0000      -1.139975       -31.0203 
  84   0.0000      -1.137040       -30.9404 
  85   0.0000      -1.130220       -30.7548 
  86   0.0000      -1.123243       -30.5650 
  87   0.0000      -1.107945       -30.1487 
  88   0.0000      -1.102564       -30.0023 
  89   0.0000      -1.097962       -29.8771 
  90   0.0000      -1.094745       -29.7895 
  91   0.0000      -1.092364       -29.7247 
  92   0.0000      -1.080187       -29.3934 
  93   0.0000      -1.073469       -29.2106 
  94   0.0000      -1.059520       -28.8310 
  95   0.0000      -1.057777       -28.7836 
  96   0.0000      -1.053844       -28.6766 
  97   0.0000      -1.040196       -28.3052 
  98   0.0000      -1.031630       -28.0721 
  99   0.0000      -1.022674       -27.8284 
 100   0.0000      -1.018707       -27.7204 
 101   0.0000      -1.002484       -27.2790 
 102   0.0000      -0.989140       -26.9159 
 103   0.0000      -0.983024       -26.7495 
 104   0.0000      -0.978124       -26.6161 
 105   0.0000      -0.974179       -26.5087 
 106   0.0000      -0.966598       -26.3025 
 107   0.0000      -0.961215       -26.1560 
 108   0.0000      -0.954610       -25.9763 
 109   0.0000      -0.947142       -25.7730 
 110   0.0000      -0.943009       -25.6606 
 111   0.0000      -0.936055       -25.4714 
 112   0.0000      -0.925305       -25.1788 
 113   0.0000      -0.922030       -25.0897 
 114   0.0000      -0.911441       -24.8016 
 115   0.0000      -0.907219       -24.6867 
 116   0.0000      -0.899904       -24.4876 
 117   0.0000      -0.893041       -24.3009 
 118   0.0000      -0.889280       -24.1985 
 119   0.0000      -0.883351       -24.0372 
 120   0.0000      -0.881686       -23.9919 
 121   0.0000      -0.875037       -23.8110 
 122   0.0000      -0.859478       -23.3876 
 123   0.0000      -0.858455       -23.3598 
 124   0.0000      -0.854584       -23.2544 
 125   0.0000      -0.849966       -23.1287 
 126   0.0000      -0.839878       -22.8543 
 127   0.0000      -0.832564       -22.6552 
 128   0.0000      -0.822345       -22.3771 
 129   0.0000      -0.817224       -22.2378 
 130   0.0000      -0.811840       -22.0913 
 131   0.0000      -0.809874       -22.0378 
 132   0.0000      -0.806762       -21.9531 
 133   0.0000      -0.805099       -21.9078 
 134   0.0000      -0.789589       -21.4858 
 135   0.0000      -0.781262       -21.2592 
 136   0.0000      -0.779498       -21.2112 
 137   0.0000      -0.776595       -21.1322 
 138   0.0000      -0.773606       -21.0509 
 139   0.0000      -0.766722       -20.8636 
 140   0.0000      -0.765833       -20.8394 
 141   0.0000      -0.758722       -20.6459 
 142   0.0000      -0.748020       -20.3547 
 143   0.0000      -0.743286       -20.2258 
 144   0.0000      -0.739890       -20.1334 
 145   0.0000      -0.731209       -19.8972 
 146   0.0000      -0.728026       -19.8106 
 147   0.0000      -0.725226       -19.7344 
 148   0.0000      -0.723086       -19.6762 
 149   0.0000      -0.714973       -19.4554 
 150   0.0000      -0.708284       -19.2734 
 151   0.0000      -0.703524       -19.1439 
 152   0.0000      -0.697376       -18.9766 
 153   0.0000      -0.693878       -18.8814 
 154   0.0000      -0.690773       -18.7969 
 155   0.0000      -0.684989       -18.6395 
 156   0.0000      -0.680713       -18.5231 
 157   0.0000      -0.677317       -18.4307 
 158   0.0000      -0.672288       -18.2939 
 159   0.0000      -0.663556       -18.0563 
 160   0.0000      -0.657829       -17.9004 
 161   0.0000      -0.656651       -17.8684 
 162   0.0000      -0.652163       -17.7462 
 163   0.0000      -0.642769       -17.4906 
 164   0.0000      -0.640238       -17.4218 
 165   0.0000      -0.637273       -17.3411 
 166   0.0000      -0.630615       -17.1599 
 167   0.0000      -0.619975       -16.8704 
 168   0.0000      -0.618196       -16.8220 
 169   0.0000      -0.615683       -16.7536 
 170   0.0000      -0.608194       -16.5498 
 171   0.0000      -0.606143       -16.4940 
 172   0.0000      -0.597068       -16.2470 
 173   0.0000      -0.592581       -16.1249 
 174   0.0000      -0.590031       -16.0556 
 175   0.0000      -0.580517       -15.7967 
 176   0.0000      -0.573930       -15.6174 
 177   0.0000      -0.572639       -15.5823 
 178   0.0000      -0.564517       -15.3613 
 179   0.0000      -0.561531       -15.2800 
 180   0.0000      -0.556910       -15.1543 
 181   0.0000      -0.540858       -14.7175 
 182   0.0000      -0.536472       -14.5982 
 183   0.0000      -0.525049       -14.2873 
 184   0.0000      -0.519497       -14.1362 
 185   0.0000      -0.506607       -13.7855 
 186   0.0000      -0.501501       -13.6465 
 187   0.0000      -0.490660       -13.3515 
 188   0.0000      -0.484109       -13.1733 
 189   0.0000      -0.477393       -12.9905 
 190   0.0000      -0.468092       -12.7374 
 191   0.0000      -0.463853       -12.6221 
 192   0.0000      -0.455623       -12.3981 
 193   0.0000      -0.445710       -12.1284 
 194   0.0000      -0.440417       -11.9843 
 195   0.0000      -0.432860       -11.7787 
 196   0.0000      -0.431235       -11.7345 
 197   0.0000      -0.417370       -11.3572 
 198   0.0000      -0.416132       -11.3235 
 199   0.0000      -0.413133       -11.2419 
 200   0.0000      -0.407558       -11.0902 
 201   0.0000      -0.402183       -10.9440 
 202   0.0000      -0.397108       -10.8059 
 203   0.0000      -0.383375       -10.4322 
 204   0.0000      -0.373382       -10.1603 
 205   0.0000      -0.367262        -9.9937 
 206   0.0000      -0.363645        -9.8953 
 207   0.0000      -0.355205        -9.6656 
 208   0.0000      -0.351165        -9.5557 
 209   0.0000      -0.342213        -9.3121 
 210   0.0000      -0.332371        -9.0443 
 211   0.0000      -0.330786        -9.0011 
 212   0.0000      -0.329057        -8.9541 
 213   0.0000      -0.316171        -8.6035 
 214   0.0000      -0.311900        -8.4872 
 215   0.0000      -0.303475        -8.2580 
 216   0.0000      -0.292128        -7.9492 
 217   0.0000      -0.284413        -7.7393 
 218   0.0000      -0.280546        -7.6341 
 219   0.0000      -0.271372        -7.3844 
 220   0.0000      -0.260885        -7.0990 
 221   0.0000      -0.256605        -6.9826 
 222   0.0000      -0.252300        -6.8654 
 223   0.0000      -0.250395        -6.8136 
 224   0.0000      -0.238749        -6.4967 
 225   0.0000      -0.232092        -6.3155 
 226   0.0000      -0.228241        -6.2108 
 227   0.0000      -0.220068        -5.9884 
 228   0.0000      -0.204336        -5.5603 
 229   0.0000      -0.200014        -5.4427 
 230   0.0000      -0.185273        -5.0415 
 231   0.0000      -0.174054        -4.7362 
 232   0.0000      -0.166063        -4.5188 
 233   0.0000      -0.163747        -4.4558 
 234   0.0000      -0.155207        -4.2234 
 235   0.0000      -0.151241        -4.1155 
 236   0.0000      -0.146165        -3.9774 
 237   0.0000      -0.143930        -3.9165 
 238   0.0000      -0.131467        -3.5774 
 239   0.0000      -0.120005        -3.2655 
 240   0.0000      -0.118213        -3.2167 
 241   0.0000      -0.109025        -2.9667 
 242   0.0000      -0.103135        -2.8065 
 243   0.0000      -0.089654        -2.4396 
 244   0.0000      -0.083781        -2.2798 
 245   0.0000      -0.080376        -2.1872 
 246   0.0000      -0.076170        -2.0727 
 247   0.0000      -0.071038        -1.9331 
 248   0.0000      -0.059550        -1.6204 
 249   0.0000      -0.057734        -1.5710 
 250   0.0000      -0.054577        -1.4851 
 251   0.0000      -0.036543        -0.9944 
 252   0.0000      -0.029182        -0.7941 
 253   0.0000      -0.019433        -0.5288 
 254   0.0000      -0.018343        -0.4991 
 255   0.0000      -0.003644        -0.0991 
 256   0.0000       0.002311         0.0629 
 257   0.0000       0.015031         0.4090 
 258   0.0000       0.017575         0.4782 
 259   0.0000       0.026869         0.7311 
 260   0.0000       0.033454         0.9103 
 261   0.0000       0.047909         1.3037 
 262   0.0000       0.052380         1.4253 
 263   0.0000       0.061219         1.6659 
 264   0.0000       0.063613         1.7310 
 265   0.0000       0.068653         1.8681 
 266   0.0000       0.084305         2.2941 
 267   0.0000       0.089469         2.4346 
 268   0.0000       0.099934         2.7193 
 269   0.0000       0.104139         2.8338 
 270   0.0000       0.109567         2.9815 
 271   0.0000       0.117328         3.1927 
 272   0.0000       0.125195         3.4067 
 273   0.0000       0.130289         3.5453 
 274   0.0000       0.140269         3.8169 
 275   0.0000       0.149926         4.0797 
 276   0.0000       0.156551         4.2600 
 277   0.0000       0.168237         4.5780 
 278   0.0000       0.173158         4.7119 
 279   0.0000       0.176852         4.8124 
 280   0.0000       0.186914         5.0862 
 281   0.0000       0.196516         5.3475 
 282   0.0000       0.200592         5.4584 
 283   0.0000       0.207252         5.6396 
 284   0.0000       0.210772         5.7354 
 285   0.0000       0.217495         5.9183 
 286   0.0000       0.230887         6.2828 
 287   0.0000       0.242830         6.6077 
 288   0.0000       0.246841         6.7169 
 289   0.0000       0.249957         6.8017 
 290   0.0000       0.257717         7.0128 
 291   0.0000       0.260377         7.0852 
 292   0.0000       0.275274         7.4906 
 293   0.0000       0.279470         7.6048 
 294   0.0000       0.283624         7.7178 
 295   0.0000       0.291970         7.9449 
 296   0.0000       0.299908         8.1609 
 297   0.0000       0.306079         8.3288 
 298   0.0000       0.313314         8.5257 
 299   0.0000       0.319584         8.6963 
 300   0.0000       0.323464         8.8019 
 301   0.0000       0.330507         8.9935 
 302   0.0000       0.342577         9.3220 
 303   0.0000       0.346254         9.4221 
 304   0.0000       0.351161         9.5556 
 305   0.0000       0.360593         9.8122 
 306   0.0000       0.371711        10.1148 
 307   0.0000       0.378023        10.2865 
 308   0.0000       0.385597        10.4926 
 309   0.0000       0.390795        10.6341 
 310   0.0000       0.395389        10.7591 
 311   0.0000       0.397970        10.8293 
 312   0.0000       0.416676        11.3383 
 313   0.0000       0.441439        12.0122 
 314   0.0000       0.446020        12.1368 
 315   0.0000       0.457381        12.4460 
 316   0.0000       0.459001        12.4900 
 317   0.0000       0.469800        12.7839 
 318   0.0000       0.478103        13.0098 
 319   0.0000       0.489443        13.3184 
 320   0.0000       0.499704        13.5976 
 321   0.0000       0.503969        13.7137 
 322   0.0000       0.510231        13.8841 
 323   0.0000       0.524092        14.2613 
 324   0.0000       0.543529        14.7902 
 325   0.0000       0.548517        14.9259 
 326   0.0000       0.557570        15.1722 
 327   0.0000       0.566269        15.4089 
 328   0.0000       0.579513        15.7693 
 329   0.0000       0.584540        15.9061 
 330   0.0000       0.594576        16.1792 
 331   0.0000       0.609256        16.5787 
 332   0.0000       0.619061        16.8455 
 333   0.0000       0.626519        17.0485 
 334   0.0000       0.634441        17.2640 
 335   0.0000       0.639592        17.4042 
 336   0.0000       0.650274        17.6948 
 337   0.0000       0.653922        17.7941 
 338   0.0000       0.661549        18.0017 
 339   0.0000       0.673857        18.3366 
 340   0.0000       0.687398        18.7050 
 341   0.0000       0.713054        19.4032 
 342   0.0000       0.732183        19.9237 
 343   0.0000       0.739659        20.1271 
 344   0.0000       0.770630        20.9699 
 345   0.0000       0.774115        21.0647 
 346   0.0000       0.785357        21.3707 
 347   0.0000       0.811448        22.0806 
 348   0.0000       0.831490        22.6260 
 349   0.0000       0.844019        22.9669 
 350   0.0000       0.847509        23.0619 
 351   0.0000       0.869227        23.6529 
 352   0.0000       0.887800        24.1583 
 353   0.0000       0.895422        24.3657 
 354   0.0000       0.896849        24.4045 
 355   0.0000       0.919350        25.0168 
 356   0.0000       0.930048        25.3079 
 357   0.0000       0.939056        25.5530 
 358   0.0000       0.948288        25.8042 
 359   0.0000       0.952447        25.9174 
 360   0.0000       0.970784        26.4164 
 361   0.0000       0.990351        26.9488 
 362   0.0000       0.994036        27.0491 
 363   0.0000       1.006744        27.3949 
 364   0.0000       1.033813        28.1315 
 365   0.0000       1.040750        28.3202 
 366   0.0000       1.059356        28.8265 
 367   0.0000       1.065112        28.9832 
 368   0.0000       1.070811        29.1382 
 369   0.0000       1.082080        29.4449 
 370   0.0000       1.098492        29.8915 
 371   0.0000       1.113858        30.3096 
 372   0.0000       1.152061        31.3492 
 373   0.0000       1.158010        31.5111 
 374   0.0000       1.162730        31.6395 
 375   0.0000       1.169193        31.8154 
 376   0.0000       1.199102        32.6292 
 377   0.0000       1.209706        32.9178 
 378   0.0000       1.218181        33.1484 
 379   0.0000       1.233293        33.5596 
 380   0.0000       1.241812        33.7914 
 381   0.0000       1.264543        34.4100 
 382   0.0000       1.269121        34.5345 
 383   0.0000       1.276273        34.7292 
 384   0.0000       1.293978        35.2109 
 385   0.0000       1.301099        35.4047 
 386   0.0000       1.307804        35.5872 
 387   0.0000       1.312214        35.7072 
 388   0.0000       1.323700        36.0197 
 389   0.0000       1.336852        36.3776 
 390   0.0000       1.344678        36.5905 
 391   0.0000       1.358823        36.9754 
 392   0.0000       1.372542        37.3488 
 393   0.0000       1.396036        37.9881 
 394   0.0000       1.403551        38.1926 
 395   0.0000       1.409021        38.3414 
 396   0.0000       1.421980        38.6940 
 397   0.0000       1.429244        38.8917 
 398   0.0000       1.443915        39.2909 
 399   0.0000       1.450505        39.4702 
 400   0.0000       1.453893        39.5624 
 401   0.0000       1.455629        39.6097 
 402   0.0000       1.472232        40.0615 
 403   0.0000       1.478462        40.2310 
 404   0.0000       1.494918        40.6788 
 405   0.0000       1.500747        40.8374 
 406   0.0000       1.514998        41.2252 
 407   0.0000       1.522500        41.4293 
 408   0.0000       1.531694        41.6795 
 409   0.0000       1.548252        42.1301 
 410   0.0000       1.555589        42.3297 
 411   0.0000       1.573019        42.8040 
 412   0.0000       1.582338        43.0576 
 413   0.0000       1.600475        43.5511 
 414   0.0000       1.607143        43.7326 
 415   0.0000       1.611391        43.8482 
 416   0.0000       1.624713        44.2107 
 417   0.0000       1.632575        44.4246 
 418   0.0000       1.636865        44.5414 
 419   0.0000       1.641741        44.6741 
 420   0.0000       1.651901        44.9505 
 421   0.0000       1.657148        45.0933 
 422   0.0000       1.663069        45.2544 
 423   0.0000       1.668470        45.4014 
 424   0.0000       1.679631        45.7051 
 425   0.0000       1.686235        45.8848 
 426   0.0000       1.694693        46.1149 
 427   0.0000       1.701920        46.3116 
 428   0.0000       1.715815        46.6897 
 429   0.0000       1.722654        46.8758 
 430   0.0000       1.731458        47.1154 
 431   0.0000       1.736479        47.2520 
 432   0.0000       1.744007        47.4568 
 433   0.0000       1.748066        47.5673 
 434   0.0000       1.757753        47.8309 
 435   0.0000       1.766531        48.0697 
 436   0.0000       1.774287        48.2808 
 437   0.0000       1.782028        48.4914 
 438   0.0000       1.785038        48.5734 
 439   0.0000       1.797244        48.9055 
 440   0.0000       1.798894        48.9504 
 441   0.0000       1.816647        49.4335 
 442   0.0000       1.821650        49.5696 
 443   0.0000       1.825961        49.6869 
 444   0.0000       1.840897        50.0934 
 445   0.0000       1.841667        50.1143 
 446   0.0000       1.849238        50.3203 
 447   0.0000       1.858882        50.5828 
 448   0.0000       1.865409        50.7603 
 449   0.0000       1.867278        50.8112 
 450   0.0000       1.875892        51.0456 
 451   0.0000       1.882975        51.2384 
 452   0.0000       1.891892        51.4810 
 453   0.0000       1.898587        51.6632 
 454   0.0000       1.907323        51.9009 
 455   0.0000       1.916645        52.1546 
 456   0.0000       1.920425        52.2574 
 457   0.0000       1.926984        52.4359 
 458   0.0000       1.944486        52.9122 
 459   0.0000       1.946897        52.9778 
 460   0.0000       1.952145        53.1206 
 461   0.0000       1.956013        53.2258 
 462   0.0000       1.961546        53.3764 
 463   0.0000       1.972913        53.6857 
 464   0.0000       1.978410        53.8353 
 465   0.0000       1.993355        54.2419 
 466   0.0000       1.997079        54.3433 
 467   0.0000       2.002452        54.4895 
 468   0.0000       2.005139        54.5626 
 469   0.0000       2.014134        54.8074 
 470   0.0000       2.017445        54.8975 
 471   0.0000       2.024113        55.0789 
 472   0.0000       2.024451        55.0881 
 473   0.0000       2.036523        55.4166 
 474   0.0000       2.041415        55.5497 
 475   0.0000       2.053305        55.8733 
 476   0.0000       2.062559        56.1251 
 477   0.0000       2.065621        56.2084 
 478   0.0000       2.071357        56.3645 
 479   0.0000       2.072155        56.3862 
 480   0.0000       2.077736        56.5381 
 481   0.0000       2.080354        56.6093 
 482   0.0000       2.090302        56.8800 
 483   0.0000       2.096436        57.0469 
 484   0.0000       2.099775        57.1378 
 485   0.0000       2.104216        57.2586 
 486   0.0000       2.107061        57.3361 
 487   0.0000       2.113813        57.5198 
 488   0.0000       2.118797        57.6554 
 489   0.0000       2.125572        57.8398 
 490   0.0000       2.131641        58.0049 
 491   0.0000       2.139301        58.2133 
 492   0.0000       2.142897        58.3112 
 493   0.0000       2.151763        58.5525 
 494   0.0000       2.153207        58.5918 
 495   0.0000       2.161667        58.8220 
 496   0.0000       2.167703        58.9862 
 497   0.0000       2.175704        59.2039 
 498   0.0000       2.188258        59.5455 
 499   0.0000       2.196283        59.7639 
 500   0.0000       2.204476        59.9868 
 501   0.0000       2.209116        60.1131 
 502   0.0000       2.219114        60.3852 
 503   0.0000       2.230872        60.7051 
 504   0.0000       2.240768        60.9744 
 505   0.0000       2.247170        61.1486 
 506   0.0000       2.252463        61.2926 
 507   0.0000       2.257267        61.4234 
 508   0.0000       2.260493        61.5111 
 509   0.0000       2.273064        61.8532 
 510   0.0000       2.282282        62.1041 
 511   0.0000       2.291379        62.3516 
 512   0.0000       2.300712        62.6056 
 513   0.0000       2.302247        62.6473 
 514   0.0000       2.307557        62.7918 
 515   0.0000       2.311270        62.8928 
 516   0.0000       2.318122        63.0793 
 517   0.0000       2.327227        63.3271 
 518   0.0000       2.328756        63.3687 
 519   0.0000       2.329934        63.4007 
 520   0.0000       2.338463        63.6328 
 521   0.0000       2.341199        63.7073 
 522   0.0000       2.353779        64.0496 
 523   0.0000       2.356870        64.1337 
 524   0.0000       2.366721        64.4018 
 525   0.0000       2.375581        64.6428 
 526   0.0000       2.377747        64.7018 
 527   0.0000       2.390661        65.0532 
 528   0.0000       2.393263        65.1240 
 529   0.0000       2.401123        65.3379 
 530   0.0000       2.406238        65.4771 
 531   0.0000       2.410895        65.6038 
 532   0.0000       2.417396        65.7807 
 533   0.0000       2.420640        65.8690 
 534   0.0000       2.427571        66.0576 
 535   0.0000       2.431496        66.1644 
 536   0.0000       2.439472        66.3814 
 537   0.0000       2.443780        66.4986 
 538   0.0000       2.457960        66.8845 
 539   0.0000       2.463370        67.0317 
 540   0.0000       2.473954        67.3197 
 541   0.0000       2.482845        67.5617 
 542   0.0000       2.489725        67.7489 
 543   0.0000       2.493325        67.8468 
 544   0.0000       2.500755        68.0490 
 545   0.0000       2.505257        68.1715 
 546   0.0000       2.509221        68.2794 
 547   0.0000       2.518203        68.5238 
 548   0.0000       2.524589        68.6976 
 549   0.0000       2.533554        68.9415 
 550   0.0000       2.537451        69.0475 
 551   0.0000       2.544182        69.2307 
 552   0.0000       2.548041        69.3357 
 553   0.0000       2.553552        69.4857 
 554   0.0000       2.572264        69.9949 
 555   0.0000       2.576287        70.1043 
 556   0.0000       2.586366        70.3786 
 557   0.0000       2.589838        70.4731 
 558   0.0000       2.593633        70.5763 
 559   0.0000       2.599704        70.7415 
 560   0.0000       2.612650        71.0938 
 561   0.0000       2.631792        71.6147 
 562   0.0000       2.638440        71.7956 
 563   0.0000       2.651605        72.1538 
 564   0.0000       2.659782        72.3764 
 565   0.0000       2.663734        72.4839 
 566   0.0000       2.685093        73.0651 
 567   0.0000       2.693981        73.3070 
 568   0.0000       2.701572        73.5135 
 569   0.0000       2.708202        73.6939 
 570   0.0000       2.718245        73.9672 
 571   0.0000       2.724920        74.1488 
 572   0.0000       2.732432        74.3533 
 573   0.0000       2.743995        74.6679 
 574   0.0000       2.749702        74.8232 
 575   0.0000       2.770325        75.3844 
 576   0.0000       2.771565        75.4181 
 577   0.0000       2.786015        75.8113 
 578   0.0000       2.789860        75.9160 
 579   0.0000       2.794941        76.0542 
 580   0.0000       2.800667        76.2100 
 581   0.0000       2.809920        76.4618 
 582   0.0000       2.815263        76.6072 
 583   0.0000       2.819649        76.7266 
 584   0.0000       2.830710        77.0275 
 585   0.0000       2.832701        77.0817 
 586   0.0000       2.848070        77.4999 
 587   0.0000       2.851105        77.5825 
 588   0.0000       2.860721        77.8442 
 589   0.0000       2.874935        78.2310 
 590   0.0000       2.881556        78.4111 
 591   0.0000       2.888589        78.6025 
 592   0.0000       2.893523        78.7368 
 593   0.0000       2.899545        78.9006 
 594   0.0000       2.906174        79.0810 
 595   0.0000       2.913848        79.2898 
 596   0.0000       2.918467        79.4155 
 597   0.0000       2.933524        79.8252 
 598   0.0000       2.939066        79.9761 
 599   0.0000       2.941478        80.0417 
 600   0.0000       2.947856        80.2152 
 601   0.0000       2.953201        80.3607 
 602   0.0000       2.965546        80.6966 
 603   0.0000       2.978634        81.0527 
 604   0.0000       2.984483        81.2119 
 605   0.0000       3.006327        81.8063 
 606   0.0000       3.008330        81.8608 
 607   0.0000       3.015374        82.0525 
 608   0.0000       3.021575        82.2212 
 609   0.0000       3.029819        82.4456 
 610   0.0000       3.033346        82.5415 
 611   0.0000       3.043085        82.8066 
 612   0.0000       3.049246        82.9742 
 613   0.0000       3.058594        83.2286 
 614   0.0000       3.065696        83.4218 
 615   0.0000       3.068584        83.5004 
 616   0.0000       3.076910        83.7270 
 617   0.0000       3.085107        83.9500 
 618   0.0000       3.093947        84.1906 
 619   0.0000       3.102146        84.4137 
 620   0.0000       3.103678        84.4554 
 621   0.0000       3.119091        84.8748 
 622   0.0000       3.125708        85.0548 
 623   0.0000       3.132549        85.2410 
 624   0.0000       3.138108        85.3923 
 625   0.0000       3.143574        85.5410 
 626   0.0000       3.146172        85.6117 
 627   0.0000       3.165115        86.1272 
 628   0.0000       3.169817        86.2551 
 629   0.0000       3.172370        86.3246 
 630   0.0000       3.186202        86.7010 
 631   0.0000       3.199800        87.0710 
 632   0.0000       3.205917        87.2374 
 633   0.0000       3.210714        87.3680 
 634   0.0000       3.226547        87.7988 
 635   0.0000       3.229159        87.8699 
 636   0.0000       3.240478        88.1779 
 637   0.0000       3.248446        88.3947 
 638   0.0000       3.257190        88.6327 
 639   0.0000       3.269642        88.9715 
 640   0.0000       3.275786        89.1387 
 641   0.0000       3.280647        89.2709 
 642   0.0000       3.294255        89.6412 
 643   0.0000       3.298125        89.7465 
 644   0.0000       3.307699        90.0071 
 645   0.0000       3.311742        90.1171 
 646   0.0000       3.321727        90.3888 
 647   0.0000       3.327452        90.5446 
 648   0.0000       3.333343        90.7049 
 649   0.0000       3.336811        90.7992 
 650   0.0000       3.342345        90.9498 
 651   0.0000       3.349882        91.1549 
 652   0.0000       3.364619        91.5559 
 653   0.0000       3.377668        91.9110 
 654   0.0000       3.385460        92.1231 
 655   0.0000       3.394436        92.3673 
 656   0.0000       3.405724        92.6745 
 657   0.0000       3.421659        93.1081 
 658   0.0000       3.424243        93.1784 
 659   0.0000       3.438567        93.5682 
 660   0.0000       3.461025        94.1793 
 661   0.0000       3.478282        94.6489 
 662   0.0000       3.488324        94.9221 
 663   0.0000       3.499454        95.2250 
 664   0.0000       3.512218        95.5723 
 665   0.0000       3.523425        95.8773 
 666   0.0000       3.536874        96.2432 
 667   0.0000       3.543520        96.4241 
 668   0.0000       3.564258        96.9884 
 669   0.0000       3.584316        97.5342 
 670   0.0000       3.606588        98.1403 
 671   0.0000       3.615379        98.3795 
 672   0.0000       3.642051        99.1052 
 673   0.0000       3.657654        99.5298 
 674   0.0000       3.666697        99.7759 
 675   0.0000       3.679786       100.1321 
 676   0.0000       3.689594       100.3990 
 677   0.0000       3.716231       101.1238 
 678   0.0000       3.726673       101.4079 
 679   0.0000       3.733985       101.6069 
 680   0.0000       3.741767       101.8187 
 681   0.0000       3.756943       102.2316 
 682   0.0000       3.767347       102.5147 
 683   0.0000       3.776858       102.7735 
 684   0.0000       3.783363       102.9505 
 685   0.0000       3.791526       103.1727 
 686   0.0000       3.809694       103.6670 
 687   0.0000       3.813025       103.7577 
 688   0.0000       3.831154       104.2510 
 689   0.0000       3.840127       104.4952 
 690   0.0000       3.844580       104.6164 
 691   0.0000       3.858853       105.0047 
 692   0.0000       3.873577       105.4054 
 693   0.0000       3.879137       105.5567 
 694   0.0000       3.885946       105.7420 
 695   0.0000       3.896090       106.0180 
 696   0.0000       3.907675       106.3333 
 697   0.0000       3.919075       106.6435 
 698   0.0000       3.941450       107.2523 
 699   0.0000       3.951765       107.5330 
 700   0.0000       3.963129       107.8422 
 701   0.0000       3.975830       108.1878 
 702   0.0000       3.996660       108.7546 
 703   0.0000       4.005852       109.0048 
 704   0.0000       4.023595       109.4876 
 705   0.0000       4.041301       109.9694 
 706   0.0000       4.050360       110.2159 
 707   0.0000       4.059215       110.4569 
 708   0.0000       4.071929       110.8028 
 709   0.0000       4.086105       111.1886 
 710   0.0000       4.097858       111.5084 
 711   0.0000       4.112942       111.9188 
 712   0.0000       4.128722       112.3482 
 713   0.0000       4.134793       112.5134 
 714   0.0000       4.151571       112.9700 
 715   0.0000       4.163549       113.2959 
 716   0.0000       4.184476       113.8654 
 717   0.0000       4.203911       114.3942 
 718   0.0000       4.216497       114.7367 
 719   0.0000       4.226941       115.0209 
 720   0.0000       4.234784       115.2343 
 721   0.0000       4.246741       115.5597 
 722   0.0000       4.252007       115.7030 
 723   0.0000       4.256261       115.8187 
 724   0.0000       4.273238       116.2807 
 725   0.0000       4.283224       116.5524 
 726   0.0000       4.295940       116.8985 
 727   0.0000       4.309608       117.2704 
 728   0.0000       4.317594       117.4877 
 729   0.0000       4.338213       118.0488 
 730   0.0000       4.343418       118.1904 
 731   0.0000       4.348718       118.3346 
 732   0.0000       4.369802       118.9084 
 733   0.0000       4.377762       119.1250 
 734   0.0000       4.406280       119.9010 
 735   0.0000       4.410478       120.0152 
 736   0.0000       4.428170       120.4966 
 737   0.0000       4.440501       120.8322 
 738   0.0000       4.454759       121.2202 
 739   0.0000       4.459318       121.3442 
 740   0.0000       4.462235       121.4236 
 741   0.0000       4.488380       122.1350 
 742   0.0000       4.507603       122.6581 
 743   0.0000       4.520392       123.0061 
 744   0.0000       4.527699       123.2050 
 745   0.0000       4.539385       123.5229 
 746   0.0000       4.563830       124.1881 
 747   0.0000       4.588209       124.8515 
 748   0.0000       4.596213       125.0693 
 749   0.0000       4.610275       125.4520 
 750   0.0000       4.612009       125.4991 
 751   0.0000       4.622951       125.7969 
 752   0.0000       4.654163       126.6462 
 753   0.0000       4.663168       126.8913 
 754   0.0000       4.691885       127.6727 
 755   0.0000       4.698453       127.8514 
 756   0.0000       4.723250       128.5262 
 757   0.0000       4.743296       129.0716 
 758   0.0000       4.768121       129.7472 
 759   0.0000       4.794474       130.4643 
 760   0.0000       4.828581       131.3924 
 761   0.0000       4.835304       131.5753 
 762   0.0000       4.866697       132.4296 
 763   0.0000       4.905396       133.4826 
 764   0.0000       4.961242       135.0023 
 765   0.0000       4.979242       135.4921 
 766   0.0000       4.982758       135.5877 
 767   0.0000       4.997483       135.9884 
 768   0.0000       5.015899       136.4896 
 769   0.0000       5.028978       136.8455 
 770   0.0000       5.037052       137.0652 
 771   0.0000       5.056525       137.5950 
 772   0.0000       5.067335       137.8892 
 773   0.0000       5.125323       139.4671 
 774   0.0000       5.134957       139.7293 
 775   0.0000       5.170075       140.6849 
 776   0.0000       5.178882       140.9245 
 777   0.0000       5.195688       141.3819 
 778   0.0000       5.265222       143.2740 
 779   0.0000       5.285062       143.8138 
 780   0.0000       5.340235       145.3152 
 781   0.0000       5.349626       145.5707 
 782   0.0000       5.392472       146.7366 
 783   0.0000       5.429216       147.7365 
 784   0.0000       5.513789       150.0378 
 785   0.0000       5.520290       150.2147 
 786   0.0000       5.564338       151.4133 
 787   0.0000       5.567925       151.5109 
 788   0.0000       5.593262       152.2004 
 789   0.0000       5.667514       154.2209 
 790   0.0000       5.747939       156.4094 
 791   0.0000       5.785873       157.4416 
 792   0.0000       5.792989       157.6352 
 793   0.0000       5.825489       158.5196 
 794   0.0000       5.846367       159.0877 
 795   0.0000       5.878890       159.9727 
 796   0.0000       5.920781       161.1126 
 797   0.0000       5.965326       162.3248 
 798   0.0000       5.997726       163.2064 
 799   0.0000       6.036145       164.2519 
 800   0.0000       6.115707       166.4168 
 801   0.0000       6.168306       167.8481 
 802   0.0000       6.228012       169.4728 
 803   0.0000       6.270597       170.6316 
 804   0.0000       6.332497       172.3160 
 805   0.0000       6.499069       176.8487 
 806   0.0000       6.562550       178.5761 
 807   0.0000       6.593737       179.4247 
 808   0.0000       6.661240       181.2616 
 809   0.0000       8.071184       219.6281 
 810   0.0000       8.473445       230.5742 
 811   0.0000       9.497424       258.4381 
 812   0.0000      10.040393       273.2130 
 813   0.0000      10.389792       282.7206 
 814   0.0000      10.877210       295.9839 
 815   0.0000      11.626772       316.3806 
 816   0.0000      11.750592       319.7499 
 817   0.0000      11.771454       320.3176 
 818   0.0000      12.079959       328.7124 
 819   0.0000      12.119346       329.7842 
 820   0.0000      12.387888       337.0916 
 821   0.0000      12.453927       338.8886 
 822   0.0000      12.593326       342.6818 
 823   0.0000      12.816313       348.7496 
 824   0.0000      12.943457       352.2094 
 825   0.0000      13.395314       364.5050 
 826   0.0000      13.658941       371.6787 
 827   0.0000      14.559083       396.1728 

                    ********************************
                    * MULLIKEN POPULATION ANALYSIS *
                    ********************************

-----------------------
MULLIKEN ATOMIC CHARGES
-----------------------
   0 C :   -0.301080
   1 C :    0.049798
   2 O :   -0.332851
   3 C :    0.538816
   4 O :   -0.572960
   5 C :   -0.168292
   6 C :    0.149231
   7 C :   -0.284758
   8 N :   -0.119037
   9 C :    0.362699
  10 S :   -0.793968
  11 N :   -0.231205
  12 C :    0.065457
  13 C :   -0.016138
  14 C :   -0.202909
  15 C :   -0.161850
  16 C :   -0.270098
  17 C :    0.300208
  18 O :   -0.443630
  19 C :   -0.253596
  20 H :    0.100409
  21 H :    0.115155
  22 H :    0.120261
  23 H :    0.103417
  24 H :    0.107840
  25 H :    0.134249
  26 H :    0.126521
  27 H :    0.148321
  28 H :    0.269606
  29 H :    0.259361
  30 H :    0.159781
  31 H :    0.180669
  32 H :    0.183220
  33 H :    0.179800
  34 H :    0.327265
  35 H :    0.170288
Sum of atomic charges:   -0.0000000

--------------------------------
MULLIKEN REDUCED ORBITAL CHARGES
--------------------------------
  0 C s       :     3.263523  s :     3.263523
      pz      :     1.038143  p :     2.960736
      px      :     0.901385
      py      :     1.021208
      dz2     :     0.015756  d :     0.071915
      dxz     :     0.015871
      dyz     :     0.003669
      dx2y2   :     0.025050
      dxy     :     0.011570
      f0      :     0.000201  f :     0.004906
      f+1     :     0.001484
      f-1     :     0.000519
      f+2     :     0.000537
      f-2     :     0.000098
      f+3     :     0.000889
      f-3     :     0.001179
  1 C s       :     3.173156  s :     3.173156
      pz      :     0.680782  p :     2.609993
      px      :     0.936315
      py      :     0.992896
      dz2     :     0.034844  d :     0.154966
      dxz     :     0.042162
      dyz     :     0.025098
      dx2y2   :     0.028952
      dxy     :     0.023910
      f0      :     0.002843  f :     0.012088
      f+1     :     0.002371
      f-1     :     0.002307
      f+2     :     0.001252
      f-2     :     0.000936
      f+3     :     0.001195
      f-3     :     0.001183
  2 O s       :     3.719537  s :     3.719537
      pz      :     1.442632  p :     4.578424
      px      :     1.376771
      py      :     1.759021
      dz2     :     0.010109  d :     0.032705
      dxz     :     0.005896
      dyz     :     0.004392
      dx2y2   :     0.008205
      dxy     :     0.004104
      f0      :     0.000364  f :     0.002185
      f+1     :     0.000417
      f-1     :     0.000242
      f+2     :     0.000413
      f-2     :     0.000167
[...]
 15 C s       :     2.695268  s :     2.695268
      pz      :     0.845381  p :     2.806740
      px      :     0.955811
      py      :     1.005548
      dz2     :     0.032970  d :     0.434998
      dxz     :     0.043207
      dyz     :     0.097161
      dx2y2   :     0.150833
      dxy     :     0.110827
      f0      :     0.003633  f :     0.044242
      f+1     :     0.001573
      f-1     :     0.004786
      f+2     :     0.004132
      f-2     :     0.007728
      f+3     :     0.008696
      f-3     :     0.013694
 16 C s       :     2.699937  s :     2.699937
      pz      :     0.892817  p :     2.849411
      px      :     0.974698
      py      :     0.981896
      dz2     :     0.029816  d :     0.398037
      dxz     :     0.065782
      dyz     :     0.049021
      dx2y2   :     0.135722
      dxy     :     0.117696
      f0      :     0.003390  f :     0.041835
      f+1     :     0.004188
      f-1     :     0.002039
      f+2     :     0.005408
      f-2     :     0.005129
      f+3     :     0.008306
      f-3     :     0.013376
 17 C s       :     2.709121  s :     2.709121
      pz      :     0.835517  p :     2.684092
      px      :     0.969700
      py      :     0.878876
      dz2     :     0.061481  d :     0.698304
      dxz     :     0.099364
      dyz     :     0.126905
      dx2y2   :     0.194422
      dxy     :     0.216131
      f0      :     0.008086  f :     0.095769
      f+1     :     0.006653
      f-1     :     0.007475
      f+2     :     0.008639
      f-2     :     0.016100
      f+3     :     0.016447
      f-3     :     0.032369
 18 O s       :     3.186534  s :     3.186534
      pz      :     1.590229  p :     4.386911
      px      :     1.532756
      py      :     1.263926
      dz2     :     0.006227  d :     0.071165
      dxz     :     0.007642
      dyz     :     0.013245
      dx2y2   :     0.016014
      dxy     :     0.028036
      f0      :     0.000471  f :     0.005173
      f+1     :     0.000358
      f-1     :     0.000508
      f+2     :     0.000158
      f-2     :     0.000914
      f+3     :     0.001360
      f-3     :     0.001404
 19 C s       :     2.710039  s :     2.710039
      pz      :     0.914651  p :     2.858880
      px      :     0.967337
      py      :     0.976892
      dz2     :     0.029735  d :     0.371798
      dxz     :     0.030206
      dyz     :     0.072101
      dx2y2   :     0.137196
      dxy     :     0.102559
      f0      :     0.002775  f :     0.036491
      f+1     :     0.001703
      f-1     :     0.004058
      f+2     :     0.003408
      f-2     :     0.005784
      f+3     :     0.007923
      f-3     :     0.010841
 20 H s       :     0.828403  s :     0.828403
      pz      :     0.042409  p :     0.158612
      px      :     0.041141
      py      :     0.075062
      dz2     :     0.002422  d :     0.029269
      dxz     :     0.000202
      dyz     :     0.009863
      dx2y2   :     0.006838
      dxy     :     0.009943
 21 H s       :     0.837959  s :     0.837959
      pz      :     0.062215  p :     0.152188
      px      :     0.043691
      py      :     0.046282
      dz2     :     0.007900  d :     0.027930
      dxz     :     0.007418
      dyz     :     0.006981
      dx2y2   :     0.002752
      dxy     :     0.002879
 22 H s       :     0.838690  s :     0.838690
      pz      :     0.060623  p :     0.149104
      px      :     0.044058
      py      :     0.044423
      dz2     :     0.008400  d :     0.027148
      dxz     :     0.006646
      dyz     :     0.005660
      dx2y2   :     0.003590
      dxy     :     0.002852
 23 H s       :     0.851716  s :     0.851716
      pz      :     0.027262  p :     0.145588
      px      :     0.038623
      py      :     0.079703
      dz2     :     0.002839  d :     0.026896
      dxz     :     0.000299
      dyz     :     0.007107
      dx2y2   :     0.007871
      dxy     :     0.008780
 24 H s       :     0.848941  s :     0.848941
      pz      :     0.048105  p :     0.143517
      px      :     0.047832
      py      :     0.047580
      dz2     :     0.005812  d :     0.026905
      dxz     :     0.006324
      dyz     :     0.005302
      dx2y2   :     0.005979
      dxy     :     0.003488
 25 H s       :     0.837270  s :     0.837270
      pz      :     0.062309  p :     0.148668
      px      :     0.044131
      py      :     0.042227
      dz2     :     0.007675  d :     0.027047
      dxz     :     0.007159
      dyz     :     0.006494
      dx2y2   :     0.003198
      dxy     :     0.002521
 26 H s       :     0.819607  s :     0.819607
      pz      :     0.044820  p :     0.160773
      px      :     0.041734
      py      :     0.074219
      dz2     :     0.003511  d :     0.029083
      dxz     :     0.000868
      dyz     :     0.009282
      dx2y2   :     0.007301
      dxy     :     0.008123
 27 H s       :     0.823723  s :     0.823723
      pz      :     0.066629  p :     0.156631
      px      :     0.038504
      py      :     0.051498
      dz2     :     0.008712  d :     0.028140
      dxz     :     0.006252
      dyz     :     0.006696
      dx2y2   :     0.004038
      dxy     :     0.002440
 28 H s       :     0.706424  s :     0.706424
      pz      :     0.085778  p :     0.243681
      px      :     0.085220
      py      :     0.072683
      dz2     :     0.014085  d :     0.059714
      dxz     :     0.016195
      dyz     :     0.009555
      dx2y2   :     0.008113
      dxy     :     0.011766
 29 H s       :     0.721498  s :     0.721498
      pz      :     0.058941  p :     0.254892
      px      :     0.110603
      py      :     0.085348
      dz2     :     0.005653  d :     0.060452
      dxz     :     0.014157
      dyz     :     0.004859
      dx2y2   :     0.018917
      dxy     :     0.016866
 30 H s       :     0.818224  s :     0.818224
      pz      :     0.065643  p :     0.150997
      px      :     0.050116
      py      :     0.035237
      dz2     :     0.008180  d :     0.028624
      dxz     :     0.007487
      dyz     :     0.006516
      dx2y2   :     0.003810
      dxy     :     0.002630
 31 H s       :     0.832615  s :     0.832615
      pz      :     0.043429  p :     0.156089
      px      :     0.047501
      py      :     0.065158
      dz2     :     0.002495  d :     0.027612
      dxz     :     0.002546
      dyz     :     0.005972
      dx2y2   :     0.008593
      dxy     :     0.008006
 32 H s       :     0.827127  s :     0.827127
      pz      :     0.047207  p :     0.152743
      px      :     0.072463
      py      :     0.033073
      dz2     :     0.003810  d :     0.027222
      dxz     :     0.007820
      dyz     :     0.001590
      dx2y2   :     0.006424
      dxy     :     0.007578
 33 H s       :     0.829428  s :     0.829428
      pz      :     0.048350  p :     0.155553
      px      :     0.040282
      py      :     0.066921
      dz2     :     0.003597  d :     0.027381
      dxz     :     0.002295
      dyz     :     0.006793
      dx2y2   :     0.007310
      dxy     :     0.007386
 34 H s       :     0.666164  s :     0.666164
      pz      :     0.114056  p :     0.344769
      px      :     0.127706
      py      :     0.103008
      dz2     :     0.019447  d :     0.100077
      dxz     :     0.017632
      dyz     :     0.017264
      dx2y2   :     0.023382
      dxy     :     0.022353
 35 H s       :     0.839585  s :     0.839585
      pz      :     0.050449  p :     0.167068
      px      :     0.080811
      py      :     0.035808
      dz2     :     0.003342  d :     0.028471
      dxz     :     0.008387
      dyz     :     0.000870
      dx2y2   :     0.007604
      dxy     :     0.008267


                      *****************************
                      * MAYER POPULATION ANALYSIS *
                      *****************************

  NA   - Mulliken gross atomic population
  ZA   - Total nuclear charge
  QA   - Mulliken gross atomic charge
  VA   - Mayer's total valence
  BVA  - Mayer's bonded valence
  FA   - Mayer's free valence

  ATOM       NA         ZA         QA         VA         BVA        FA
  0 C      6.3011     6.0000    -0.3011     3.8878     3.8878     0.0000
  1 C      5.9502     6.0000     0.0498     3.8350     3.8350    -0.0000
  2 O      8.3329     8.0000    -0.3329     2.0903     2.0903     0.0000
  3 C      5.4612     6.0000     0.5388     4.1903     4.1903    -0.0000
  4 O      8.5730     8.0000    -0.5730     1.9703     1.9703    -0.0000
  5 C      6.1683     6.0000    -0.1683     3.6090     3.6090     0.0000
  6 C      5.8508     6.0000     0.1492     3.8404     3.8404    -0.0000
  7 C      6.2848     6.0000    -0.2848     3.8711     3.8711    -0.0000
  8 N      7.1190     7.0000    -0.1190     3.4782     3.4782    -0.0000
  9 C      5.6373     6.0000     0.3627     3.9989     3.9989    -0.0000
 10 S     16.7940    16.0000    -0.7940     1.2943     1.2943     0.0000
 11 N      7.2312     7.0000    -0.2312     3.3137     3.3137     0.0000
 12 C      5.9345     6.0000     0.0655     3.9358     3.9358    -0.0000
 13 C      6.0161     6.0000    -0.0161     3.7800     3.7800    -0.0000
 14 C      6.2029     6.0000    -0.2029     3.8225     3.8225     0.0000
 15 C      6.1619     6.0000    -0.1619     3.7473     3.7473    -0.0000
 16 C      6.2701     6.0000    -0.2701     3.7604     3.7604    -0.0000
 17 C      5.6998     6.0000     0.3002     3.9101     3.9101    -0.0000
 18 O      8.4436     8.0000    -0.4436     2.0606     2.0606     0.0000
 19 C      6.2536     6.0000    -0.2536     3.8016     3.8016     0.0000
 20 H      0.8996     1.0000     0.1004     0.9726     0.9726     0.0000
 21 H      0.8848     1.0000     0.1152     0.9817     0.9817    -0.0000
 22 H      0.8797     1.0000     0.1203     0.9844     0.9844     0.0000
 23 H      0.8966     1.0000     0.1034     0.9743     0.9743     0.0000
 24 H      0.8922     1.0000     0.1078     0.9748     0.9748    -0.0000
 25 H      0.8658     1.0000     0.1342     0.9886     0.9886    -0.0000
 26 H      0.8735     1.0000     0.1265     0.9724     0.9724     0.0000
 27 H      0.8517     1.0000     0.1483     0.9743     0.9743     0.0000
 28 H      0.7304     1.0000     0.2696     0.9555     0.9555    -0.0000
 29 H      0.7406     1.0000     0.2594     0.9657     0.9657     0.0000
 30 H      0.8402     1.0000     0.1598     0.9992     0.9992     0.0000
 31 H      0.8193     1.0000     0.1807     0.9748     0.9748     0.0000
 32 H      0.8168     1.0000     0.1832     0.9662     0.9662    -0.0000
 33 H      0.8202     1.0000     0.1798     0.9753     0.9753     0.0000
 34 H      0.6727     1.0000     0.3273     0.9369     0.9369    -0.0000
 35 H      0.8297     1.0000     0.1703     0.9871     0.9871    -0.0000

  Mayer bond orders larger than 0.100000
B(  0-C ,  1-C ) :   0.9747 B(  0-C , 20-H ) :   0.9749 B(  0-C , 21-H ) :   0.9755 
B(  0-C , 22-H ) :   0.9770 B(  1-C ,  2-O ) :   0.8760 B(  1-C , 23-H ) :   0.9763 
B(  1-C , 24-H ) :   0.9748 B(  2-O ,  3-C ) :   1.2216 B(  3-C ,  4-O ) :   1.8985 
B(  3-C ,  5-C ) :   1.0522 B(  5-C ,  6-C ) :   1.6389 B(  5-C , 12-C ) :   0.9861 
B(  6-C ,  7-C ) :   0.9616 B(  6-C ,  8-N ) :   1.0998 B(  7-C , 25-H ) :   0.9851 
B(  7-C , 26-H ) :   0.9574 B(  7-C , 27-H ) :   0.9547 B(  8-N ,  9-C ) :   1.3905 
B(  8-N , 28-H ) :   0.9123 B(  9-C , 10-S ) :   1.1385 B(  9-C , 11-N ) :   1.3822 
B( 11-N , 12-C ) :   0.9221 B( 11-N , 29-H ) :   0.9264 B( 12-C , 13-C ) :   1.0026 
B( 12-C , 30-H ) :   0.9763 B( 13-C , 14-C ) :   1.3806 B( 13-C , 19-C ) :   1.3457 
B( 14-C , 15-C ) :   1.3663 B( 14-C , 31-H ) :   0.9628 B( 15-C , 16-C ) :   1.3472 
B( 15-C , 32-H ) :   0.9667 B( 16-C , 17-C ) :   1.3368 B( 16-C , 33-H ) :   0.9695 
B( 17-C , 18-O ) :   1.1103 B( 17-C , 19-C ) :   1.3838 B( 18-O , 34-H ) :   0.9182 
B( 19-C , 35-H ) :   0.9505 

-------
TIMINGS
-------

Total SCF time: 0 days 1 hours 33 min 32 sec 

Total time                  ....    5612.242 sec
Sum of individual times     ....    5604.503 sec  ( 99.9%)

Fock matrix formation       ....    5590.533 sec  ( 99.6%)
Diagonalization             ....       1.287 sec  (  0.0%)
Density matrix formation    ....       0.182 sec  (  0.0%)
Population analysis         ....       0.493 sec  (  0.0%)
Initial guess               ....       5.301 sec  (  0.1%)
Orbital Transformation      ....       0.000 sec  (  0.0%)
Orbital Orthonormalization  ....       0.000 sec  (  0.0%)
DIIS solution               ....       3.350 sec  (  0.1%)
SOSCF solution              ....       1.913 sec  (  0.0%)

Maximum memory used throughout the entire SCF-calculation: 717.4 MB

------------------------------------------------------------------------------
                                ORCA  MP2 
------------------------------------------------------------------------------

Freezing NCore=48 chemical core electrons

-------------
RI-MP2 ENERGY
-------------
Dimension of the basis                    ...  828
Memory devoted to MP2                     ...  256 MB   
Data format for buffers                   ... DOUBLE
Compression type for matrix containers    ... UNCOMPRESSED
Overall scaling of the MP2 energy         ...   1.000e+00
Calculating two index integrals           ... done (    0.030 sec)
Cholesky decomposition of V**-1           ... done (    0.468 sec)

-----------------
RI-TRANSFORMATION (AUX index driven)
-----------------

Dimension of the orbital-basis         ... 828
Dimension of the aux-basis             ... 2141
Transformation of internal/external MOs...   24-  76 to   77- 827
Number Format for Storage              ... Double (8 Byte)
Integral mode                          ... Direct

First Phase: integral generation and transformation of MO indices
  Aux angular momentum 0               ... done (    3.326 sec)
  Aux angular momentum 1               ... done (    5.662 sec)
  Aux angular momentum 2               ... done (    7.786 sec)
  Aux angular momentum 3               ... done (    6.430 sec)
  Aux angular momentum 4               ... done (    2.326 sec)
Closing buffer VIA ( 0.63 GB; CompressionRatio= 1.00)
  Phase 1 completed in    25.941 sec
Second Phase: sorting and transformation of aux index

IA-Transformation
Memory available                       ... 158 MB 
Max. # MO pairs treated in a batch     ... 11    
# of internal orbitals                 ... 53
# batches for internal orbitals        ... 5
Closing buffer IAV ( 0.63 GB; CompressionRatio= 1.00)
(ia|v) transformation done in    23.874 sec

  Phase 2 completed in    23.884 sec
RI-Integral transformation completed in    49.877 sec
Opening buffers                              ... done

Starting loop over batches of integrals:

Operator 0  - window                       ... ( 24- 76)x( 77-827)
Operator 0  - Memory available             ...   256 MB
Operator 0  - Memory needed per MO         ...  12.3 MB
Operator 0  - Number of orbitals per batch ... 13
Operator 0  - Number of batches            ... 5

OPERATOR  0   PASS   0:  MOs    24 ...   36
  Reading integrals       ... ok
  Internal MO  26
  Internal MO  29
  Internal MO  32
  Internal MO  35
OPERATOR  0   PASS   1:  MOs    37 ...   49
  Reading integrals       ... ok
  Internal MO  38
  Internal MO  41
  Internal MO  44
  Internal MO  47
OPERATOR  0   PASS   2:  MOs    50 ...   62
  Reading integrals       ... ok
  Internal MO  50
  Internal MO  53
  Internal MO  56
  Internal MO  59
  Internal MO  62
OPERATOR  0   PASS   3:  MOs    63 ...   75
  Reading integrals       ... ok
  Internal MO  65
  Internal MO  68
  Internal MO  71
  Internal MO  74
OPERATOR  0   PASS   4:  MOs    76 ...   76
  Reading integrals       ... ok
Time spent in pair loops =    74.648 sec
Deleting buffer (Ka|jb)[aa] ...done

-----------------------------------------------
 RI-MP2 CORRELATION ENERGY:     -3.522820974 Eh
-----------------------------------------------


-------
TIMINGS
-------

Total time                :  125.125 sec
Integral trafo            :   49.896 sec ( 39.9%)
I/O of integrals          :    2.543 sec (  2.0%)
K(i,j) Operators          :   46.546 sec ( 37.2%)
T(i,j) pair energies      :    7.386 sec (  5.9%)
V-calculation             :    0.030 sec (  0.0%)
V**(-1/2)                 :    0.468 sec (  0.4%)
Gamma(ia|P)               :    0.000 sec (  0.0%)
Gamma-Trafo               :    0.000 sec (  0.0%)
D(virtual)                :    0.000 sec (  0.0%)
D(internal)               :    0.000 sec (  0.0%)
W(virtual)                :    0.000 sec (  0.0%)
W(internal)               :    0.000 sec (  0.0%)
L(virtual)                :    0.000 sec (  0.0%)
L(internal)               :    0.000 sec (  0.0%)
G(D)                      :    0.000 sec (  0.0%)
G(Z)                      :    0.000 sec (  0.0%)
Z-Vector Solution         :    0.000 sec (  0.0%)
3-Index Derivative        :    0.000 sec (  0.0%)
2-Index Derivative        :    0.000 sec (  0.0%)
Separable Gradient        :    0.000 sec (  0.0%)


---------------------------------------
MP2 TOTAL ENERGY:    -1274.450168916 Eh
---------------------------------------

Maximum memory used throughout the entire MP2-calculation: 302.7 MB

-------------------------   --------------------
FINAL SINGLE POINT ENERGY     -1274.450168915999
-------------------------   --------------------


                            ***************************************
                            *     ORCA property calculations      *
                            ***************************************


  WARNING: The energy has been calculated at the MP2 level but the densities
           used in the property calculations are still SCF densities
           MP2 response densities have not been calculated 
           use %mp2 Density relaxed end
           or  %mp2 Density unrelaxed end

                                    ---------------------
                                    Active property flags
                                    ---------------------
   (+) Dipole Moment


------------------------------------------------------------------------------
                       ORCA ELECTRIC PROPERTIES CALCULATION
------------------------------------------------------------------------------

Dipole Moment Calculation                       ... on
Quadrupole Moment Calculation                   ... off
Polarizability Calculation                      ... off
GBWName                                         ... qm_input.solv.gbw
Electron density file                           ... qm_input.solv.scfp
The origin for moment calculation is the CENTER OF MASS  = (-12.078373, 27.513384  7.322089)

-------------
DIPOLE MOMENT
-------------
                                X             Y             Z
Electronic contribution:    -10.79172       2.87647     -10.59555
Nuclear contribution   :     12.65683      -4.81612      12.41166
                        -----------------------------------------
Total Dipole Moment    :      1.86512      -1.93965       1.81610
                        -----------------------------------------
Magnitude (a.u.)       :      3.24641
Magnitude (Debye)      :      8.25171



--------------------
Rotational spectrum 
--------------------
 
Rotational constants in cm-1:     0.011151     0.008114     0.005601 
Rotational constants in MHz :   334.313254   243.247669   167.899404 

 Dipole components along the rotational axes: 
x,y,z [a.u.] :    -2.395406    -1.916586    -1.062019 
x,y,z [Debye]:    -6.088637    -4.871574    -2.699437 

 

Timings for individual modules:

Sum of individual times         ...     5963.101 sec (=  99.385 min)
GTO integral calculation        ...      224.323 sec (=   3.739 min)   3.8 %
SCF iterations                  ...     5612.440 sec (=  93.541 min)  94.1 %
MP2 module                      ...      126.337 sec (=   2.106 min)   2.1 %
                             ****ORCA TERMINATED NORMALLY****
TOTAL RUN TIME: 0 days 1 hours 39 minutes 24 seconds 719 msec
