
                                        *****************
                                        * O   R   C   A *
                                        *****************

                                            #,                                       
                                            ###                                      
                                            ####                                     
                                            #####                                    
                                            ######                                   
                                           ########,                                 
                                     ,,################,,,,,                         
                               ,,#################################,,                 
                          ,,##########################################,,             
                       ,#########################################, ''#####,          
                    ,#############################################,,   '####,        
                  ,##################################################,,,,####,       
                ,###########''''           ''''###############################       
              ,#####''   ,,,,##########,,,,          '''####'''          '####       
            ,##' ,,,,###########################,,,                        '##       
           ' ,,###''''                  '''############,,,                           
         ,,##''                                '''############,,,,        ,,,,,,###''
      ,#''                                            '''#######################'''  
     '                                                          ''''####''''         
             ,#######,   #######,   ,#######,      ##                                
            ,#'     '#,  ##    ##  ,#'     '#,    #''#        ######   ,####,        
            ##       ##  ##   ,#'  ##            #'  '#       #        #'  '#        
            ##       ##  #######   ##           ,######,      #####,   #    #        
            '#,     ,#'  ##    ##  '#,     ,#' ,#      #,         ##   #,  ,#        
             '#######'   ##     ##  '#######'  #'      '#     #####' # '####'        



                  #######################################################
                  #                        -***-                        #
                  #          Department of theory and spectroscopy      #
                  #    Directorship and core code : Frank Neese         #
                  #        Max Planck Institute fuer Kohlenforschung    #
                  #                Kaiser Wilhelm Platz 1               #
                  #                 D-45470 Muelheim/Ruhr               #
                  #                      Germany                        #
                  #                                                     #
                  #                  All rights reserved                #
                  #                        -***-                        #
                  #######################################################


                         Program Version 5.0.0 -  RELEASE  -
                                (SVN: $Rev: 19529$)
                ($Date: 2021-06-28 11:36:33 +0200 (Mo, 28 Jun 2021) $)


 With contributions from (in alphabetic order):
   Daniel Aravena         : Magnetic Suceptibility
   Michael Atanasov       : Ab Initio Ligand Field Theory (pilot matlab implementation)
   Alexander A. Auer      : GIAO ZORA, VPT2 properties, NMR spectrum
   Ute Becker             : Parallelization
   Giovanni Bistoni       : ED, misc. LED, open-shell LED, HFLD
   Martin Brehm           : Molecular dynamics
   Dmytro Bykov           : SCF Hessian
   Vijay G. Chilkuri      : MRCI spin determinant printing, contributions to CSF-ICE
   Dipayan Datta          : RHF DLPNO-CCSD density
   Achintya Kumar Dutta   : EOM-CC, STEOM-CC
   Dmitry Ganyushin       : Spin-Orbit,Spin-Spin,Magnetic field MRCI
   Miquel Garcia          : C-PCM Hessian, Gaussian charge scheme
   Yang Guo               : DLPNO-NEVPT2, F12-NEVPT2, CIM, IAO-localization
   Andreas Hansen         : Spin unrestricted coupled pair/coupled cluster methods
   Benjamin Helmich-Paris : MC-RPA, TRAH-SCF, COSX integrals
   Lee Huntington         : MR-EOM, pCC
   Robert Izsak           : Overlap fitted RIJCOSX, COSX-SCS-MP3, EOM
   Marcus Kettner         : VPT2
   Christian Kollmar      : KDIIS, OOCD, Brueckner-CCSD(T), CCSD density, CASPT2, CASPT2-K
   Simone Kossmann        : Meta GGA functionals, TD-DFT gradient, OOMP2, MP2 Hessian
   Martin Krupicka        : Initial AUTO-CI
   Lucas Lang             : DCDCAS
   Marvin Lechner         : AUTO-CI (C++ implementation), FIC-MRCC
   Dagmar Lenk            : GEPOL surface, SMD
   Dimitrios Liakos       : Extrapolation schemes; Compound Job, initial MDCI parallelization
   Dimitrios Manganas     : Further ROCIS development; embedding schemes
   Dimitrios Pantazis     : SARC Basis sets
   Anastasios Papadopoulos: AUTO-CI, single reference methods and gradients
   Taras Petrenko         : DFT Hessian,TD-DFT gradient, ASA, ECA, R-Raman, ABS, FL, XAS/XES, NRVS
   Peter Pinski           : DLPNO-MP2, DLPNO-MP2 Gradient
   Christoph Reimann      : Effective Core Potentials
   Marius Retegan         : Local ZFS, SOC
   Christoph Riplinger    : Optimizer, TS searches, QM/MM, DLPNO-CCSD(T), (RO)-DLPNO pert. Triples
   Tobias Risthaus        : Range-separated hybrids, TD-DFT gradient, RPA, STAB
   Michael Roemelt        : Original ROCIS implementation
   Masaaki Saitow         : Open-shell DLPNO-CCSD energy and density
   Barbara Sandhoefer     : DKH picture change effects
   Avijit Sen             : IP-ROCIS
   Kantharuban Sivalingam : CASSCF convergence, NEVPT2, FIC-MRCI
   Bernardo de Souza      : ESD, SOC TD-DFT
   Georgi Stoychev        : AutoAux, RI-MP2 NMR
   Willem Van den Heuvel  : Paramagnetic NMR
   Boris Wezisla          : Elementary symmetry handling
   Frank Wennmohs         : Technical directorship


 We gratefully acknowledge several colleagues who have allowed us to
 interface, adapt or use parts of their codes:
   Stefan Grimme, W. Hujo, H. Kruse, P. Pracht,  : VdW corrections, initial TS optimization,
                  C. Bannwarth, S. Ehlert          DFT functionals, gCP, sTDA/sTD-DF
   Ed Valeev, F. Pavosevic, A. Kumar             : LibInt (2-el integral package), F12 methods
   Garnet Chan, S. Sharma, J. Yang, R. Olivares  : DMRG
   Ulf Ekstrom                                   : XCFun DFT Library
   Mihaly Kallay                                 : mrcc  (arbitrary order and MRCC methods)
   Jiri Pittner, Ondrej Demel                    : Mk-CCSD
   Frank Weinhold                                : gennbo (NPA and NBO analysis)
   Christopher J. Cramer and Donald G. Truhlar   : smd solvation model
   Lars Goerigk                                  : TD-DFT with DH, B97 family of functionals
   V. Asgeirsson, H. Jonsson                     : NEB implementation
   FAccTs GmbH                                   : IRC, NEB, NEB-TS, DLPNO-Multilevel, CI-OPT
                                                   MM, QMMM, 2- and 3-layer-ONIOM, Crystal-QMMM,
                                                   LR-CPCM, SF, NACMEs, symmetry and pop. for TD-DFT,
                                                   nearIR, NL-DFT gradient (VV10), updates on ESD,
                                                   ML-optimized integration grids
   S Lehtola, MJT Oliveira, MAL Marques          : LibXC Library
   Liviu Ungur et al                             : ANISO software


 Your calculation uses the libint2 library for the computation of 2-el integrals
 For citations please refer to: http://libint.valeyev.net

 Your ORCA version has been built with support for libXC version: 5.1.0
 For citations please refer to: https://tddft.org/programs/libxc/

 This ORCA versions uses:
   CBLAS   interface :  Fast vector & matrix operations
   LAPACKE interface :  Fast linear algebra routines
   SCALAPACK package :  Parallel linear algebra routines
   Shared memory     :  Shared parallel matrices
   BLAS/LAPACK       :  OpenBLAS 0.3.15  USE64BITINT DYNAMIC_ARCH NO_AFFINITY SkylakeX SINGLE_THREADED
        Core in use  :  SkylakeX
   Copyright (c) 2011-2014, The OpenBLAS Project


================================================================================

----- Orbital basis set information -----
Your calculation utilizes the basis: cc-pVTZ 
       H, B-Ne : Obtained from the ccRepo (grant-hill.group.shef.ac.uk/ccrepo) Feb. 2017
                 T. H. Dunning, Jr., J. Chem. Phys. 90, 1007 (1989)
            He : Obtained from the ccRepo (grant-hill.group.shef.ac.uk/ccrepo) Feb. 2017
                 D. E. Woon, T. H. Dunning, Jr., J. Chem. Phys. 100, 2975 (1994)
  Li-Be, Na-Mg : Obtained from the ccRepo (grant-hill.group.shef.ac.uk/ccrepo) Feb. 2017
                 B. P. Prascher, D. E. Woon, K. A. Peterson, T. H. Dunning, Jr., A. K. Wilson, Theor. Chem. Acc. 128, 69 (2011)
         Al-Ar : Obtained from the ccRepo (grant-hill.group.shef.ac.uk/ccrepo) Feb. 2017
                 D. E. Woon, T. H. Dunning, Jr., J. Chem. Phys. 98, 1358 (1993)
            Ca : Obtained from the Peterson Research Group Website (tyr0.chem.wsu.edu/~kipeters) Feb. 2017
                 J. Koput, K. A. Peterson, J. Phys. Chem. 106, 9595 (2002)
         Sc-Zn : Obtained from the ccRepo (grant-hill.group.shef.ac.uk/ccrepo) Feb. 2017
                 N. B. Balabanov, K. A. Peterson, J. Chem. Phys. 123, 064107 (2005)
                 N. B. Balabanov, K. A. Peterson, J. Chem. Phys. 125, 074110 (2006)
         Ga-Kr : Obtained from the ccRepo (grant-hill.group.shef.ac.uk/ccrepo) Feb. 2017
                 A. K. Wilson, D. E. Woon, K. A. Peterson, T. H. Dunning, Jr., J. Chem. Phys. 110, 7667 (1999)
             Y : Obtained from the ccRepo (grant-hill.group.shef.ac.uk/ccrepo) Feb. 2017
                 K. A. Peterson, D. Figgen, M. Dolg, H. Stoll, J. Chem. Phys. 126, 124101 (2007)
        Ag, Au : Obtained from the Peterson Research Group Website (tyr0.chem.wsu.edu/~kipeters) Feb. 2017
                 K. A. Peterson, C. Puzzarini, Theor. Chem. Acc. 114, 283 (2005)

----- AuxC basis set information -----
Your calculation utilizes the auxiliary basis: cc-pVTZ/C 
  Obtained from the EMSL Basis Set Exchange (bse.pnl.gov) Feb. 2017
  H-He, B-F, Al-Ar, Ga-Kr : F. Weigend, A. Kohn, C. Hattig, J. Chem. Phys. 116, 3175 (2002)
             Li-Be, Na-Mg : C. Haettig, Phys. Chem. Chem. Phys. 7, 59 (2005)
                       Ne : C. Haettig, Phys. Chem. Chem. Phys. 7, 59 (2005)
                            F. Weigend, A. Kohn, C. Hattig, J. Chem. Phys. 116, 3175 (2002)
                    Sc-Zn : J. G. Hill, J. A. Platts, J. Chem. Phys. 128, 044104 (2008)

================================================================================
                                        WARNINGS
                       Please study these warnings very carefully!
================================================================================


WARNING: No MP2 level density has been requested!
         To caclulate MP2 level properties use
         %mp2 Density relaxed end
         or
         %mp2 Density unrelaxed end

WARNING: Post HF methods need fully converged wavefunctions
  ===> : Setting SCFConvForced true
         You can overwrite this default with %scf ConvForced false 


INFO   : the flag for use of the SHARK integral package has been found!

================================================================================
                                       INPUT FILE
================================================================================
NAME = qm_input.vacu
|  1> ! RI-MP2 cc-pVTZ cc-pVTZ/c TightSCF KeepDens NoKeepInts
|  2> 
|  3> *xyz  0  1
|  4>     C    -2.4835253   14.6293394    7.7937730
|  5>     C    -3.9202917   14.2744813    7.7458046
|  6>     O    -4.3287013   14.6592660    6.4162481
|  7>     C    -5.6443702   14.6229965    5.9532897
|  8>     O    -6.6098783   14.3410118    6.6272874
|  9>     C    -5.9128025   15.1795610    4.5988326
| 10>     C    -4.9898069   15.4278253    3.6559957
| 11>     C    -3.4474000   15.3644639    3.7902007
| 12>     N    -5.3188559   15.9994903    2.3818605
| 13>     C    -6.4774183   16.5754677    2.1885827
| 14>     S    -6.8430223   17.4617927    0.7800522
| 15>     N    -7.3982058   16.4668016    3.1858512
| 16>     C    -7.3517385   15.3277999    4.1217201
| 17>     C    -7.9438125   14.0729659    3.4712109
| 18>     C    -9.2817477   13.9552726    3.0774197
| 19>     C    -9.7984437   12.7357767    2.6733922
| 20>     C    -9.0631370   11.5711069    2.6046089
| 21>     C    -7.7190910   11.6038873    3.0182146
| 22>     O    -6.9509992   10.4806872    2.9623862
| 23>     C    -7.1622442   12.8512732    3.4226503
| 24>     H    -2.5055934   15.7230410    7.8744707
| 25>     H    -1.8899395   14.5319486    6.8765153
| 26>     H    -1.9358030   14.2767680    8.6763167
| 27>     H    -4.0926566   13.2056300    7.9219772
| 28>     H    -4.5439523   14.7869289    8.4885293
| 29>     H    -2.8676481   15.5945638    2.8879084
| 30>     H    -3.3076890   14.3167324    4.0833474
| 31>     H    -3.0617311   15.8813385    4.6774946
| 32>     H    -4.5893270   16.1432860    1.6940546
| 33>     H    -8.2606399   16.9842749    3.0658678
| 34>     H    -7.9488376   15.6248981    4.9925789
| 35>     H    -9.8658854   14.8684334    3.1431567
| 36>     H   -10.7800369   12.7086797    2.2095631
| 37>     H    -9.4858374   10.6448614    2.2267339
| 38>     H    -7.5488628    9.8578234    2.5136891
| 39>     H    -6.1248472   12.8046728    3.7405107
| 40> *
| 41> 
| 42>                          ****END OF INPUT****
================================================================================

                       ****************************
                       * Single Point Calculation *
                       ****************************

---------------------------------
CARTESIAN COORDINATES (ANGSTROEM)
---------------------------------
  C     -2.483525   14.629339    7.793773
  C     -3.920292   14.274481    7.745805
  O     -4.328701   14.659266    6.416248
  C     -5.644370   14.622996    5.953290
  O     -6.609878   14.341012    6.627287
  C     -5.912802   15.179561    4.598833
  C     -4.989807   15.427825    3.655996
  C     -3.447400   15.364464    3.790201
  N     -5.318856   15.999490    2.381861
  C     -6.477418   16.575468    2.188583
  S     -6.843022   17.461793    0.780052
  N     -7.398206   16.466802    3.185851
  C     -7.351738   15.327800    4.121720
  C     -7.943812   14.072966    3.471211
  C     -9.281748   13.955273    3.077420
  C     -9.798444   12.735777    2.673392
  C     -9.063137   11.571107    2.604609
  C     -7.719091   11.603887    3.018215
  O     -6.950999   10.480687    2.962386
  C     -7.162244   12.851273    3.422650
  H     -2.505593   15.723041    7.874471
  H     -1.889939   14.531949    6.876515
  H     -1.935803   14.276768    8.676317
  H     -4.092657   13.205630    7.921977
  H     -4.543952   14.786929    8.488529
  H     -2.867648   15.594564    2.887908
  H     -3.307689   14.316732    4.083347
  H     -3.061731   15.881338    4.677495
  H     -4.589327   16.143286    1.694055
  H     -8.260640   16.984275    3.065868
  H     -7.948838   15.624898    4.992579
  H     -9.865885   14.868433    3.143157
  H    -10.780037   12.708680    2.209563
  H     -9.485837   10.644861    2.226734
  H     -7.548863    9.857823    2.513689
  H     -6.124847   12.804673    3.740511

----------------------------
CARTESIAN COORDINATES (A.U.)
----------------------------
  NO LB      ZA    FRAG     MASS         X           Y           Z
   0 C     6.0000    0    12.011   -4.693183   27.645445   14.728097
   1 C     6.0000    0    12.011   -7.408278   26.974860   14.637449
   2 O     8.0000    0    15.999   -8.180060   27.701998   12.124952
   3 C     6.0000    0    12.011  -10.666314   27.633459   11.250087
   4 O     8.0000    0    15.999  -12.490860   27.100585   12.523758
   5 C     6.0000    0    12.011  -11.173577   28.685213    8.690534
   6 C     6.0000    0    12.011   -9.429369   29.154365    6.908831
   7 C     6.0000    0    12.011   -6.514642   29.034629    7.162441
   8 N     7.0000    0    14.007  -10.051181   30.234655    4.501064
   9 C     6.0000    0    12.011  -12.240547   31.323094    4.135822
  10 S    16.0000    0    32.060  -12.931438   32.998006    1.474085
  11 N     7.0000    0    14.007  -13.980583   31.117745    6.020386
  12 C     6.0000    0    12.011  -13.892772   28.965344    7.788922
  13 C     6.0000    0    12.011  -15.011630   26.594051    6.559638
  14 C     6.0000    0    12.011  -17.539961   26.371643    5.815480
  15 C     6.0000    0    12.011  -18.516375   24.067130    5.051979
  16 C     6.0000    0    12.011  -17.126847   21.866223    4.921998
  17 C     6.0000    0    12.011  -14.586968   21.928169    5.703599
  18 O     8.0000    0    15.999  -13.135485   19.805629    5.598099
  19 C     6.0000    0    12.011  -13.534680   24.285387    6.467872
  20 H     1.0000    0     1.008   -4.734885   29.712241   14.880593
  21 H     1.0000    0     1.008   -3.571468   27.461403   12.994731
  22 H     1.0000    0     1.008   -3.658138   26.979182   16.395862
  23 H     1.0000    0     1.008   -7.734000   24.955024   14.970367
  24 H     1.0000    0     1.008   -8.586825   27.943246   16.040996
  25 H     1.0000    0     1.008   -5.419070   29.469455    5.457356
  26 H     1.0000    0     1.008   -6.250626   27.054703    7.716408
  27 H     1.0000    0     1.008   -5.785833   30.011380    8.839184
  28 H     1.0000    0     1.008   -8.672571   30.506389    3.201299
  29 H     1.0000    0     1.008  -15.610347   32.095628    5.793651
  30 H     1.0000    0     1.008  -15.021126   29.526778    9.434607
  31 H     1.0000    0     1.008  -18.643821   28.097267    5.939705
  32 H     1.0000    0     1.008  -20.371317   24.015924    4.175469
  33 H     1.0000    0     1.008  -17.925635   20.115873    4.207917
  34 H     1.0000    0     1.008  -14.265283   18.628587    4.750184
  35 H     1.0000    0     1.008  -11.574284   24.197325    7.068541

--------------------------------
INTERNAL COORDINATES (ANGSTROEM)
--------------------------------
 C      0   0   0     0.000000000000     0.00000000     0.00000000
 C      1   0   0     1.480717031273     0.00000000     0.00000000
 O      2   1   0     1.443114047267   103.91912025     0.00000000
 C      3   2   1     1.395217048057   124.44720175   186.09569270
 O      4   3   2     1.210782458497   124.98088860     4.51971723
 C      4   3   2     1.488749132018   117.52886113   174.15196729
 C      6   4   3     1.342571212367   125.73853447    16.53241144
 C      7   6   4     1.549530475403   128.02015340   352.06613933
 N      7   6   4     1.434745491195   122.66035249   181.69279941
 C      9   7   6     1.308194598665   120.64678088    15.25773206
 S     10   9   7     1.703876891055   122.76474540   171.09476244
 N     10   9   7     1.361691008466   117.09865117   352.48491012
 C     12  10   9     1.474901583347   120.33383217   334.19293585
 C     13  12  10     1.532423638658   110.53857154   281.52396686
 C     14  13  12     1.399640604391   123.89136443   295.88351697
 C     15  14  13     1.384696077589   120.85357923   189.31697246
 C     16  15  14     1.379080428567   124.01199942   358.98799599
 C     17  16  15     1.406628550760   118.36700020     2.60848136
 O     18  17  16     1.361859129321   120.50642688   180.33109483
 C     18  17  16     1.424646685190   118.51277868   356.81215192
 H      1   2   3     1.096896672283   102.81575338    74.23591276
 H      1   2   3     1.096900523336   118.47125983   326.10907885
 H      1   2   3     1.096900037572   115.69302875   188.96026903
 H      2   1   3     1.096899970487   112.38298374   120.45546385
 H      2   1   3     1.096902487338   114.69535925   240.15549118
 H      8   7   6     1.096900006460   116.50558420   179.29346108
 H      8   7   6     1.096902660829   100.89368970    59.45553861
 H      8   7   6     1.096900322513   113.62657417   312.33355737
 H      9   7   6     1.012900081621   119.63115640   181.72365452
 H     12  10   9     1.012900394576   116.63048318   174.64636875
 H     13  12  10     1.096900052512   106.10824384   161.81795141
 H     15  14  13     1.086002234062   115.24120146     7.62762538
 H     16  15  14     1.086000410544   118.93826400   190.74216159
 H     17  16  15     1.085999940173   122.01340173   183.72503778
 H     19  18  17     0.973000146508   101.55544023     6.10776169
 H     20  18  17     1.086001550081   114.76465866   179.33226922

---------------------------
INTERNAL COORDINATES (A.U.)
---------------------------
 C      0   0   0     0.000000000000     0.00000000     0.00000000
 C      1   0   0     2.798149670940     0.00000000     0.00000000
 O      2   1   0     2.727090329349   103.91912025     0.00000000
 C      3   2   1     2.636578118205   124.44720175   186.09569270
 O      4   3   2     2.288047254316   124.98088860     4.51971723
 C      4   3   2     2.813328141627   117.52886113   174.15196729
 C      6   4   3     2.537091906659   125.73853447    16.53241144
 C      7   6   4     2.928188234676   128.02015340   352.06613933
 N      7   6   4     2.711276050237   122.66035249   181.69279941
 C      9   7   6     2.472129521353   120.64678088    15.25773206
 S     10   9   7     3.219860690011   122.76474540   171.09476244
 N     10   9   7     2.573223085024   117.09865117   352.48491012
 C     12  10   9     2.787160067013   120.33383217   334.19293585
 C     13  12  10     2.895860998210   110.53857154   281.52396686
 C     14  13  12     2.644937428216   123.89136443   295.88351697
 C     15  14  13     2.616696365357   120.85357923   189.31697246
 C     16  15  14     2.606084326642   124.01199942   358.98799599
 C     17  16  15     2.658142733091   118.36700020     2.60848136
 O     18  17  16     2.573540787396   120.50642688   180.33109483
 C     18  17  16     2.692192072608   118.51277868   356.81215192
 H      1   2   3     2.072834307824   102.81575338    74.23591276
 H      1   2   3     2.072841585261   118.47125983   326.10907885
 H      1   2   3     2.072840667299   115.69302875   188.96026903
 H      2   1   3     2.072840540527   112.38298374   120.45546385
 H      2   1   3     2.072845296686   114.69535925   240.15549118
 H      8   7   6     2.072840608507   116.50558420   179.29346108
 H      8   7   6     2.072845624537   100.89368970    59.45553861
 H      8   7   6     2.072841205760   113.62657417   312.33355737
 H      9   7   6     1.914103755291   119.63115640   181.72365452
 H     12  10   9     1.914104346689   116.63048318   174.64636875
 H     13  12  10     2.072840695532   106.10824384   161.81795141
 H     15  14  13     2.052246803203   115.24120146     7.62762538
 H     16  15  14     2.052243357254   118.93826400   190.74216159
 H     17  16  15     2.052242468382   122.01340173   183.72503778
 H     19  18  17     1.838703805165   101.55544023     6.10776169
 H     20  18  17     2.052245510666   114.76465866   179.33226922

---------------------
BASIS SET INFORMATION
---------------------
There are 5 groups of distinct atoms

 Group   1 Type C   : 18s5p2d1f contracted to 4s3p2d1f pattern {8811/311/11/1}
 Group   2 Type O   : 18s5p2d1f contracted to 4s3p2d1f pattern {8811/311/11/1}
 Group   3 Type N   : 18s5p2d1f contracted to 4s3p2d1f pattern {8811/311/11/1}
 Group   4 Type S   : 41s16p2d1f contracted to 5s4p2d1f pattern {13131311/7711/11/1}
 Group   5 Type H   : 5s2p1d contracted to 3s2p1d pattern {311/11/1}

Atom   0C    basis set group =>   1
Atom   1C    basis set group =>   1
Atom   2O    basis set group =>   2
Atom   3C    basis set group =>   1
Atom   4O    basis set group =>   2
Atom   5C    basis set group =>   1
Atom   6C    basis set group =>   1
Atom   7C    basis set group =>   1
Atom   8N    basis set group =>   3
Atom   9C    basis set group =>   1
Atom  10S    basis set group =>   4
Atom  11N    basis set group =>   3
Atom  12C    basis set group =>   1
Atom  13C    basis set group =>   1
Atom  14C    basis set group =>   1
Atom  15C    basis set group =>   1
Atom  16C    basis set group =>   1
Atom  17C    basis set group =>   1
Atom  18O    basis set group =>   2
Atom  19C    basis set group =>   1
Atom  20H    basis set group =>   5
Atom  21H    basis set group =>   5
Atom  22H    basis set group =>   5
Atom  23H    basis set group =>   5
Atom  24H    basis set group =>   5
Atom  25H    basis set group =>   5
Atom  26H    basis set group =>   5
Atom  27H    basis set group =>   5
Atom  28H    basis set group =>   5
Atom  29H    basis set group =>   5
Atom  30H    basis set group =>   5
Atom  31H    basis set group =>   5
Atom  32H    basis set group =>   5
Atom  33H    basis set group =>   5
Atom  34H    basis set group =>   5
Atom  35H    basis set group =>   5
---------------------------------
AUXILIARY/C BASIS SET INFORMATION
---------------------------------
There are 5 groups of distinct atoms

 Group   1 Type C   : 8s6p5d3f1g contracted to 8s6p5d3f1g pattern {11111111/111111/11111/111/1}
 Group   2 Type O   : 8s6p5d3f1g contracted to 8s6p5d3f1g pattern {11111111/111111/11111/111/1}
 Group   3 Type N   : 8s6p5d3f1g contracted to 8s6p5d3f1g pattern {11111111/111111/11111/111/1}
 Group   4 Type S   : 10s8p7d5f2g contracted to 10s8p7d5f2g pattern {1111111111/11111111/1111111/11111/11}
 Group   5 Type H   : 4s3p2d1f contracted to 4s3p2d1f pattern {1111/111/11/1}

Atom   0C    basis set group =>   1
Atom   1C    basis set group =>   1
Atom   2O    basis set group =>   2
Atom   3C    basis set group =>   1
Atom   4O    basis set group =>   2
Atom   5C    basis set group =>   1
Atom   6C    basis set group =>   1
Atom   7C    basis set group =>   1
Atom   8N    basis set group =>   3
Atom   9C    basis set group =>   1
Atom  10S    basis set group =>   4
Atom  11N    basis set group =>   3
Atom  12C    basis set group =>   1
Atom  13C    basis set group =>   1
Atom  14C    basis set group =>   1
Atom  15C    basis set group =>   1
Atom  16C    basis set group =>   1
Atom  17C    basis set group =>   1
Atom  18O    basis set group =>   2
Atom  19C    basis set group =>   1
Atom  20H    basis set group =>   5
Atom  21H    basis set group =>   5
Atom  22H    basis set group =>   5
Atom  23H    basis set group =>   5
Atom  24H    basis set group =>   5
Atom  25H    basis set group =>   5
Atom  26H    basis set group =>   5
Atom  27H    basis set group =>   5
Atom  28H    basis set group =>   5
Atom  29H    basis set group =>   5
Atom  30H    basis set group =>   5
Atom  31H    basis set group =>   5
Atom  32H    basis set group =>   5
Atom  33H    basis set group =>   5
Atom  34H    basis set group =>   5
Atom  35H    basis set group =>   5
------------------------------------------------------------------------------
                           ORCA GTO INTEGRAL CALCULATION
------------------------------------------------------------------------------
------------------------------------------------------------------------------
                   ___                                                        
                  /   \      - P O W E R E D   B Y -                         
                 /     \                                                     
                 |  |  |   _    _      __       _____    __    __             
                 |  |  |  | |  | |    /  \     |  _  \  |  |  /  |          
                  \  \/   | |  | |   /    \    | | | |  |  | /  /          
                 / \  \   | |__| |  /  /\  \   | |_| |  |  |/  /          
                |  |  |   |  __  | /  /__\  \  |    /   |      \           
                |  |  |   | |  | | |   __   |  |    \   |  |\   \          
                \     /   | |  | | |  |  |  |  | |\  \  |  | \   \       
                 \___/    |_|  |_| |__|  |__|  |_| \__\ |__|  \__/        
                                                                              
                      - O R C A' S   B I G   F R I E N D -                    
                                      &                                       
                       - I N T E G R A L  F E E D E R -                       
                                                                              
 v1 FN, 2020, v2 2021                                                         
------------------------------------------------------------------------------


Reading SHARK input file qm_input.vacu.SHARKINP.tmp ... ok
----------------------
SHARK INTEGRAL PACKAGE
----------------------

Number of atoms                             ...     36
Number of basis functions                   ...    828
Number of shells                            ...    298
Maximum angular momentum                    ...      3
Integral batch strategy                     ... SHARK/LIBINT Hybrid
RI-J (if used) integral strategy            ... SPLIT-RIJ (Revised 2003 algorithm where possible)
Printlevel                                  ...      1
Contraction scheme used                     ... SEGMENTED contraction
Coulomb Range Separation                    ... NOT USED
Exchange Range Separation                   ... NOT USED
Finite Nucleus Model                        ... NOT USED
Auxiliary Coulomb fitting basis             ... NOT available
Auxiliary J/K fitting basis                 ... NOT available
Auxiliary Correlation fitting basis         ... AVAILABLE
   # of basis functions in Aux-C            ...   2141
   # of shells in Aux-C                     ...    629
   Maximum angular momentum in Aux-C        ...      4
Auxiliary 'external' fitting basis          ... NOT available
Integral threshold                          ...     2.500000e-11
Primitive cut-off                           ...     2.500000e-12
Primitive pair pre-selection threshold      ...     2.500000e-12

Calculating pre-screening integrals         ... done (  0.6 sec) Dimension = 298
Organizing shell pair data                  ... done (  0.4 sec)
Shell pair information
Total number of shell pairs                 ...     44551
Shell pairs after pre-screening             ...     31797
Total number of primitive shell pairs       ...    234348
Primitive shell pairs kept                  ...     92395
          la=0 lb=0:   6353 shell pairs
          la=1 lb=0:   8864 shell pairs
          la=1 lb=1:   3133 shell pairs
          la=2 lb=0:   5050 shell pairs
          la=2 lb=1:   3474 shell pairs
          la=2 lb=2:    980 shell pairs
          la=3 lb=0:   1846 shell pairs
          la=3 lb=1:   1260 shell pairs
          la=3 lb=2:    698 shell pairs
          la=3 lb=3:    139 shell pairs

Calculating one electron integrals          ... done (  0.4 sec)
Calculating RI/C V-Matrix + Cholesky decomp.... done (  0.4 sec)
Calculating Nuclear repulsion               ... done (  0.0 sec) ENN=   1679.177817168081 Eh

SHARK setup successfully completed in   2.0 seconds

Maximum memory used throughout the entire GTOINT-calculation: 475.1 MB
-------------------------------------------------------------------------------
                                 ORCA SCF
-------------------------------------------------------------------------------

------------
SCF SETTINGS
------------
Hamiltonian:
 Ab initio Hamiltonian  Method          .... Hartree-Fock(GTOs)


General Settings:
 Integral files         IntName         .... qm_input.vacu
 Hartree-Fock type      HFTyp           .... RHF
 Total Charge           Charge          ....    0
 Multiplicity           Mult            ....    1
 Number of Electrons    NEL             ....  154
 Basis Dimension        Dim             ....  828
 Nuclear Repulsion      ENuc            ....   1679.1778171681 Eh

Convergence Acceleration:
 DIIS                   CNVDIIS         .... on
   Start iteration      DIISMaxIt       ....    12
   Startup error        DIISStart       ....  0.200000
   # of expansion vecs  DIISMaxEq       ....     5
   Bias factor          DIISBfac        ....   1.050
   Max. coefficient     DIISMaxC        ....  10.000
 Trust-Rad. Augm. Hess. CNVTRAH         .... auto
   Auto Start mean grad. ratio tolernc. ....  1.125000
   Auto Start start iteration           ....    20
   Auto Start num. interpolation iter.  ....    10
   Max. Number of Micro iterations      ....    16
   Max. Number of Macro iterations      .... Maxiter - #DIIS iter
   Number of Davidson start vectors     ....     2
   Converg. threshold I  (grad. norm)   ....   1.000e-05
   Converg. threshold II (energy diff.) ....   1.000e-08
   Grad. Scal. Fac. for Micro threshold ....   0.100
   Minimum threshold for Micro iter.    ....   0.010
   NR start threshold (gradient norm)   ....   0.001
   Initial trust radius                 ....   0.400
   Minimum AH scaling param. (alpha)    ....   1.000
   Maximum AH scaling param. (alpha)    .... 1000.000
   Orbital update algorithm             .... Taylor
   White noise on init. David. guess    .... on
   Maximum white noise                  ....   0.010
   Quad. conv. algorithm                .... NR
 SOSCF                  CNVSOSCF        .... on
   Start iteration      SOSCFMaxIt      ....   150
   Startup grad/error   SOSCFStart      ....  0.003300
 Level Shifting         CNVShift        .... on
   Level shift para.    LevelShift      ....    0.2500
   Turn off err/grad.   ShiftErr        ....    0.0010
 Zerner damping         CNVZerner       .... off
 Static damping         CNVDamp         .... on
   Fraction old density DampFac         ....    0.7000
   Max. Damping (<1)    DampMax         ....    0.9800
   Min. Damping (>=0)   DampMin         ....    0.0000
   Turn off err/grad.   DampErr         ....    0.1000
 Fernandez-Rico         CNVRico         .... off

SCF Procedure:
 Maximum # iterations   MaxIter         ....   125
 SCF integral mode      SCFMode         .... Direct
   Integral package                     .... SHARK and LIBINT hybrid scheme
 Reset frequency        DirectResetFreq ....    20
 Integral Threshold     Thresh          ....  2.500e-11 Eh
 Primitive CutOff       TCut            ....  2.500e-12 Eh

Convergence Tolerance:
 Convergence Check Mode ConvCheckMode   .... Total+1el-Energy
 Convergence forced     ConvForced      .... 1
 Energy Change          TolE            ....  1.000e-08 Eh
 1-El. energy change                    ....  1.000e-05 Eh
 Orbital Gradient       TolG            ....  1.000e-05
 Orbital Rotation angle TolX            ....  1.000e-05
 DIIS Error             TolErr          ....  5.000e-07


Diagonalization of the overlap matrix:
Smallest eigenvalue                        ... 3.961e-05
Time for diagonalization                   ...    0.146 sec
Threshold for overlap eigenvalues          ... 1.000e-08
Number of eigenvalues below threshold      ... 0
Time for construction of square roots      ...    0.064 sec
Total time needed                          ...    0.212 sec

Time for model grid setup =    1.489 sec

------------------------------
INITIAL GUESS: MODEL POTENTIAL
------------------------------
Loading Hartree-Fock densities                     ... done
Calculating cut-offs                               ... done
Initializing the effective Hamiltonian             ... done
Setting up the integral package (SHARK)            ... done
Starting the Coulomb interaction                   ... done (   4.3 sec)
Reading the grid                                   ... done
Mapping shells                                     ... done
Starting the XC term evaluation                    ... done (   1.5 sec)
Transforming the Hamiltonian                       ... done (   0.1 sec)
Diagonalizing the Hamiltonian                      ... done (   0.1 sec)
Back transforming the eigenvectors                 ... done (   0.0 sec)
Now organizing SCF variables                       ... done
                      ------------------
                      INITIAL GUESS DONE (   7.8 sec)
                      ------------------
--------------
SCF ITERATIONS
--------------
ITER       Energy         Delta-E        Max-DP      RMS-DP      [F,P]     Damp
               ***  Starting incremental Fock matrix formation  ***
  0  -1269.9637245235   0.000000000000 0.04895015  0.00045138  0.3229628 0.7000
  1  -1270.2359930473  -0.272268523752 0.03591761  0.00037450  0.1921064 0.7000
                               ***Turning on DIIS***
  2  -1270.4051061625  -0.169113115211 0.02578700  0.00024818  0.1097592 0.7000
  3  -1272.5013849429  -2.096278780457 0.06325979  0.00050755  0.0829872 0.0000
  4  -1270.7180412885   1.783343654395 0.01355177  0.00011115  0.0075621 0.0000
  5  -1270.7803073239  -0.062266035355 0.00478250  0.00005308  0.0047302 0.0000
  6  -1270.7569400385   0.023367285379 0.00181025  0.00002627  0.0036993 0.0000
                      *** Initiating the SOSCF procedure ***
                           *** Shutting down DIIS ***
                      *** Re-Reading the Fockian *** 
                      *** Removing any level shift *** 
ITER      Energy       Delta-E        Grad      Rot      Max-DP    RMS-DP
  7  -1270.77046217  -0.0135221331  0.001224  0.001224  0.001312  0.000014
               *** Restarting incremental Fock matrix formation ***
  8  -1270.77194438  -0.0014822106  0.000659  0.001708  0.000682  0.000008
  9  -1270.77195945  -0.0000150722  0.000292  0.001906  0.000886  0.000010
 10  -1270.77196561  -0.0000061547  0.000099  0.000157  0.000183  0.000002
 11  -1270.77196619  -0.0000005851  0.000035  0.000064  0.000067  0.000001
 12  -1270.77196631  -0.0000001119  0.000010  0.000038  0.000036  0.000000
 13  -1270.77196632  -0.0000000159  0.000007  0.000030  0.000014  0.000000
                 **** Energy Check signals convergence ****
              ***Rediagonalizing the Fockian in SOSCF/NRSCF***

               *****************************************************
               *                     SUCCESS                       *
               *           SCF CONVERGED AFTER  14 CYCLES          *
               *****************************************************


----------------
TOTAL SCF ENERGY
----------------

Total Energy       :        -1270.77196633 Eh          -34579.46319 eV

Components:
Nuclear Repulsion  :         1679.17781717 Eh           45692.75138 eV
Electronic Energy  :        -2949.94978349 Eh          -80272.21457 eV
One Electron Energy:        -5079.35411726 Eh         -138216.25231 eV
Two Electron Energy:         2129.40433376 Eh           57944.03774 eV

Virial components:
Potential Energy   :        -2539.80424124 Eh          -69111.58697 eV
Kinetic Energy     :         1269.03227491 Eh           34532.12378 eV
Virial Ratio       :            2.00137088


---------------
SCF CONVERGENCE
---------------

  Last Energy change         ...   -4.7326e-09  Tolerance :   1.0000e-08
  Last MAX-Density change    ...    2.2973e-06  Tolerance :   1.0000e-07
  Last RMS-Density change    ...    3.2321e-08  Tolerance :   5.0000e-09
  Last Orbital Gradient      ...    1.5184e-06  Tolerance :   1.0000e-05
  Last Orbital Rotation      ...    5.1135e-06  Tolerance :   1.0000e-05

             **** THE GBW FILE WAS UPDATED (qm_input.vacu.gbw) ****
             **** DENSITY qm_input.vacu.scfp WAS UPDATED ****
             **** ENERGY FILE WAS UPDATED (qm_input.vacu.en.tmp) ****
             **** THE GBW FILE WAS UPDATED (qm_input.vacu.gbw) ****
             **** DENSITY qm_input.vacu.scfp WAS UPDATED ****
----------------
ORBITAL ENERGIES
----------------

  NO   OCC          E(Eh)            E(eV) 
   0   2.0000     -91.878818     -2500.1498 
   1   2.0000     -20.609655      -560.8172 
   2   2.0000     -20.599071      -560.5292 
   3   2.0000     -20.553915      -559.3005 
   4   2.0000     -15.634525      -425.4371 
   5   2.0000     -15.602012      -424.5523 
   6   2.0000     -11.403508      -310.3052 
   7   2.0000     -11.373087      -309.4774 
   8   2.0000     -11.338827      -308.5452 
   9   2.0000     -11.312954      -307.8411 
  10   2.0000     -11.308199      -307.7117 
  11   2.0000     -11.305191      -307.6299 
  12   2.0000     -11.263973      -306.5083 
  13   2.0000     -11.263541      -306.4965 
  14   2.0000     -11.260896      -306.4246 
  15   2.0000     -11.245687      -306.0107 
  16   2.0000     -11.241474      -305.8961 
  17   2.0000     -11.239271      -305.8361 
  18   2.0000     -11.235375      -305.7301 
  19   2.0000     -11.234313      -305.7012 
  20   2.0000      -8.882475      -241.7044 
  21   2.0000      -6.563928      -178.6136 
  22   2.0000      -6.562015      -178.5615 
  23   2.0000      -6.561511      -178.5478 
  24   2.0000      -1.451240       -39.4903 
  25   2.0000      -1.416354       -38.5409 
  26   2.0000      -1.369625       -37.2694 
  27   2.0000      -1.355203       -36.8769 
  28   2.0000      -1.236563       -33.6486 
  29   2.0000      -1.153674       -31.3931 
  30   2.0000      -1.127980       -30.6939 
  31   2.0000      -1.059138       -28.8206 
  32   2.0000      -1.040248       -28.3066 
  33   2.0000      -1.007315       -27.4104 
  34   2.0000      -1.000272       -27.2188 
  35   2.0000      -0.970569       -26.4105 
  36   2.0000      -0.919935       -25.0327 
  37   2.0000      -0.892339       -24.2818 
  38   2.0000      -0.851371       -23.1670 
  39   2.0000      -0.843638       -22.9566 
  40   2.0000      -0.828972       -22.5575 
  41   2.0000      -0.820327       -22.3222 
  42   2.0000      -0.768445       -20.9105 
  43   2.0000      -0.737158       -20.0591 
  44   2.0000      -0.726865       -19.7790 
  45   2.0000      -0.698110       -18.9965 
  46   2.0000      -0.693800       -18.8793 
  47   2.0000      -0.684141       -18.6164 
  48   2.0000      -0.677498       -18.4357 
  49   2.0000      -0.664644       -18.0859 
  50   2.0000      -0.656794       -17.8723 
  51   2.0000      -0.642527       -17.4840 
  52   2.0000      -0.636245       -17.3131 
  53   2.0000      -0.610925       -16.6241 
  54   2.0000      -0.601321       -16.3628 
  55   2.0000      -0.596168       -16.2225 
  56   2.0000      -0.590929       -16.0800 
  57   2.0000      -0.585853       -15.9419 
  58   2.0000      -0.580727       -15.8024 
  59   2.0000      -0.577916       -15.7259 
  60   2.0000      -0.570196       -15.5158 
  61   2.0000      -0.563789       -15.3415 
  62   2.0000      -0.533333       -14.5127 
  63   2.0000      -0.528558       -14.3828 
  64   2.0000      -0.524202       -14.2643 
  65   2.0000      -0.510352       -13.8874 
  66   2.0000      -0.499151       -13.5826 
  67   2.0000      -0.489606       -13.3229 
  68   2.0000      -0.477425       -12.9914 
  69   2.0000      -0.466055       -12.6820 
  70   2.0000      -0.459699       -12.5091 
  71   2.0000      -0.444172       -12.0865 
  72   2.0000      -0.372129       -10.1261 
  73   2.0000      -0.342495        -9.3198 
  74   2.0000      -0.318941        -8.6788 
  75   2.0000      -0.315112        -8.5746 
  76   2.0000      -0.308459        -8.3936 
  77   0.0000       0.077940         2.1209 
  78   0.0000       0.106935         2.9098 
  79   0.0000       0.118089         3.2134 
  80   0.0000       0.127593         3.4720 
  81   0.0000       0.135791         3.6951 
  82   0.0000       0.137450         3.7402 
  83   0.0000       0.144394         3.9291 
  84   0.0000       0.157892         4.2965 
  85   0.0000       0.161826         4.4035 
  86   0.0000       0.165378         4.5002 
  87   0.0000       0.170315         4.6345 
  88   0.0000       0.183105         4.9825 
  89   0.0000       0.197781         5.3819 
  90   0.0000       0.204960         5.5773 
  91   0.0000       0.207402         5.6437 
  92   0.0000       0.214177         5.8280 
  93   0.0000       0.219355         5.9689 
  94   0.0000       0.232270         6.3204 
  95   0.0000       0.238565         6.4917 
  96   0.0000       0.242042         6.5863 
  97   0.0000       0.247985         6.7480 
  98   0.0000       0.263526         7.1709 
  99   0.0000       0.279781         7.6132 
 100   0.0000       0.294086         8.0025 
 101   0.0000       0.303441         8.2570 
 102   0.0000       0.320129         8.7112 
 103   0.0000       0.323827         8.8118 
 104   0.0000       0.325144         8.8476 
 105   0.0000       0.333535         9.0760 
 106   0.0000       0.345697         9.4069 
 107   0.0000       0.347822         9.4647 
 108   0.0000       0.350196         9.5293 
 109   0.0000       0.359842         9.7918 
 110   0.0000       0.362235         9.8569 
 111   0.0000       0.367751        10.0070 
 112   0.0000       0.380949        10.3662 
 113   0.0000       0.388216        10.5639 
 114   0.0000       0.392917        10.6918 
 115   0.0000       0.406179        11.0527 
 116   0.0000       0.420581        11.4446 
 117   0.0000       0.421194        11.4613 
 118   0.0000       0.426102        11.5948 
 119   0.0000       0.436914        11.8890 
 120   0.0000       0.442434        12.0392 
 121   0.0000       0.444972        12.1083 
 122   0.0000       0.451400        12.2832 
 123   0.0000       0.457717        12.4551 
 124   0.0000       0.459812        12.5121 
 125   0.0000       0.468624        12.7519 
 126   0.0000       0.472958        12.8699 
 127   0.0000       0.487028        13.2527 
 128   0.0000       0.492050        13.3894 
 129   0.0000       0.494894        13.4667 
 130   0.0000       0.503810        13.7094 
 131   0.0000       0.505551        13.7567 
 132   0.0000       0.508140        13.8272 
 133   0.0000       0.512937        13.9577 
 134   0.0000       0.528924        14.3928 
 135   0.0000       0.533501        14.5173 
 136   0.0000       0.536858        14.6087 
 137   0.0000       0.541122        14.7247 
 138   0.0000       0.548058        14.9134 
 139   0.0000       0.550577        14.9820 
 140   0.0000       0.554059        15.0767 
 141   0.0000       0.555609        15.1189 
 142   0.0000       0.563669        15.3382 
 143   0.0000       0.566427        15.4133 
 144   0.0000       0.570378        15.5208 
 145   0.0000       0.573930        15.6174 
 146   0.0000       0.574405        15.6304 
 147   0.0000       0.584460        15.9040 
 148   0.0000       0.588592        16.0164 
 149   0.0000       0.594726        16.1833 
 150   0.0000       0.600123        16.3302 
 151   0.0000       0.603310        16.4169 
 152   0.0000       0.609231        16.5780 
 153   0.0000       0.611902        16.6507 
 154   0.0000       0.616590        16.7783 
 155   0.0000       0.619447        16.8560 
 156   0.0000       0.627337        17.0707 
 157   0.0000       0.631615        17.1871 
 158   0.0000       0.636797        17.3281 
 159   0.0000       0.637019        17.3342 
 160   0.0000       0.644078        17.5263 
 161   0.0000       0.649931        17.6855 
 162   0.0000       0.653204        17.7746 
 163   0.0000       0.657833        17.9006 
 164   0.0000       0.660515        17.9735 
 165   0.0000       0.666787        18.1442 
 166   0.0000       0.671023        18.2595 
 167   0.0000       0.680237        18.5102 
 168   0.0000       0.683654        18.6032 
 169   0.0000       0.692273        18.8377 
 170   0.0000       0.695852        18.9351 
 171   0.0000       0.701016        19.0756 
 172   0.0000       0.705829        19.2066 
 173   0.0000       0.714104        19.4318 
 174   0.0000       0.723614        19.6905 
 175   0.0000       0.727635        19.8000 
 176   0.0000       0.735639        20.0177 
 177   0.0000       0.743100        20.2208 
 178   0.0000       0.744062        20.2470 
 179   0.0000       0.746451        20.3120 
 180   0.0000       0.761214        20.7137 
 181   0.0000       0.770811        20.9748 
 182   0.0000       0.775455        21.1012 
 183   0.0000       0.778560        21.1857 
 184   0.0000       0.794666        21.6240 
 185   0.0000       0.807298        21.9677 
 186   0.0000       0.809716        22.0335 
 187   0.0000       0.819686        22.3048 
 188   0.0000       0.830177        22.5903 
 189   0.0000       0.837597        22.7922 
 190   0.0000       0.847273        23.0555 
 191   0.0000       0.849812        23.1246 
 192   0.0000       0.864073        23.5126 
 193   0.0000       0.866741        23.5852 
 194   0.0000       0.874503        23.7964 
 195   0.0000       0.882127        24.0039 
 196   0.0000       0.885159        24.0864 
 197   0.0000       0.890113        24.2212 
 198   0.0000       0.897922        24.4337 
 199   0.0000       0.902395        24.5554 
 200   0.0000       0.906359        24.6633 
 201   0.0000       0.908974        24.7344 
 202   0.0000       0.920149        25.0385 
 203   0.0000       0.924736        25.1634 
 204   0.0000       0.943421        25.6718 
 205   0.0000       0.947207        25.7748 
 206   0.0000       0.948250        25.8032 
 207   0.0000       0.958420        26.0799 
 208   0.0000       0.961515        26.1641 
 209   0.0000       0.969975        26.3944 
 210   0.0000       0.978221        26.6188 
 211   0.0000       0.984751        26.7964 
 212   0.0000       0.990275        26.9467 
 213   0.0000       0.997672        27.1480 
 214   0.0000       1.001810        27.2606 
 215   0.0000       1.005550        27.3624 
 216   0.0000       1.011240        27.5172 
 217   0.0000       1.026454        27.9312 
 218   0.0000       1.031163        28.0594 
 219   0.0000       1.039443        28.2847 
 220   0.0000       1.045534        28.4504 
 221   0.0000       1.056212        28.7410 
 222   0.0000       1.057174        28.7672 
 223   0.0000       1.062229        28.9047 
 224   0.0000       1.072270        29.1780 
 225   0.0000       1.080028        29.3891 
 226   0.0000       1.085327        29.5332 
 227   0.0000       1.095926        29.8216 
 228   0.0000       1.102649        30.0046 
 229   0.0000       1.110912        30.2294 
 230   0.0000       1.125058        30.6144 
 231   0.0000       1.136089        30.9145 
 232   0.0000       1.144383        31.1403 
 233   0.0000       1.150702        31.3122 
 234   0.0000       1.153525        31.3890 
 235   0.0000       1.157900        31.5081 
 236   0.0000       1.164196        31.6794 
 237   0.0000       1.167033        31.7566 
 238   0.0000       1.173491        31.9323 
 239   0.0000       1.182608        32.1804 
 240   0.0000       1.191518        32.4228 
 241   0.0000       1.196042        32.5460 
 242   0.0000       1.201240        32.6874 
 243   0.0000       1.210790        32.9473 
 244   0.0000       1.217084        33.1185 
 245   0.0000       1.222096        33.2549 
 246   0.0000       1.226519        33.3753 
 247   0.0000       1.237116        33.6636 
 248   0.0000       1.242281        33.8042 
 249   0.0000       1.250561        34.0295 
 250   0.0000       1.255218        34.1562 
 251   0.0000       1.264240        34.4017 
 252   0.0000       1.270175        34.5632 
 253   0.0000       1.286036        34.9948 
 254   0.0000       1.288128        35.0517 
 255   0.0000       1.300106        35.3777 
 256   0.0000       1.309014        35.6201 
 257   0.0000       1.318650        35.8823 
 258   0.0000       1.325258        36.0621 
 259   0.0000       1.333893        36.2971 
 260   0.0000       1.338577        36.4245 
 261   0.0000       1.351699        36.7816 
 262   0.0000       1.357447        36.9380 
 263   0.0000       1.367620        37.2148 
 264   0.0000       1.373351        37.3708 
 265   0.0000       1.376299        37.4510 
 266   0.0000       1.388762        37.7901 
 267   0.0000       1.395437        37.9718 
 268   0.0000       1.403168        38.1821 
 269   0.0000       1.409703        38.3600 
 270   0.0000       1.417153        38.5627 
 271   0.0000       1.421882        38.6914 
 272   0.0000       1.429062        38.8867 
 273   0.0000       1.435242        39.0549 
 274   0.0000       1.439591        39.1733 
 275   0.0000       1.452382        39.5213 
 276   0.0000       1.463182        39.8152 
 277   0.0000       1.470857        40.0241 
 278   0.0000       1.476224        40.1701 
 279   0.0000       1.485215        40.4148 
 280   0.0000       1.486768        40.4570 
 281   0.0000       1.498933        40.7881 
 282   0.0000       1.501426        40.8559 
 283   0.0000       1.514089        41.2004 
 284   0.0000       1.517940        41.3053 
 285   0.0000       1.521617        41.4053 
 286   0.0000       1.531702        41.6797 
 287   0.0000       1.545581        42.0574 
 288   0.0000       1.550174        42.1824 
 289   0.0000       1.552337        42.2412 
 290   0.0000       1.564710        42.5779 
 291   0.0000       1.567888        42.6644 
 292   0.0000       1.577257        42.9193 
 293   0.0000       1.581226        43.0273 
 294   0.0000       1.585468        43.1428 
 295   0.0000       1.599474        43.5239 
 296   0.0000       1.605056        43.6758 
 297   0.0000       1.609193        43.7884 
 298   0.0000       1.615860        43.9698 
 299   0.0000       1.623225        44.1702 
 300   0.0000       1.630474        44.3675 
 301   0.0000       1.639063        44.6012 
 302   0.0000       1.653256        44.9874 
 303   0.0000       1.656130        45.0656 
 304   0.0000       1.659893        45.1680 
 305   0.0000       1.667152        45.3655 
 306   0.0000       1.679487        45.7012 
 307   0.0000       1.686068        45.8803 
 308   0.0000       1.696055        46.1520 
 309   0.0000       1.701650        46.3043 
 310   0.0000       1.703708        46.3602 
 311   0.0000       1.707057        46.4514 
 312   0.0000       1.729387        47.0590 
 313   0.0000       1.751826        47.6696 
 314   0.0000       1.753711        47.7209 
 315   0.0000       1.763408        47.9848 
 316   0.0000       1.772040        48.2197 
 317   0.0000       1.776380        48.3378 
 318   0.0000       1.783666        48.5360 
 319   0.0000       1.795027        48.8452 
 320   0.0000       1.808848        49.2213 
 321   0.0000       1.825591        49.6769 
 322   0.0000       1.832261        49.8584 
 323   0.0000       1.835859        49.9563 
 324   0.0000       1.855520        50.4913 
 325   0.0000       1.870462        50.8979 
 326   0.0000       1.873111        50.9699 
 327   0.0000       1.899732        51.6943 
 328   0.0000       1.908686        51.9380 
 329   0.0000       1.921806        52.2950 
 330   0.0000       1.929746        52.5110 
 331   0.0000       1.937863        52.7319 
 332   0.0000       1.945744        52.9464 
 333   0.0000       1.951796        53.1111 
 334   0.0000       1.961491        53.3749 
 335   0.0000       1.967133        53.5284 
 336   0.0000       1.972314        53.6694 
 337   0.0000       1.984368        53.9974 
 338   0.0000       2.004985        54.5584 
 339   0.0000       2.019220        54.9458 
 340   0.0000       2.024105        55.0787 
 341   0.0000       2.044850        55.6432 
 342   0.0000       2.054301        55.9004 
 343   0.0000       2.060896        56.0798 
 344   0.0000       2.093953        56.9794 
 345   0.0000       2.108962        57.3878 
 346   0.0000       2.110746        57.4363 
 347   0.0000       2.136628        58.1406 
 348   0.0000       2.148488        58.4633 
 349   0.0000       2.158586        58.7381 
 350   0.0000       2.169596        59.0377 
 351   0.0000       2.190761        59.6136 
 352   0.0000       2.203926        59.9719 
 353   0.0000       2.214319        60.2547 
 354   0.0000       2.228116        60.6301 
 355   0.0000       2.234314        60.7988 
 356   0.0000       2.248116        61.1743 
 357   0.0000       2.266247        61.6677 
 358   0.0000       2.286915        62.2301 
 359   0.0000       2.290115        62.3172 
 360   0.0000       2.307969        62.8030 
 361   0.0000       2.315668        63.0125 
 362   0.0000       2.327336        63.3300 
 363   0.0000       2.351558        63.9891 
 364   0.0000       2.358080        64.1666 
 365   0.0000       2.366052        64.3835 
 366   0.0000       2.375552        64.6421 
 367   0.0000       2.383427        64.8564 
 368   0.0000       2.392114        65.0927 
 369   0.0000       2.404519        65.4303 
 370   0.0000       2.406019        65.4711 
 371   0.0000       2.444320        66.5133 
 372   0.0000       2.460184        66.9450 
 373   0.0000       2.474931        67.3463 
 374   0.0000       2.476660        67.3934 
 375   0.0000       2.480860        67.5076 
 376   0.0000       2.506579        68.2075 
 377   0.0000       2.526242        68.7425 
 378   0.0000       2.542017        69.1718 
 379   0.0000       2.551205        69.4218 
 380   0.0000       2.556890        69.5765 
 381   0.0000       2.579080        70.1803 
 382   0.0000       2.585459        70.3539 
 383   0.0000       2.603669        70.8494 
 384   0.0000       2.605769        70.9066 
 385   0.0000       2.615174        71.1625 
 386   0.0000       2.617717        71.2317 
 387   0.0000       2.627562        71.4996 
 388   0.0000       2.631256        71.6001 
 389   0.0000       2.648378        72.0660 
 390   0.0000       2.655055        72.2477 
 391   0.0000       2.672973        72.7353 
 392   0.0000       2.679274        72.9068 
 393   0.0000       2.709383        73.7261 
 394   0.0000       2.717191        73.9385 
 395   0.0000       2.720809        74.0370 
 396   0.0000       2.727941        74.2311 
 397   0.0000       2.744795        74.6897 
 398   0.0000       2.751745        74.8788 
 399   0.0000       2.760468        75.1162 
 400   0.0000       2.765860        75.2629 
 401   0.0000       2.774344        75.4937 
 402   0.0000       2.779815        75.6426 
 403   0.0000       2.789952        75.9185 
 404   0.0000       2.807691        76.4011 
 405   0.0000       2.811708        76.5105 
 406   0.0000       2.827028        76.9273 
 407   0.0000       2.835963        77.1705 
 408   0.0000       2.843097        77.3646 
 409   0.0000       2.855696        77.7074 
 410   0.0000       2.861197        77.8571 
 411   0.0000       2.882314        78.4318 
 412   0.0000       2.891038        78.6692 
 413   0.0000       2.912757        79.2601 
 414   0.0000       2.919120        79.4333 
 415   0.0000       2.924315        79.5747 
 416   0.0000       2.934903        79.8628 
 417   0.0000       2.944507        80.1241 
 418   0.0000       2.945848        80.1606 
 419   0.0000       2.958739        80.5114 
 420   0.0000       2.960166        80.5502 
 421   0.0000       2.967905        80.7608 
 422   0.0000       2.976771        81.0021 
 423   0.0000       2.982509        81.1582 
 424   0.0000       2.991210        81.3950 
 425   0.0000       2.999794        81.6285 
 426   0.0000       3.007919        81.8496 
 427   0.0000       3.016353        82.0792 
 428   0.0000       3.029321        82.4320 
 429   0.0000       3.036335        82.6229 
 430   0.0000       3.046991        82.9128 
 431   0.0000       3.049151        82.9716 
 432   0.0000       3.057289        83.1931 
 433   0.0000       3.062039        83.3223 
 434   0.0000       3.063703        83.3676 
 435   0.0000       3.069548        83.5266 
 436   0.0000       3.078382        83.7670 
 437   0.0000       3.088944        84.0544 
 438   0.0000       3.093741        84.1850 
 439   0.0000       3.108794        84.5946 
 440   0.0000       3.112935        84.7073 
 441   0.0000       3.122867        84.9775 
 442   0.0000       3.128469        85.1300 
 443   0.0000       3.137513        85.3761 
 444   0.0000       3.138585        85.4052 
 445   0.0000       3.150615        85.7326 
 446   0.0000       3.159130        85.9643 
 447   0.0000       3.161470        86.0280 
 448   0.0000       3.173424        86.3533 
 449   0.0000       3.178383        86.4882 
 450   0.0000       3.185611        86.6849 
 451   0.0000       3.189543        86.7919 
 452   0.0000       3.200590        87.0925 
 453   0.0000       3.213369        87.4402 
 454   0.0000       3.221216        87.6537 
 455   0.0000       3.226854        87.8072 
 456   0.0000       3.231586        87.9359 
 457   0.0000       3.240555        88.1800 
 458   0.0000       3.255553        88.5881 
 459   0.0000       3.256195        88.6056 
 460   0.0000       3.262882        88.7875 
 461   0.0000       3.264465        88.8306 
 462   0.0000       3.269638        88.9714 
 463   0.0000       3.272891        89.0599 
 464   0.0000       3.288692        89.4898 
 465   0.0000       3.298949        89.7690 
 466   0.0000       3.300728        89.8174 
 467   0.0000       3.307894        90.0124 
 468   0.0000       3.315026        90.2065 
 469   0.0000       3.323650        90.4411 
 470   0.0000       3.326045        90.5063 
 471   0.0000       3.333349        90.7050 
 472   0.0000       3.337322        90.8131 
 473   0.0000       3.347410        91.0876 
 474   0.0000       3.351371        91.1954 
 475   0.0000       3.366807        91.6155 
 476   0.0000       3.375850        91.8616 
 477   0.0000       3.376903        91.8902 
 478   0.0000       3.382595        92.0451 
 479   0.0000       3.383784        92.0774 
 480   0.0000       3.387934        92.1904 
 481   0.0000       3.389339        92.2286 
 482   0.0000       3.398139        92.4681 
 483   0.0000       3.400633        92.5359 
 484   0.0000       3.410535        92.8054 
 485   0.0000       3.413215        92.8783 
 486   0.0000       3.417102        92.9841 
 487   0.0000       3.422743        93.1376 
 488   0.0000       3.427640        93.2708 
 489   0.0000       3.435774        93.4922 
 490   0.0000       3.439303        93.5882 
 491   0.0000       3.446166        93.7749 
 492   0.0000       3.456114        94.0456 
 493   0.0000       3.458828        94.1195 
 494   0.0000       3.471131        94.4543 
 495   0.0000       3.472931        94.5033 
 496   0.0000       3.477665        94.6321 
 497   0.0000       3.489215        94.9464 
 498   0.0000       3.499630        95.2298 
 499   0.0000       3.507761        95.4510 
 500   0.0000       3.513703        95.6127 
 501   0.0000       3.523394        95.8764 
 502   0.0000       3.530503        96.0699 
 503   0.0000       3.538874        96.2977 
 504   0.0000       3.553083        96.6843 
 505   0.0000       3.559589        96.8613 
 506   0.0000       3.566941        97.0614 
 507   0.0000       3.570881        97.1686 
 508   0.0000       3.574777        97.2746 
 509   0.0000       3.583762        97.5191 
 510   0.0000       3.596120        97.8554 
 511   0.0000       3.600884        97.9850 
 512   0.0000       3.607961        98.1776 
 513   0.0000       3.613943        98.3404 
 514   0.0000       3.618244        98.4574 
 515   0.0000       3.622976        98.5862 
 516   0.0000       3.627227        98.7019 
 517   0.0000       3.632441        98.8438 
 518   0.0000       3.639410        99.0334 
 519   0.0000       3.642567        99.1193 
 520   0.0000       3.650360        99.3313 
 521   0.0000       3.653700        99.4222 
 522   0.0000       3.660805        99.6156 
 523   0.0000       3.663524        99.6896 
 524   0.0000       3.672271        99.9276 
 525   0.0000       3.683230       100.2258 
 526   0.0000       3.686513       100.3151 
 527   0.0000       3.695588       100.5621 
 528   0.0000       3.705077       100.8203 
 529   0.0000       3.709634       100.9443 
 530   0.0000       3.713715       101.0553 
 531   0.0000       3.719446       101.2113 
 532   0.0000       3.726421       101.4011 
 533   0.0000       3.730093       101.5010 
 534   0.0000       3.735719       101.6541 
 535   0.0000       3.739332       101.7524 
 536   0.0000       3.749917       102.0404 
 537   0.0000       3.755378       102.1890 
 538   0.0000       3.760842       102.3377 
 539   0.0000       3.772980       102.6680 
 540   0.0000       3.781802       102.9081 
 541   0.0000       3.792624       103.2026 
 542   0.0000       3.794773       103.2610 
 543   0.0000       3.797907       103.3463 
 544   0.0000       3.803971       103.5113 
 545   0.0000       3.808519       103.6351 
 546   0.0000       3.820493       103.9609 
 547   0.0000       3.826143       104.1146 
 548   0.0000       3.834410       104.3396 
 549   0.0000       3.839507       104.4783 
 550   0.0000       3.842147       104.5501 
 551   0.0000       3.852338       104.8274 
 552   0.0000       3.853856       104.8687 
 553   0.0000       3.856939       104.9526 
 554   0.0000       3.877164       105.5030 
 555   0.0000       3.883750       105.6822 
 556   0.0000       3.895058       105.9899 
 557   0.0000       3.896575       106.0312 
 558   0.0000       3.902657       106.1967 
 559   0.0000       3.910758       106.4171 
 560   0.0000       3.919966       106.6677 
 561   0.0000       3.931424       106.9795 
 562   0.0000       3.947234       107.4097 
 563   0.0000       3.958104       107.7055 
 564   0.0000       3.965497       107.9067 
 565   0.0000       3.973158       108.1151 
 566   0.0000       3.995458       108.7219 
 567   0.0000       4.000084       108.8478 
 568   0.0000       4.009011       109.0907 
 569   0.0000       4.015505       109.2675 
 570   0.0000       4.023945       109.4971 
 571   0.0000       4.033015       109.7439 
 572   0.0000       4.042691       110.0072 
 573   0.0000       4.050205       110.2117 
 574   0.0000       4.058091       110.4263 
 575   0.0000       4.071818       110.7998 
 576   0.0000       4.081385       111.0601 
 577   0.0000       4.084728       111.1511 
 578   0.0000       4.097390       111.4956 
 579   0.0000       4.099988       111.5663 
 580   0.0000       4.104160       111.6799 
 581   0.0000       4.114325       111.9565 
 582   0.0000       4.122043       112.1665 
 583   0.0000       4.125572       112.2625 
 584   0.0000       4.133377       112.4749 
 585   0.0000       4.138181       112.6056 
 586   0.0000       4.151086       112.9568 
 587   0.0000       4.160262       113.2065 
 588   0.0000       4.163894       113.3053 
 589   0.0000       4.171642       113.5161 
 590   0.0000       4.180052       113.7450 
 591   0.0000       4.189261       113.9956 
 592   0.0000       4.197237       114.2126 
 593   0.0000       4.201799       114.3368 
 594   0.0000       4.212130       114.6179 
 595   0.0000       4.217187       114.7555 
 596   0.0000       4.224585       114.9568 
 597   0.0000       4.231451       115.1436 
 598   0.0000       4.242699       115.4497 
 599   0.0000       4.244640       115.5025 
 600   0.0000       4.252181       115.7077 
 601   0.0000       4.259180       115.8982 
 602   0.0000       4.270770       116.2136 
 603   0.0000       4.283464       116.5590 
 604   0.0000       4.294724       116.8654 
 605   0.0000       4.308160       117.2310 
 606   0.0000       4.316745       117.4646 
 607   0.0000       4.318807       117.5207 
 608   0.0000       4.324463       117.6746 
 609   0.0000       4.334297       117.9422 
 610   0.0000       4.340557       118.1126 
 611   0.0000       4.348820       118.3374 
 612   0.0000       4.350999       118.3967 
 613   0.0000       4.361348       118.6783 
 614   0.0000       4.367247       118.8388 
 615   0.0000       4.377565       119.1196 
 616   0.0000       4.378646       119.1490 
 617   0.0000       4.394415       119.5781 
 618   0.0000       4.397150       119.6525 
 619   0.0000       4.404829       119.8615 
 620   0.0000       4.408688       119.9665 
 621   0.0000       4.419103       120.2499 
 622   0.0000       4.427855       120.4881 
 623   0.0000       4.434925       120.6804 
 624   0.0000       4.438362       120.7740 
 625   0.0000       4.446224       120.9879 
 626   0.0000       4.456193       121.2592 
 627   0.0000       4.474230       121.7500 
 628   0.0000       4.479179       121.8847 
 629   0.0000       4.481073       121.9362 
 630   0.0000       4.485658       122.0610 
 631   0.0000       4.500004       122.4513 
 632   0.0000       4.513784       122.8263 
 633   0.0000       4.521246       123.0294 
 634   0.0000       4.535939       123.4292 
 635   0.0000       4.536164       123.4353 
 636   0.0000       4.549670       123.8028 
 637   0.0000       4.560582       124.0997 
 638   0.0000       4.563444       124.1776 
 639   0.0000       4.574550       124.4798 
 640   0.0000       4.582962       124.7087 
 641   0.0000       4.583810       124.7318 
 642   0.0000       4.590558       124.9154 
 643   0.0000       4.605846       125.3314 
 644   0.0000       4.613524       125.5404 
 645   0.0000       4.619853       125.7126 
 646   0.0000       4.628969       125.9607 
 647   0.0000       4.633558       126.0855 
 648   0.0000       4.642203       126.3208 
 649   0.0000       4.648657       126.4964 
 650   0.0000       4.651269       126.5675 
 651   0.0000       4.657569       126.7389 
 652   0.0000       4.672280       127.1392 
 653   0.0000       4.684795       127.4798 
 654   0.0000       4.694853       127.7534 
 655   0.0000       4.704621       128.0192 
 656   0.0000       4.717705       128.3753 
 657   0.0000       4.730193       128.7151 
 658   0.0000       4.735582       128.8617 
 659   0.0000       4.748157       129.2039 
 660   0.0000       4.765136       129.6660 
 661   0.0000       4.787068       130.2627 
 662   0.0000       4.789853       130.3385 
 663   0.0000       4.806676       130.7963 
 664   0.0000       4.816591       131.0661 
 665   0.0000       4.830117       131.4342 
 666   0.0000       4.844753       131.8324 
 667   0.0000       4.854362       132.0939 
 668   0.0000       4.876028       132.6835 
 669   0.0000       4.896087       133.2293 
 670   0.0000       4.914598       133.7330 
 671   0.0000       4.923161       133.9660 
 672   0.0000       4.945577       134.5760 
 673   0.0000       4.961086       134.9980 
 674   0.0000       4.976463       135.4164 
 675   0.0000       4.989233       135.7639 
 676   0.0000       5.002412       136.1225 
 677   0.0000       5.025326       136.7461 
 678   0.0000       5.028029       136.8196 
 679   0.0000       5.040017       137.1458 
 680   0.0000       5.048015       137.3635 
 681   0.0000       5.056276       137.5883 
 682   0.0000       5.067722       137.8997 
 683   0.0000       5.083837       138.3382 
 684   0.0000       5.095751       138.6624 
 685   0.0000       5.102513       138.8464 
 686   0.0000       5.118258       139.2749 
 687   0.0000       5.122850       139.3998 
 688   0.0000       5.138441       139.8241 
 689   0.0000       5.143982       139.9749 
 690   0.0000       5.153228       140.2265 
 691   0.0000       5.163309       140.5008 
 692   0.0000       5.183064       141.0383 
 693   0.0000       5.188969       141.1990 
 694   0.0000       5.191983       141.2811 
 695   0.0000       5.204539       141.6227 
 696   0.0000       5.214480       141.8932 
 697   0.0000       5.224168       142.1568 
 698   0.0000       5.236112       142.4819 
 699   0.0000       5.264494       143.2542 
 700   0.0000       5.272361       143.4682 
 701   0.0000       5.285257       143.8191 
 702   0.0000       5.297352       144.1483 
 703   0.0000       5.316308       144.6641 
 704   0.0000       5.325013       144.9010 
 705   0.0000       5.350624       145.5979 
 706   0.0000       5.353540       145.6772 
 707   0.0000       5.358052       145.8000 
 708   0.0000       5.380593       146.4134 
 709   0.0000       5.392679       146.7422 
 710   0.0000       5.403946       147.0488 
 711   0.0000       5.425091       147.6242 
 712   0.0000       5.427531       147.6906 
 713   0.0000       5.445693       148.1848 
 714   0.0000       5.464367       148.6930 
 715   0.0000       5.477890       149.0610 
 716   0.0000       5.489163       149.3677 
 717   0.0000       5.515425       150.0824 
 718   0.0000       5.529713       150.4711 
 719   0.0000       5.534950       150.6137 
 720   0.0000       5.542461       150.8180 
 721   0.0000       5.550398       151.0340 
 722   0.0000       5.554193       151.1373 
 723   0.0000       5.569646       151.5578 
 724   0.0000       5.585525       151.9899 
 725   0.0000       5.594895       152.2448 
 726   0.0000       5.602523       152.4524 
 727   0.0000       5.623534       153.0241 
 728   0.0000       5.637668       153.4087 
 729   0.0000       5.643180       153.5587 
 730   0.0000       5.657187       153.9399 
 731   0.0000       5.666552       154.1947 
 732   0.0000       5.671822       154.3381 
 733   0.0000       5.690139       154.8366 
 734   0.0000       5.722201       155.7090 
 735   0.0000       5.728356       155.8765 
 736   0.0000       5.737373       156.1219 
 737   0.0000       5.750166       156.4700 
 738   0.0000       5.756372       156.6389 
 739   0.0000       5.763027       156.8199 
 740   0.0000       5.771702       157.0560 
 741   0.0000       5.790388       157.5645 
 742   0.0000       5.820471       158.3831 
 743   0.0000       5.823048       158.4532 
 744   0.0000       5.830503       158.6561 
 745   0.0000       5.853967       159.2946 
 746   0.0000       5.872427       159.7968 
 747   0.0000       5.893639       160.3741 
 748   0.0000       5.901641       160.5918 
 749   0.0000       5.926718       161.2742 
 750   0.0000       5.932424       161.4295 
 751   0.0000       5.938643       161.5987 
 752   0.0000       5.965861       162.3393 
 753   0.0000       5.975907       162.6127 
 754   0.0000       6.003179       163.3548 
 755   0.0000       6.009038       163.5142 
 756   0.0000       6.045337       164.5020 
 757   0.0000       6.054790       164.7592 
 758   0.0000       6.087645       165.6532 
 759   0.0000       6.107871       166.2036 
 760   0.0000       6.143283       167.1672 
 761   0.0000       6.148546       167.3104 
 762   0.0000       6.182915       168.2457 
 763   0.0000       6.216218       169.1519 
 764   0.0000       6.254040       170.1811 
 765   0.0000       6.272287       170.6776 
 766   0.0000       6.281428       170.9264 
 767   0.0000       6.309962       171.7028 
 768   0.0000       6.323128       172.0611 
 769   0.0000       6.327399       172.1773 
 770   0.0000       6.339968       172.5193 
 771   0.0000       6.367117       173.2581 
 772   0.0000       6.368639       173.2995 
 773   0.0000       6.437963       175.1859 
 774   0.0000       6.445371       175.3874 
 775   0.0000       6.486766       176.5139 
 776   0.0000       6.495590       176.7540 
 777   0.0000       6.513262       177.2349 
 778   0.0000       6.582542       179.1201 
 779   0.0000       6.596052       179.4877 
 780   0.0000       6.655892       181.1160 
 781   0.0000       6.668120       181.4488 
 782   0.0000       6.720006       182.8607 
 783   0.0000       6.758447       183.9067 
 784   0.0000       6.824992       185.7175 
 785   0.0000       6.842554       186.1954 
 786   0.0000       6.887157       187.4091 
 787   0.0000       6.897172       187.6816 
 788   0.0000       6.902903       187.8375 
 789   0.0000       7.005873       190.6395 
 790   0.0000       7.054809       191.9711 
 791   0.0000       7.096673       193.1103 
 792   0.0000       7.108419       193.4299 
 793   0.0000       7.138809       194.2569 
 794   0.0000       7.154272       194.6777 
 795   0.0000       7.191093       195.6796 
 796   0.0000       7.240165       197.0149 
 797   0.0000       7.278328       198.0534 
 798   0.0000       7.343633       199.8304 
 799   0.0000       7.349767       199.9973 
 800   0.0000       7.436338       202.3530 
 801   0.0000       7.482669       203.6138 
 802   0.0000       7.577529       206.1951 
 803   0.0000       7.582317       206.3253 
 804   0.0000       7.674001       208.8202 
 805   0.0000       7.809853       212.5169 
 806   0.0000       7.875279       214.2972 
 807   0.0000       7.898112       214.9185 
 808   0.0000       7.972517       216.9432 
 809   0.0000       9.382981       255.3239 
 810   0.0000       9.789258       266.3793 
 811   0.0000      10.820631       294.4443 
 812   0.0000      11.363935       309.2284 
 813   0.0000      11.703856       318.4781 
 814   0.0000      12.192102       331.7640 
 815   0.0000      12.932007       351.8978 
 816   0.0000      13.048779       355.0753 
 817   0.0000      13.082104       355.9822 
 818   0.0000      13.396016       364.5241 
 819   0.0000      13.435447       365.5971 
 820   0.0000      13.704136       372.9085 
 821   0.0000      13.767633       374.6363 
 822   0.0000      13.906789       378.4230 
 823   0.0000      14.112044       384.0082 
 824   0.0000      14.255642       387.9157 
 825   0.0000      14.711141       400.3105 
 826   0.0000      14.969555       407.3423 
 827   0.0000      15.871579       431.8876 

                    ********************************
                    * MULLIKEN POPULATION ANALYSIS *
                    ********************************

-----------------------
MULLIKEN ATOMIC CHARGES
-----------------------
   0 C :   -0.295662
   1 C :    0.056922
   2 O :   -0.354612
   3 C :    0.468034
   4 O :   -0.408090
   5 C :   -0.181801
   6 C :    0.133440
   7 C :   -0.292221
   8 N :   -0.103616
   9 C :    0.199420
  10 S :   -0.490167
  11 N :   -0.210695
  12 C :    0.034454
  13 C :    0.078101
  14 C :   -0.188170
  15 C :   -0.115897
  16 C :   -0.264981
  17 C :    0.285464
  18 O :   -0.357115
  19 C :   -0.222808
  20 H :    0.092811
  21 H :    0.108593
  22 H :    0.111479
  23 H :    0.091499
  24 H :    0.103016
  25 H :    0.113213
  26 H :    0.118495
  27 H :    0.137630
  28 H :    0.204704
  29 H :    0.194454
  30 H :    0.151417
  31 H :    0.135608
  32 H :    0.147134
  33 H :    0.128371
  34 H :    0.244871
  35 H :    0.146704
Sum of atomic charges:   -0.0000000

--------------------------------
MULLIKEN REDUCED ORBITAL CHARGES
--------------------------------
  0 C s       :     3.259325  s :     3.259325
      pz      :     1.033344  p :     2.958500
      px      :     0.906741
      py      :     1.018415
      dz2     :     0.015585  d :     0.072920
      dxz     :     0.017119
      dyz     :     0.003792
      dx2y2   :     0.025007
      dxy     :     0.011417
      f0      :     0.000206  f :     0.004917
      f+1     :     0.001485
      f-1     :     0.000521
      f+2     :     0.000546
      f-2     :     0.000108
      f+3     :     0.000887
      f-3     :     0.001164
  1 C s       :     3.170535  s :     3.170535
      pz      :     0.698636  p :     2.606675
      px      :     0.922669
      py      :     0.985370
      dz2     :     0.034649  d :     0.153731
      dxz     :     0.041668
      dyz     :     0.025257
      dx2y2   :     0.029235
      dxy     :     0.022922
      f0      :     0.002856  f :     0.012137
      f+1     :     0.002374
      f-1     :     0.002328
      f+2     :     0.001266
      f-2     :     0.000941
      f+3     :     0.001196
      f-3     :     0.001178
  2 O s       :     3.715839  s :     3.715839
      pz      :     1.433390  p :     4.604840
      px      :     1.396918
      py      :     1.774533
      dz2     :     0.010122  d :     0.031773
      dxz     :     0.005546
      dyz     :     0.004356
      dx2y2   :     0.007848
      dxy     :     0.003902
      f0      :     0.000370  f :     0.002159
      f+1     :     0.000413
      f-1     :     0.000248
      f+2     :     0.000403
      f-2     :     0.000165
      f+3     :     0.000359
      f-3     :     0.000202
  3 C s       :     3.068355  s :     3.068355
      pz      :     0.795689  p :     2.138968
[...]
 15 C s       :     2.693805  s :     2.693805
      pz      :     0.839758  p :     2.796300
      px      :     0.950735
      py      :     1.005806
      dz2     :     0.033146  d :     0.436051
      dxz     :     0.043380
      dyz     :     0.099042
      dx2y2   :     0.150564
      dxy     :     0.109918
      f0      :     0.003807  f :     0.044557
      f+1     :     0.001585
      f-1     :     0.004893
      f+2     :     0.004227
      f-2     :     0.007821
      f+3     :     0.008732
      f-3     :     0.013491
 16 C s       :     2.697907  s :     2.697907
      pz      :     0.910101  p :     2.862603
      px      :     0.976153
      py      :     0.976349
      dz2     :     0.029672  d :     0.399335
      dxz     :     0.066444
      dyz     :     0.048922
      dx2y2   :     0.135943
      dxy     :     0.118353
      f0      :     0.003459  f :     0.041995
      f+1     :     0.004205
      f-1     :     0.002085
      f+2     :     0.005421
      f-2     :     0.005172
      f+3     :     0.008323
      f-3     :     0.013330
 17 C s       :     2.708770  s :     2.708770
      pz      :     0.832894  p :     2.677724
      px      :     0.966814
      py      :     0.878016
      dz2     :     0.062409  d :     0.697651
      dxz     :     0.100247
      dyz     :     0.126450
      dx2y2   :     0.193593
      dxy     :     0.214952
      f0      :     0.008113  f :     0.095863
      f+1     :     0.006799
      f-1     :     0.007560
      f+2     :     0.008833
      f-2     :     0.016016
      f+3     :     0.016468
      f-3     :     0.032074
 18 O s       :     3.191909  s :     3.191909
      pz      :     1.580151  p :     4.346757
      px      :     1.516663
      py      :     1.249943
      dz2     :     0.006284  d :     0.073769
      dxz     :     0.008243
      dyz     :     0.013891
      dx2y2   :     0.015417
      dxy     :     0.029935
      f0      :     0.000498  f :     0.005308
      f+1     :     0.000352
      f-1     :     0.000497
      f+2     :     0.000155
      f-2     :     0.000993
      f+3     :     0.001395
      f-3     :     0.001419
 19 C s       :     2.708811  s :     2.708811
      pz      :     0.911623  p :     2.850184
      px      :     0.964111
      py      :     0.974450
      dz2     :     0.029695  d :     0.368771
      dxz     :     0.029589
      dyz     :     0.070153
      dx2y2   :     0.137404
      dxy     :     0.101930
      f0      :     0.002852  f :     0.036499
      f+1     :     0.001732
      f-1     :     0.004122
      f+2     :     0.003438
      f-2     :     0.005652
      f+3     :     0.007957
      f-3     :     0.010745
 20 H s       :     0.831498  s :     0.831498
      pz      :     0.042388  p :     0.158804
      px      :     0.041570
      py      :     0.074846
      dz2     :     0.002410  d :     0.029257
      dxz     :     0.000210
      dyz     :     0.009805
      dx2y2   :     0.006829
      dxy     :     0.010002
 21 H s       :     0.841066  s :     0.841066
      pz      :     0.062024  p :     0.151998
      px      :     0.043635
      py      :     0.046338
      dz2     :     0.007900  d :     0.027912
      dxz     :     0.007452
      dyz     :     0.006966
      dx2y2   :     0.002744
      dxy     :     0.002851
 22 H s       :     0.842806  s :     0.842806
      pz      :     0.060286  p :     0.149217
      px      :     0.044406
      py      :     0.044526
      dz2     :     0.008391  d :     0.027133
      dxz     :     0.006640
      dyz     :     0.005652
      dx2y2   :     0.003614
      dxy     :     0.002835
 23 H s       :     0.856135  s :     0.856135
      pz      :     0.027799  p :     0.145242
      px      :     0.038414
      py      :     0.079028
      dz2     :     0.002815  d :     0.026896
      dxz     :     0.000294
      dyz     :     0.007200
      dx2y2   :     0.007896
      dxy     :     0.008690
 24 H s       :     0.850045  s :     0.850045
      pz      :     0.047852  p :     0.143367
      px      :     0.048218
      py      :     0.047297
      dz2     :     0.005897  d :     0.026916
      dxz     :     0.006301
      dyz     :     0.005240
      dx2y2   :     0.005945
      dxy     :     0.003533
 25 H s       :     0.848568  s :     0.848568
      pz      :     0.061384  p :     0.148740
      px      :     0.044519
      py      :     0.042837
      dz2     :     0.007741  d :     0.027059
      dxz     :     0.007117
      dyz     :     0.006490
      dx2y2   :     0.003225
      dxy     :     0.002487
 26 H s       :     0.825153  s :     0.825153
      pz      :     0.044704  p :     0.161296
      px      :     0.042984
      py      :     0.073607
      dz2     :     0.003505  d :     0.029097
      dxz     :     0.000887
      dyz     :     0.009156
      dx2y2   :     0.007285
      dxy     :     0.008264
 27 H s       :     0.829282  s :     0.829282
      pz      :     0.066395  p :     0.156814
      px      :     0.039148
      py      :     0.051271
      dz2     :     0.008627  d :     0.028135
      dxz     :     0.006330
      dyz     :     0.006711
      dx2y2   :     0.004054
      dxy     :     0.002412
 28 H s       :     0.737434  s :     0.737434
      pz      :     0.085366  p :     0.245014
      px      :     0.081998
      py      :     0.077650
      dz2     :     0.014373  d :     0.059991
      dxz     :     0.015971
      dyz     :     0.009750
      dx2y2   :     0.008059
      dxy     :     0.011838
 29 H s       :     0.751881  s :     0.751881
      pz      :     0.062480  p :     0.255659
      px      :     0.106427
      py      :     0.086751
      dz2     :     0.005716  d :     0.060780
      dxz     :     0.014372
      dyz     :     0.004890
      dx2y2   :     0.019141
      dxy     :     0.016661
 30 H s       :     0.821015  s :     0.821015
      pz      :     0.066328  p :     0.151262
      px      :     0.049540
      py      :     0.035394
      dz2     :     0.008129  d :     0.028640
      dxz     :     0.007463
      dyz     :     0.006598
      dx2y2   :     0.003805
      dxy     :     0.002646
 31 H s       :     0.844528  s :     0.844528
      pz      :     0.045272  p :     0.156507
      px      :     0.047529
      py      :     0.063706
      dz2     :     0.002472  d :     0.027676
      dxz     :     0.002585
      dyz     :     0.006082
      dx2y2   :     0.008608
      dxy     :     0.007928
 32 H s       :     0.837009  s :     0.837009
      pz      :     0.047918  p :     0.153068
      px      :     0.071345
      py      :     0.033806
      dz2     :     0.003870  d :     0.027221
      dxz     :     0.007771
      dyz     :     0.001604
      dx2y2   :     0.006347
      dxy     :     0.007628
 33 H s       :     0.847034  s :     0.847034
      pz      :     0.051248  p :     0.156986
      px      :     0.041198
      py      :     0.064541
      dz2     :     0.003695  d :     0.027542
      dxz     :     0.002318
      dyz     :     0.006888
      dx2y2   :     0.007311
      dxy     :     0.007330
 34 H s       :     0.700653  s :     0.700653
      pz      :     0.117350  p :     0.349445
      px      :     0.129338
      py      :     0.102758
      dz2     :     0.019396  d :     0.099616
      dxz     :     0.017519
      dyz     :     0.017107
      dx2y2   :     0.023496
      dxy     :     0.022097
 35 H s       :     0.844607  s :     0.844607
      pz      :     0.050986  p :     0.166547
      px      :     0.079709
      py      :     0.035852
      dz2     :     0.003376  d :     0.028511
      dxz     :     0.008397
      dyz     :     0.000872
      dx2y2   :     0.007626
      dxy     :     0.008241


                      *****************************
                      * MAYER POPULATION ANALYSIS *
                      *****************************

  NA   - Mulliken gross atomic population
  ZA   - Total nuclear charge
  QA   - Mulliken gross atomic charge
  VA   - Mayer's total valence
  BVA  - Mayer's bonded valence
  FA   - Mayer's free valence

  ATOM       NA         ZA         QA         VA         BVA        FA
  0 C      6.2957     6.0000    -0.2957     3.8831     3.8831     0.0000
  1 C      5.9431     6.0000     0.0569     3.8530     3.8530     0.0000
  2 O      8.3546     8.0000    -0.3546     2.0587     2.0587     0.0000
  3 C      5.5320     6.0000     0.4680     4.1836     4.1836    -0.0000
  4 O      8.4081     8.0000    -0.4081     2.1072     2.1072    -0.0000
  5 C      6.1818     6.0000    -0.1818     3.6410     3.6410     0.0000
  6 C      5.8666     6.0000     0.1334     3.8423     3.8423    -0.0000
  7 C      6.2922     6.0000    -0.2922     3.8791     3.8791    -0.0000
  8 N      7.1036     7.0000    -0.1036     3.3533     3.3533    -0.0000
  9 C      5.8006     6.0000     0.1994     4.1461     4.1461     0.0000
 10 S     16.4902    16.0000    -0.4902     1.6532     1.6532    -0.0000
 11 N      7.2107     7.0000    -0.2107     3.2028     3.2028     0.0000
 12 C      5.9655     6.0000     0.0345     3.9789     3.9789     0.0000
 13 C      5.9219     6.0000     0.0781     3.7729     3.7729     0.0000
 14 C      6.1882     6.0000    -0.1882     3.8845     3.8845     0.0000
 15 C      6.1159     6.0000    -0.1159     3.8200     3.8200    -0.0000
 16 C      6.2650     6.0000    -0.2650     3.7976     3.7976    -0.0000
 17 C      5.7145     6.0000     0.2855     3.8927     3.8927     0.0000
 18 O      8.3571     8.0000    -0.3571     2.1190     2.1190    -0.0000
 19 C      6.2228     6.0000    -0.2228     3.8403     3.8403     0.0000
 20 H      0.9072     1.0000     0.0928     0.9736     0.9736     0.0000
 21 H      0.8914     1.0000     0.1086     0.9823     0.9823    -0.0000
 22 H      0.8885     1.0000     0.1115     0.9858     0.9858     0.0000
 23 H      0.9085     1.0000     0.0915     0.9755     0.9755    -0.0000
 24 H      0.8970     1.0000     0.1030     0.9760     0.9760     0.0000
 25 H      0.8868     1.0000     0.1132     0.9901     0.9901    -0.0000
 26 H      0.8815     1.0000     0.1185     0.9747     0.9747     0.0000
 27 H      0.8624     1.0000     0.1376     0.9794     0.9794     0.0000
 28 H      0.7953     1.0000     0.2047     1.0169     1.0169    -0.0000
 29 H      0.8055     1.0000     0.1945     1.0188     1.0188     0.0000
 30 H      0.8486     1.0000     0.1514     0.9952     0.9952     0.0000
 31 H      0.8644     1.0000     0.1356     0.9901     0.9901     0.0000
 32 H      0.8529     1.0000     0.1471     0.9779     0.9779    -0.0000
 33 H      0.8716     1.0000     0.1284     0.9921     0.9921     0.0000
 34 H      0.7551     1.0000     0.2449     1.0069     1.0069    -0.0000
 35 H      0.8533     1.0000     0.1467     0.9934     0.9934    -0.0000

  Mayer bond orders larger than 0.100000
B(  0-C ,  1-C ) :   0.9672 B(  0-C , 20-H ) :   0.9769 B(  0-C , 21-H ) :   0.9768 
B(  0-C , 22-H ) :   0.9798 B(  1-C ,  2-O ) :   0.8965 B(  1-C , 23-H ) :   0.9802 
B(  1-C , 24-H ) :   0.9750 B(  2-O ,  3-C ) :   1.1634 B(  3-C ,  4-O ) :   1.9941 
B(  3-C ,  5-C ) :   1.0245 B(  5-C ,  6-C ) :   1.6655 B(  5-C , 12-C ) :   0.9937 
B(  6-C ,  7-C ) :   0.9550 B(  6-C ,  8-N ) :   1.1004 B(  7-C , 25-H ) :   0.9908 
B(  7-C , 26-H ) :   0.9643 B(  7-C , 27-H ) :   0.9603 B(  8-N ,  9-C ) :   1.2879 
B(  8-N , 28-H ) :   0.9418 B(  9-C , 10-S ) :   1.5040 B(  9-C , 11-N ) :   1.2875 
B( 11-N , 12-C ) :   0.9326 B( 11-N , 29-H ) :   0.9572 B( 12-C , 13-C ) :   1.0014 
B( 12-C , 30-H ) :   0.9729 B( 13-C , 14-C ) :   1.3779 B( 13-C , 19-C ) :   1.3569 
B( 14-C , 15-C ) :   1.3896 B( 14-C , 31-H ) :   0.9754 B( 15-C , 16-C ) :   1.3743 
B( 15-C , 32-H ) :   0.9750 B( 16-C , 17-C ) :   1.3253 B( 16-C , 33-H ) :   0.9858 
B( 17-C , 18-O ) :   1.1073 B( 17-C , 19-C ) :   1.3888 B( 18-O , 34-H ) :   0.9774 
B( 19-C , 35-H ) :   0.9574 

-------
TIMINGS
-------

Total SCF time: 0 days 1 hours 51 min 7 sec 

Total time                  ....    6667.229 sec
Sum of individual times     ....    6659.934 sec  ( 99.9%)

Fock matrix formation       ....    6644.215 sec  ( 99.7%)
Diagonalization             ....       1.654 sec  (  0.0%)
Density matrix formation    ....       0.189 sec  (  0.0%)
Population analysis         ....       0.281 sec  (  0.0%)
Initial guess               ....       6.262 sec  (  0.1%)
Orbital Transformation      ....       0.000 sec  (  0.0%)
Orbital Orthonormalization  ....       0.000 sec  (  0.0%)
DIIS solution               ....       3.554 sec  (  0.1%)
SOSCF solution              ....       2.290 sec  (  0.0%)

Maximum memory used throughout the entire SCF-calculation: 717.4 MB

------------------------------------------------------------------------------
                                ORCA  MP2 
------------------------------------------------------------------------------

Freezing NCore=48 chemical core electrons

-------------
RI-MP2 ENERGY
-------------
Dimension of the basis                    ...  828
Memory devoted to MP2                     ...  256 MB   
Data format for buffers                   ... DOUBLE
Compression type for matrix containers    ... UNCOMPRESSED
Overall scaling of the MP2 energy         ...   1.000e+00
Calculating two index integrals           ... done (    0.048 sec)
Cholesky decomposition of V**-1           ... done (    0.570 sec)

-----------------
RI-TRANSFORMATION (AUX index driven)
-----------------

Dimension of the orbital-basis         ... 828
Dimension of the aux-basis             ... 2141
Transformation of internal/external MOs...   24-  76 to   77- 827
Number Format for Storage              ... Double (8 Byte)
Integral mode                          ... Direct

First Phase: integral generation and transformation of MO indices
  Aux angular momentum 0               ... done (    4.687 sec)
  Aux angular momentum 1               ... done (    8.082 sec)
  Aux angular momentum 2               ... done (    9.844 sec)
  Aux angular momentum 3               ... done (    8.129 sec)
  Aux angular momentum 4               ... done (    2.884 sec)
Closing buffer VIA ( 0.63 GB; CompressionRatio= 1.00)
  Phase 1 completed in    34.010 sec
Second Phase: sorting and transformation of aux index

IA-Transformation
Memory available                       ... 158 MB 
Max. # MO pairs treated in a batch     ... 11    
# of internal orbitals                 ... 53
# batches for internal orbitals        ... 5
Closing buffer IAV ( 0.63 GB; CompressionRatio= 1.00)
(ia|v) transformation done in    29.189 sec

  Phase 2 completed in    29.197 sec
RI-Integral transformation completed in    63.225 sec
Opening buffers                              ... done

Starting loop over batches of integrals:

Operator 0  - window                       ... ( 24- 76)x( 77-827)
Operator 0  - Memory available             ...   256 MB
Operator 0  - Memory needed per MO         ...  12.3 MB
Operator 0  - Number of orbitals per batch ... 13
Operator 0  - Number of batches            ... 5

OPERATOR  0   PASS   0:  MOs    24 ...   36
  Reading integrals       ... ok
  Internal MO  26
  Internal MO  29
  Internal MO  32
  Internal MO  35
OPERATOR  0   PASS   1:  MOs    37 ...   49
  Reading integrals       ... ok
  Internal MO  38
  Internal MO  41
  Internal MO  44
  Internal MO  47
OPERATOR  0   PASS   2:  MOs    50 ...   62
  Reading integrals       ... ok
  Internal MO  50
  Internal MO  53
  Internal MO  56
  Internal MO  59
  Internal MO  62
OPERATOR  0   PASS   3:  MOs    63 ...   75
  Reading integrals       ... ok
  Internal MO  65
  Internal MO  68
  Internal MO  71
  Internal MO  74
OPERATOR  0   PASS   4:  MOs    76 ...   76
  Reading integrals       ... ok
Time spent in pair loops =    91.647 sec
Deleting buffer (Ka|jb)[aa] ...done

-----------------------------------------------
 RI-MP2 CORRELATION ENERGY:     -3.534566791 Eh
-----------------------------------------------


-------
TIMINGS
-------

Total time                :  155.588 sec
Integral trafo            :   63.245 sec ( 40.6%)
I/O of integrals          :    5.872 sec (  3.8%)
K(i,j) Operators          :   58.963 sec ( 37.9%)
T(i,j) pair energies      :    7.946 sec (  5.1%)
V-calculation             :    0.048 sec (  0.0%)
V**(-1/2)                 :    0.570 sec (  0.4%)
Gamma(ia|P)               :    0.000 sec (  0.0%)
Gamma-Trafo               :    0.000 sec (  0.0%)
D(virtual)                :    0.000 sec (  0.0%)
D(internal)               :    0.000 sec (  0.0%)
W(virtual)                :    0.000 sec (  0.0%)
W(internal)               :    0.000 sec (  0.0%)
L(virtual)                :    0.000 sec (  0.0%)
L(internal)               :    0.000 sec (  0.0%)
G(D)                      :    0.000 sec (  0.0%)
G(Z)                      :    0.000 sec (  0.0%)
Z-Vector Solution         :    0.000 sec (  0.0%)
3-Index Derivative        :    0.000 sec (  0.0%)
2-Index Derivative        :    0.000 sec (  0.0%)
Separable Gradient        :    0.000 sec (  0.0%)


---------------------------------------
MP2 TOTAL ENERGY:    -1274.306533118 Eh
---------------------------------------

Maximum memory used throughout the entire MP2-calculation: 302.7 MB

-------------------------   --------------------
FINAL SINGLE POINT ENERGY     -1274.306533118025
-------------------------   --------------------


                            ***************************************
                            *     ORCA property calculations      *
                            ***************************************


  WARNING: The energy has been calculated at the MP2 level but the densities
           used in the property calculations are still SCF densities
           MP2 response densities have not been calculated 
           use %mp2 Density relaxed end
           or  %mp2 Density unrelaxed end

                                    ---------------------
                                    Active property flags
                                    ---------------------
   (+) Dipole Moment


------------------------------------------------------------------------------
                       ORCA ELECTRIC PROPERTIES CALCULATION
------------------------------------------------------------------------------

Dipole Moment Calculation                       ... on
Quadrupole Moment Calculation                   ... off
Polarizability Calculation                      ... off
GBWName                                         ... qm_input.vacu.gbw
Electron density file                           ... qm_input.vacu.scfp
The origin for moment calculation is the CENTER OF MASS  = (-12.078373, 27.513384  7.322089)

-------------
DIPOLE MOMENT
-------------
                                X             Y             Z
Electronic contribution:    -11.51042       3.56305     -11.14770
Nuclear contribution   :     12.65683      -4.81612      12.41166
                        -----------------------------------------
Total Dipole Moment    :      1.14642      -1.25307       1.26395
                        -----------------------------------------
Magnitude (a.u.)       :      2.11708
Magnitude (Debye)      :      5.38120



--------------------
Rotational spectrum 
--------------------
 
Rotational constants in cm-1:     0.011151     0.008114     0.005601 
Rotational constants in MHz :   334.313254   243.247669   167.899404 

 Dipole components along the rotational axes: 
x,y,z [a.u.] :    -1.573364    -1.286403    -0.593071 
x,y,z [Debye]:    -3.999175    -3.269776    -1.507467 

 

Timings for individual modules:

Sum of individual times         ...     6825.890 sec (= 113.765 min)
GTO integral calculation        ...        2.118 sec (=   0.035 min)   0.0 %
SCF iterations                  ...     6667.325 sec (= 111.122 min)  97.7 %
MP2 module                      ...      156.448 sec (=   2.607 min)   2.3 %
                             ****ORCA TERMINATED NORMALLY****
TOTAL RUN TIME: 0 days 1 hours 53 minutes 47 seconds 646 msec
