
                                        *****************
                                        * O   R   C   A *
                                        *****************

                                            #,                                       
                                            ###                                      
                                            ####                                     
                                            #####                                    
                                            ######                                   
                                           ########,                                 
                                     ,,################,,,,,                         
                               ,,#################################,,                 
                          ,,##########################################,,             
                       ,#########################################, ''#####,          
                    ,#############################################,,   '####,        
                  ,##################################################,,,,####,       
                ,###########''''           ''''###############################       
              ,#####''   ,,,,##########,,,,          '''####'''          '####       
            ,##' ,,,,###########################,,,                        '##       
           ' ,,###''''                  '''############,,,                           
         ,,##''                                '''############,,,,        ,,,,,,###''
      ,#''                                            '''#######################'''  
     '                                                          ''''####''''         
             ,#######,   #######,   ,#######,      ##                                
            ,#'     '#,  ##    ##  ,#'     '#,    #''#        ######   ,####,        
            ##       ##  ##   ,#'  ##            #'  '#       #        #'  '#        
            ##       ##  #######   ##           ,######,      #####,   #    #        
            '#,     ,#'  ##    ##  '#,     ,#' ,#      #,         ##   #,  ,#        
             '#######'   ##     ##  '#######'  #'      '#     #####' # '####'        



                  #######################################################
                  #                        -***-                        #
                  #          Department of theory and spectroscopy      #
                  #    Directorship and core code : Frank Neese         #
                  #        Max Planck Institute fuer Kohlenforschung    #
                  #                Kaiser Wilhelm Platz 1               #
                  #                 D-45470 Muelheim/Ruhr               #
                  #                      Germany                        #
                  #                                                     #
                  #                  All rights reserved                #
                  #                        -***-                        #
                  #######################################################


                         Program Version 5.0.0 -  RELEASE  -
                                (SVN: $Rev: 19529$)
                ($Date: 2021-06-28 11:36:33 +0200 (Mo, 28 Jun 2021) $)


 With contributions from (in alphabetic order):
   Daniel Aravena         : Magnetic Suceptibility
   Michael Atanasov       : Ab Initio Ligand Field Theory (pilot matlab implementation)
   Alexander A. Auer      : GIAO ZORA, VPT2 properties, NMR spectrum
   Ute Becker             : Parallelization
   Giovanni Bistoni       : ED, misc. LED, open-shell LED, HFLD
   Martin Brehm           : Molecular dynamics
   Dmytro Bykov           : SCF Hessian
   Vijay G. Chilkuri      : MRCI spin determinant printing, contributions to CSF-ICE
   Dipayan Datta          : RHF DLPNO-CCSD density
   Achintya Kumar Dutta   : EOM-CC, STEOM-CC
   Dmitry Ganyushin       : Spin-Orbit,Spin-Spin,Magnetic field MRCI
   Miquel Garcia          : C-PCM Hessian, Gaussian charge scheme
   Yang Guo               : DLPNO-NEVPT2, F12-NEVPT2, CIM, IAO-localization
   Andreas Hansen         : Spin unrestricted coupled pair/coupled cluster methods
   Benjamin Helmich-Paris : MC-RPA, TRAH-SCF, COSX integrals
   Lee Huntington         : MR-EOM, pCC
   Robert Izsak           : Overlap fitted RIJCOSX, COSX-SCS-MP3, EOM
   Marcus Kettner         : VPT2
   Christian Kollmar      : KDIIS, OOCD, Brueckner-CCSD(T), CCSD density, CASPT2, CASPT2-K
   Simone Kossmann        : Meta GGA functionals, TD-DFT gradient, OOMP2, MP2 Hessian
   Martin Krupicka        : Initial AUTO-CI
   Lucas Lang             : DCDCAS
   Marvin Lechner         : AUTO-CI (C++ implementation), FIC-MRCC
   Dagmar Lenk            : GEPOL surface, SMD
   Dimitrios Liakos       : Extrapolation schemes; Compound Job, initial MDCI parallelization
   Dimitrios Manganas     : Further ROCIS development; embedding schemes
   Dimitrios Pantazis     : SARC Basis sets
   Anastasios Papadopoulos: AUTO-CI, single reference methods and gradients
   Taras Petrenko         : DFT Hessian,TD-DFT gradient, ASA, ECA, R-Raman, ABS, FL, XAS/XES, NRVS
   Peter Pinski           : DLPNO-MP2, DLPNO-MP2 Gradient
   Christoph Reimann      : Effective Core Potentials
   Marius Retegan         : Local ZFS, SOC
   Christoph Riplinger    : Optimizer, TS searches, QM/MM, DLPNO-CCSD(T), (RO)-DLPNO pert. Triples
   Tobias Risthaus        : Range-separated hybrids, TD-DFT gradient, RPA, STAB
   Michael Roemelt        : Original ROCIS implementation
   Masaaki Saitow         : Open-shell DLPNO-CCSD energy and density
   Barbara Sandhoefer     : DKH picture change effects
   Avijit Sen             : IP-ROCIS
   Kantharuban Sivalingam : CASSCF convergence, NEVPT2, FIC-MRCI
   Bernardo de Souza      : ESD, SOC TD-DFT
   Georgi Stoychev        : AutoAux, RI-MP2 NMR
   Willem Van den Heuvel  : Paramagnetic NMR
   Boris Wezisla          : Elementary symmetry handling
   Frank Wennmohs         : Technical directorship


 We gratefully acknowledge several colleagues who have allowed us to
 interface, adapt or use parts of their codes:
   Stefan Grimme, W. Hujo, H. Kruse, P. Pracht,  : VdW corrections, initial TS optimization,
                  C. Bannwarth, S. Ehlert          DFT functionals, gCP, sTDA/sTD-DF
   Ed Valeev, F. Pavosevic, A. Kumar             : LibInt (2-el integral package), F12 methods
   Garnet Chan, S. Sharma, J. Yang, R. Olivares  : DMRG
   Ulf Ekstrom                                   : XCFun DFT Library
   Mihaly Kallay                                 : mrcc  (arbitrary order and MRCC methods)
   Jiri Pittner, Ondrej Demel                    : Mk-CCSD
   Frank Weinhold                                : gennbo (NPA and NBO analysis)
   Christopher J. Cramer and Donald G. Truhlar   : smd solvation model
   Lars Goerigk                                  : TD-DFT with DH, B97 family of functionals
   V. Asgeirsson, H. Jonsson                     : NEB implementation
   FAccTs GmbH                                   : IRC, NEB, NEB-TS, DLPNO-Multilevel, CI-OPT
                                                   MM, QMMM, 2- and 3-layer-ONIOM, Crystal-QMMM,
                                                   LR-CPCM, SF, NACMEs, symmetry and pop. for TD-DFT,
                                                   nearIR, NL-DFT gradient (VV10), updates on ESD,
                                                   ML-optimized integration grids
   S Lehtola, MJT Oliveira, MAL Marques          : LibXC Library
   Liviu Ungur et al                             : ANISO software


 Your calculation uses the libint2 library for the computation of 2-el integrals
 For citations please refer to: http://libint.valeyev.net

 Your ORCA version has been built with support for libXC version: 5.1.0
 For citations please refer to: https://tddft.org/programs/libxc/

 This ORCA versions uses:
   CBLAS   interface :  Fast vector & matrix operations
   LAPACKE interface :  Fast linear algebra routines
   SCALAPACK package :  Parallel linear algebra routines
   Shared memory     :  Shared parallel matrices
   BLAS/LAPACK       :  OpenBLAS 0.3.15  USE64BITINT DYNAMIC_ARCH NO_AFFINITY SkylakeX SINGLE_THREADED
        Core in use  :  SkylakeX
   Copyright (c) 2011-2014, The OpenBLAS Project


================================================================================

----- Orbital basis set information -----
Your calculation utilizes the basis: cc-pVTZ 
       H, B-Ne : Obtained from the ccRepo (grant-hill.group.shef.ac.uk/ccrepo) Feb. 2017
                 T. H. Dunning, Jr., J. Chem. Phys. 90, 1007 (1989)
            He : Obtained from the ccRepo (grant-hill.group.shef.ac.uk/ccrepo) Feb. 2017
                 D. E. Woon, T. H. Dunning, Jr., J. Chem. Phys. 100, 2975 (1994)
  Li-Be, Na-Mg : Obtained from the ccRepo (grant-hill.group.shef.ac.uk/ccrepo) Feb. 2017
                 B. P. Prascher, D. E. Woon, K. A. Peterson, T. H. Dunning, Jr., A. K. Wilson, Theor. Chem. Acc. 128, 69 (2011)
         Al-Ar : Obtained from the ccRepo (grant-hill.group.shef.ac.uk/ccrepo) Feb. 2017
                 D. E. Woon, T. H. Dunning, Jr., J. Chem. Phys. 98, 1358 (1993)
            Ca : Obtained from the Peterson Research Group Website (tyr0.chem.wsu.edu/~kipeters) Feb. 2017
                 J. Koput, K. A. Peterson, J. Phys. Chem. 106, 9595 (2002)
         Sc-Zn : Obtained from the ccRepo (grant-hill.group.shef.ac.uk/ccrepo) Feb. 2017
                 N. B. Balabanov, K. A. Peterson, J. Chem. Phys. 123, 064107 (2005)
                 N. B. Balabanov, K. A. Peterson, J. Chem. Phys. 125, 074110 (2006)
         Ga-Kr : Obtained from the ccRepo (grant-hill.group.shef.ac.uk/ccrepo) Feb. 2017
                 A. K. Wilson, D. E. Woon, K. A. Peterson, T. H. Dunning, Jr., J. Chem. Phys. 110, 7667 (1999)
             Y : Obtained from the ccRepo (grant-hill.group.shef.ac.uk/ccrepo) Feb. 2017
                 K. A. Peterson, D. Figgen, M. Dolg, H. Stoll, J. Chem. Phys. 126, 124101 (2007)
        Ag, Au : Obtained from the Peterson Research Group Website (tyr0.chem.wsu.edu/~kipeters) Feb. 2017
                 K. A. Peterson, C. Puzzarini, Theor. Chem. Acc. 114, 283 (2005)

----- AuxC basis set information -----
Your calculation utilizes the auxiliary basis: cc-pVTZ/C 
  Obtained from the EMSL Basis Set Exchange (bse.pnl.gov) Feb. 2017
  H-He, B-F, Al-Ar, Ga-Kr : F. Weigend, A. Kohn, C. Hattig, J. Chem. Phys. 116, 3175 (2002)
             Li-Be, Na-Mg : C. Haettig, Phys. Chem. Chem. Phys. 7, 59 (2005)
                       Ne : C. Haettig, Phys. Chem. Chem. Phys. 7, 59 (2005)
                            F. Weigend, A. Kohn, C. Hattig, J. Chem. Phys. 116, 3175 (2002)
                    Sc-Zn : J. G. Hill, J. A. Platts, J. Chem. Phys. 128, 044104 (2008)

================================================================================
                                        WARNINGS
                       Please study these warnings very carefully!
================================================================================


WARNING: No MP2 level density has been requested!
         To caclulate MP2 level properties use
         %mp2 Density relaxed end
         or
         %mp2 Density unrelaxed end

WARNING: Post HF methods need fully converged wavefunctions
  ===> : Setting SCFConvForced true
         You can overwrite this default with %scf ConvForced false 


INFO   : the flag for use of the SHARK integral package has been found!

================================================================================
                                       INPUT FILE
================================================================================
NAME = qm_input.solv
|  1> ! RI-MP2 cc-pVTZ cc-pVTZ/c TightSCF KeepDens NoKeepInts
|  2> 
|  3> %pointcharges "srfp_output"
|  4> 
|  5> *xyz  0  1
|  6>     C     0.3909917   19.3934664   -8.0012026
|  7>     C     1.8732592   19.8186723   -8.1491515
|  8>     O     2.7040227   19.5539232   -7.0303519
|  9>     C     2.8914408   18.3455677   -6.4073094
| 10>     O     2.4012378   17.3178365   -6.8585897
| 11>     C     3.6577103   18.4255507   -5.1711353
| 12>     C     3.7236663   17.3197992   -4.3435440
| 13>     C     3.0260292   15.9787075   -4.4904619
| 14>     N     4.3869211   17.4951421   -3.1097711
| 15>     C     5.0265737   18.5786919   -2.5932458
| 16>     S     5.7432793   18.5812106   -1.1120737
| 17>     N     4.9776716   19.6505979   -3.3995137
| 18>     C     4.3624456   19.7246381   -4.7145079
| 19>     C     5.3537007   20.1615973   -5.8241236
| 20>     C     5.0378915   21.3171899   -6.6081738
| 21>     C     5.9947158   21.8053523   -7.4958918
| 22>     C     7.1867234   21.0986715   -7.7063392
| 23>     C     7.4939096   19.9843665   -6.8876599
| 24>     O     8.6451593   19.3110869   -7.1997567
| 25>     C     6.5435201   19.4971325   -6.0006639
| 26>     H    -0.0886053   19.6638788   -7.0524924
| 27>     H     0.2445885   18.3297504   -8.2253989
| 28>     H    -0.2532314   19.8368996   -8.7703210
| 29>     H     2.2648575   19.3328023   -9.0512439
| 30>     H     1.9844801   20.9055160   -8.2470900
| 31>     H     3.2821592   15.2194253   -3.7414067
| 32>     H     3.2118777   15.5177976   -5.4683228
| 33>     H     1.9417491   16.0644993   -4.3484247
| 34>     H     4.6363865   16.7257479   -2.5000431
| 35>     H     5.4308150   20.4612344   -2.9951657
| 36>     H     3.5572548   20.4694671   -4.7051774
| 37>     H     4.1246023   21.8711368   -6.4121038
| 38>     H     5.7988216   22.6776598   -8.1124150
| 39>     H     7.9635085   21.4935792   -8.3544510
| 40>     H     8.7085593   18.4728513   -6.7097867
| 41>     H     6.6884196   18.6530809   -5.3328425
| 42> *
| 43> 
| 44>                          ****END OF INPUT****
================================================================================

                       ****************************
                       * Single Point Calculation *
                       ****************************

---------------------------------
CARTESIAN COORDINATES (ANGSTROEM)
---------------------------------
  C      0.390992   19.393466   -8.001203
  C      1.873259   19.818672   -8.149152
  O      2.704023   19.553923   -7.030352
  C      2.891441   18.345568   -6.407309
  O      2.401238   17.317836   -6.858590
  C      3.657710   18.425551   -5.171135
  C      3.723666   17.319799   -4.343544
  C      3.026029   15.978707   -4.490462
  N      4.386921   17.495142   -3.109771
  C      5.026574   18.578692   -2.593246
  S      5.743279   18.581211   -1.112074
  N      4.977672   19.650598   -3.399514
  C      4.362446   19.724638   -4.714508
  C      5.353701   20.161597   -5.824124
  C      5.037891   21.317190   -6.608174
  C      5.994716   21.805352   -7.495892
  C      7.186723   21.098671   -7.706339
  C      7.493910   19.984367   -6.887660
  O      8.645159   19.311087   -7.199757
  C      6.543520   19.497132   -6.000664
  H     -0.088605   19.663879   -7.052492
  H      0.244588   18.329750   -8.225399
  H     -0.253231   19.836900   -8.770321
  H      2.264857   19.332802   -9.051244
  H      1.984480   20.905516   -8.247090
  H      3.282159   15.219425   -3.741407
  H      3.211878   15.517798   -5.468323
  H      1.941749   16.064499   -4.348425
  H      4.636386   16.725748   -2.500043
  H      5.430815   20.461234   -2.995166
  H      3.557255   20.469467   -4.705177
  H      4.124602   21.871137   -6.412104
  H      5.798822   22.677660   -8.112415
  H      7.963508   21.493579   -8.354451
  H      8.708559   18.472851   -6.709787
  H      6.688420   18.653081   -5.332842

----------------------------
CARTESIAN COORDINATES (A.U.)
----------------------------
  NO LB      ZA    FRAG     MASS         X           Y           Z
   0 C     6.0000    0    12.011    0.738867   36.648340  -15.120082
   1 C     6.0000    0    12.011    3.539947   37.451863  -15.399665
   2 O     8.0000    0    15.999    5.109862   36.951560  -13.285440
   3 C     6.0000    0    12.011    5.464031   34.668099  -12.108060
   4 O     8.0000    0    15.999    4.537682   32.725968  -12.960856
   5 C     6.0000    0    12.011    6.912071   34.819245   -9.772030
   6 C     6.0000    0    12.011    7.036710   32.729677   -8.208109
   7 C     6.0000    0    12.011    5.718366   30.195381   -8.485743
   8 N     7.0000    0    14.007    8.290079   33.061027   -5.876616
   9 C     6.0000    0    12.011    9.498848   35.108640   -4.900524
  10 S    16.0000    0    32.060   10.853225   35.113399   -2.101515
  11 N     7.0000    0    14.007    9.406436   37.134248   -6.424150
  12 C     6.0000    0    12.011    8.243827   37.274164   -8.909129
  13 C     6.0000    0    12.011   10.117028   38.099897  -11.005999
  14 C     6.0000    0    12.011    9.520235   40.283651  -12.487639
  15 C     6.0000    0    12.011   11.328371   41.206144  -14.165183
  16 C     6.0000    0    12.011   13.580939   39.870711  -14.562871
  17 C     6.0000    0    12.011   14.161437   37.764980  -13.015791
  18 O     8.0000    0    15.999   16.336983   36.492666  -13.605568
  19 C     6.0000    0    12.011   12.365461   36.844241  -11.339611
  20 H     1.0000    0     1.008   -0.167440   37.159346  -13.327279
  21 H     1.0000    0     1.008    0.462205   34.638208  -15.543751
  22 H     1.0000    0     1.008   -0.478538   37.486308  -16.573505
  23 H     1.0000    0     1.008    4.279960   36.533702  -17.104372
  24 H     1.0000    0     1.008    3.750124   39.505700  -15.584742
  25 H     1.0000    0     1.008    6.202382   28.760546   -7.070234
  26 H     1.0000    0     1.008    6.069569   29.324388  -10.333633
  27 H     1.0000    0     1.008    3.669374   30.357504   -8.217332
  28 H     1.0000    0     1.008    8.761501   31.607083   -4.724397
  29 H     1.0000    0     1.008   10.262753   38.666129   -5.660043
  30 H     1.0000    0     1.008    6.722237   38.681687   -8.891497
  31 H     1.0000    0     1.008    7.794369   41.330459  -12.117120
  32 H     1.0000    0     1.008   10.958185   42.854566  -15.330243
  33 H     1.0000    0     1.008   15.048850   40.616978  -15.787624
  34 H     1.0000    0     1.008   16.456792   34.908630  -12.679659
  35 H     1.0000    0     1.008   12.639281   35.249214  -10.077612

--------------------------------
INTERNAL COORDINATES (ANGSTROEM)
--------------------------------
 C      0   0   0     0.000000000000     0.00000000     0.00000000
 C      1   0   0     1.549130683952     0.00000000     0.00000000
 O      2   1   0     1.418440208061   115.71201613     0.00000000
 C      3   2   1     1.372381330168   127.04250982    54.68579129
 O      4   3   2     1.224820113254   121.12283605     5.82109953
 C      4   3   2     1.456603114246   114.12811125   188.20283869
 C      6   4   3     1.382730607719   119.28321868   169.38879743
 C      7   6   4     1.518818402722   128.77800879   356.32285695
 N      7   6   4     1.411682553224   116.49842415   185.12563285
 C      9   7   6     1.360159550680   130.67707253   357.64382166
 S     10   9   7     1.645461652771   123.22260044   179.82128080
 N     10   9   7     1.342178011588   113.01418250     1.61331477
 C     12  10   9     1.453683159538   126.83417679   358.33287813
 C     13  12  10     1.550731123511   113.02293921   237.37704041
 C     14  13  12     1.431734760387   118.57310981   236.78205873
 C     15  14  13     1.393505836862   118.69508097   172.52207004
 C     16  15  14     1.401630471884   120.19647577     6.14166580
 C     17  16  15     1.416430298583   119.62352403   351.71630069
 O     18  17  16     1.369702779473   115.93104565   176.99797769
 C     14  13  12     1.374172533774   120.60654022    53.24728785
 H      1   2   3     1.096898897833   115.67680094    45.60524027
 H      1   2   3     1.096899998432   111.98510431   277.15311273
 H      1   2   3     1.096904516653   112.58382498   165.63100773
 H      2   1   3     1.096899987966   107.37101731   124.45015051
 H      2   1   3     1.096900755132   112.17954200   244.45627728
 H      8   7   6     1.096902789122   115.96966107   175.99317604
 H      8   7   6     1.096899968374   112.29858862    53.69066985
 H      8   7   6     1.096903885665   111.86718984   291.52611792
 H      9   7   6     1.012901108092   123.19326634   190.97980967
 H     12  10   9     1.012900676868   112.52272834   178.19607676
 H     13  12  10     1.096899959830   109.72818790   118.67974100
 H     15  14  13     1.086000817567   119.88946506     0.56514064
 H     16  15  14     1.085999893319   121.27684451   179.86736027
 H     17  16  15     1.086000040700   120.96828266   183.28568879
 H     19  18  17     0.973000042141   111.31502504   190.42560188
 H     20  14  13     1.086003863189   114.35153861     1.94438197

---------------------------
INTERNAL COORDINATES (A.U.)
---------------------------
 C      0   0   0     0.000000000000     0.00000000     0.00000000
 C      1   0   0     2.927432738324     0.00000000     0.00000000
 O      2   1   0     2.680463530577   115.71201613     0.00000000
 C      3   2   1     2.593424865324   127.04250982    54.68579129
 O      4   3   2     2.314574577368   121.12283605     5.82109953
 C      4   3   2     2.752580971741   114.12811125   188.20283869
 C      6   4   3     2.612982165580   119.28321868   169.38879743
 C      7   6   4     2.870150828303   128.77800879   356.32285695
 N      7   6   4     2.667693413629   116.49842415   185.12563285
 C      9   7   6     2.570329049223   130.67707253   357.64382166
 S     10   9   7     3.109471887606   123.22260044   179.82128080
 N     10   9   7     2.536348864873   113.01418250     1.61331477
 C     12  10   9     2.747063057021   126.83417679   358.33287813
 C     13  12  10     2.930457130785   113.02293921   237.37704041
 C     14  13  12     2.705586593546   118.57310981   236.78205873
 C     15  14  13     2.633344397690   118.69508097   172.52207004
 C     16  15  14     2.648697732819   120.19647577     6.14166580
 C     17  16  15     2.676665352110   119.62352403   351.71630069
 O     18  17  16     2.588363138075   115.93104565   176.99797769
 C     14  13  12     2.596809749590   120.60654022    53.24728785
 H      1   2   3     2.072838513504   115.67680094    45.60524027
 H      1   2   3     2.072840593335   111.98510431   277.15311273
 H      1   2   3     2.072849131536   112.58382498   165.63100773
 H      2   1   3     2.072840573558   107.37101731   124.45015051
 H      2   1   3     2.072842023291   112.17954200   244.45627728
 H      8   7   6     2.072845866975   115.96966107   175.99317604
 H      8   7   6     2.072840536534   112.29858862    53.69066985
 H      8   7   6     2.072847939141   111.86718984   291.52611792
 H      9   7   6     1.914105695040   123.19326634   190.97980967
 H     12  10   9     1.914104880144   112.52272834   178.19607676
 H     13  12  10     2.072840520389   109.72818790   118.67974100
 H     15  14  13     2.052244126416   119.88946506     0.56514064
 H     16  15  14     2.052242379840   121.27684451   179.86736027
 H     17  16  15     2.052242658350   120.96828266   183.28568879
 H     19  18  17     1.838703607941   111.31502504   190.42560188
 H     20  14  13     2.052249881807   114.35153861     1.94438197

---------------------
BASIS SET INFORMATION
---------------------
There are 5 groups of distinct atoms

 Group   1 Type C   : 18s5p2d1f contracted to 4s3p2d1f pattern {8811/311/11/1}
 Group   2 Type O   : 18s5p2d1f contracted to 4s3p2d1f pattern {8811/311/11/1}
 Group   3 Type N   : 18s5p2d1f contracted to 4s3p2d1f pattern {8811/311/11/1}
 Group   4 Type S   : 41s16p2d1f contracted to 5s4p2d1f pattern {13131311/7711/11/1}
 Group   5 Type H   : 5s2p1d contracted to 3s2p1d pattern {311/11/1}

Atom   0C    basis set group =>   1
Atom   1C    basis set group =>   1
Atom   2O    basis set group =>   2
Atom   3C    basis set group =>   1
Atom   4O    basis set group =>   2
Atom   5C    basis set group =>   1
Atom   6C    basis set group =>   1
Atom   7C    basis set group =>   1
Atom   8N    basis set group =>   3
Atom   9C    basis set group =>   1
Atom  10S    basis set group =>   4
Atom  11N    basis set group =>   3
Atom  12C    basis set group =>   1
Atom  13C    basis set group =>   1
Atom  14C    basis set group =>   1
Atom  15C    basis set group =>   1
Atom  16C    basis set group =>   1
Atom  17C    basis set group =>   1
Atom  18O    basis set group =>   2
Atom  19C    basis set group =>   1
Atom  20H    basis set group =>   5
Atom  21H    basis set group =>   5
Atom  22H    basis set group =>   5
Atom  23H    basis set group =>   5
Atom  24H    basis set group =>   5
Atom  25H    basis set group =>   5
Atom  26H    basis set group =>   5
Atom  27H    basis set group =>   5
Atom  28H    basis set group =>   5
Atom  29H    basis set group =>   5
Atom  30H    basis set group =>   5
Atom  31H    basis set group =>   5
Atom  32H    basis set group =>   5
Atom  33H    basis set group =>   5
Atom  34H    basis set group =>   5
Atom  35H    basis set group =>   5
---------------------------------
AUXILIARY/C BASIS SET INFORMATION
---------------------------------
There are 5 groups of distinct atoms

 Group   1 Type C   : 8s6p5d3f1g contracted to 8s6p5d3f1g pattern {11111111/111111/11111/111/1}
 Group   2 Type O   : 8s6p5d3f1g contracted to 8s6p5d3f1g pattern {11111111/111111/11111/111/1}
 Group   3 Type N   : 8s6p5d3f1g contracted to 8s6p5d3f1g pattern {11111111/111111/11111/111/1}
 Group   4 Type S   : 10s8p7d5f2g contracted to 10s8p7d5f2g pattern {1111111111/11111111/1111111/11111/11}
 Group   5 Type H   : 4s3p2d1f contracted to 4s3p2d1f pattern {1111/111/11/1}

Atom   0C    basis set group =>   1
Atom   1C    basis set group =>   1
Atom   2O    basis set group =>   2
Atom   3C    basis set group =>   1
Atom   4O    basis set group =>   2
Atom   5C    basis set group =>   1
Atom   6C    basis set group =>   1
Atom   7C    basis set group =>   1
Atom   8N    basis set group =>   3
Atom   9C    basis set group =>   1
Atom  10S    basis set group =>   4
Atom  11N    basis set group =>   3
Atom  12C    basis set group =>   1
Atom  13C    basis set group =>   1
Atom  14C    basis set group =>   1
Atom  15C    basis set group =>   1
Atom  16C    basis set group =>   1
Atom  17C    basis set group =>   1
Atom  18O    basis set group =>   2
Atom  19C    basis set group =>   1
Atom  20H    basis set group =>   5
Atom  21H    basis set group =>   5
Atom  22H    basis set group =>   5
Atom  23H    basis set group =>   5
Atom  24H    basis set group =>   5
Atom  25H    basis set group =>   5
Atom  26H    basis set group =>   5
Atom  27H    basis set group =>   5
Atom  28H    basis set group =>   5
Atom  29H    basis set group =>   5
Atom  30H    basis set group =>   5
Atom  31H    basis set group =>   5
Atom  32H    basis set group =>   5
Atom  33H    basis set group =>   5
Atom  34H    basis set group =>   5
Atom  35H    basis set group =>   5
------------------------------------------------------------------------------
                           ORCA GTO INTEGRAL CALCULATION
------------------------------------------------------------------------------
------------------------------------------------------------------------------
                   ___                                                        
                  /   \      - P O W E R E D   B Y -                         
                 /     \                                                     
                 |  |  |   _    _      __       _____    __    __             
                 |  |  |  | |  | |    /  \     |  _  \  |  |  /  |          
                  \  \/   | |  | |   /    \    | | | |  |  | /  /          
                 / \  \   | |__| |  /  /\  \   | |_| |  |  |/  /          
                |  |  |   |  __  | /  /__\  \  |    /   |      \           
                |  |  |   | |  | | |   __   |  |    \   |  |\   \          
                \     /   | |  | | |  |  |  |  | |\  \  |  | \   \       
                 \___/    |_|  |_| |__|  |__|  |_| \__\ |__|  \__/        
                                                                              
                      - O R C A' S   B I G   F R I E N D -                    
                                      &                                       
                       - I N T E G R A L  F E E D E R -                       
                                                                              
 v1 FN, 2020, v2 2021                                                         
------------------------------------------------------------------------------


Reading SHARK input file qm_input.solv.SHARKINP.tmp ... ok
----------------------
SHARK INTEGRAL PACKAGE
----------------------

Number of atoms                             ...     36
Number of basis functions                   ...    828
Number of shells                            ...    298
Maximum angular momentum                    ...      3
Integral batch strategy                     ... SHARK/LIBINT Hybrid
RI-J (if used) integral strategy            ... SPLIT-RIJ (Revised 2003 algorithm where possible)
Printlevel                                  ...      1
Contraction scheme used                     ... SEGMENTED contraction
Coulomb Range Separation                    ... NOT USED
Exchange Range Separation                   ... NOT USED
Finite Nucleus Model                        ... NOT USED
Auxiliary Coulomb fitting basis             ... NOT available
Auxiliary J/K fitting basis                 ... NOT available
Auxiliary Correlation fitting basis         ... AVAILABLE
   # of basis functions in Aux-C            ...   2141
   # of shells in Aux-C                     ...    629
   Maximum angular momentum in Aux-C        ...      4
Auxiliary 'external' fitting basis          ... NOT available
Integral threshold                          ...     2.500000e-11
Primitive cut-off                           ...     2.500000e-12
Primitive pair pre-selection threshold      ...     2.500000e-12

Calculating pre-screening integrals         ... done (  0.6 sec) Dimension = 298
Organizing shell pair data                  ... done (  0.4 sec)
Shell pair information
Total number of shell pairs                 ...     44551
Shell pairs after pre-screening             ...     32436
Total number of primitive shell pairs       ...    234348
Primitive shell pairs kept                  ...     93310
          la=0 lb=0:   6501 shell pairs
          la=1 lb=0:   9033 shell pairs
          la=1 lb=1:   3185 shell pairs
          la=2 lb=0:   5157 shell pairs
          la=2 lb=1:   3551 shell pairs
          la=2 lb=2:    999 shell pairs
          la=3 lb=0:   1877 shell pairs
          la=3 lb=1:   1281 shell pairs
          la=3 lb=2:    712 shell pairs
          la=3 lb=3:    140 shell pairs

Reading point charge file                   ... ok (45454 point charges)
Calculating one electron integrals          ... done (244.1 sec)
Calculating RI/C V-Matrix + Cholesky decomp.... done (  0.4 sec)
Calculating Nuclear repulsion               ... (+Point charges) done (  0.0 sec) ENN=   1768.880557178053 Eh

SHARK setup successfully completed in 245.8 seconds

Maximum memory used throughout the entire GTOINT-calculation: 481.0 MB
ENUC WAS=  0.000000000
ENUC IS =  0.000000000
-------------------------------------------------------------------------------
                                 ORCA SCF
-------------------------------------------------------------------------------

------------
SCF SETTINGS
------------
Hamiltonian:
 Ab initio Hamiltonian  Method          .... Hartree-Fock(GTOs)


General Settings:
 Integral files         IntName         .... qm_input.solv
 Hartree-Fock type      HFTyp           .... RHF
 Total Charge           Charge          ....    0
 Multiplicity           Mult            ....    1
 Number of Electrons    NEL             ....  154
 Basis Dimension        Dim             ....  828
 Nuclear Repulsion      ENuc            ....   1768.8805571781 Eh

Convergence Acceleration:
 DIIS                   CNVDIIS         .... on
   Start iteration      DIISMaxIt       ....    12
   Startup error        DIISStart       ....  0.200000
   # of expansion vecs  DIISMaxEq       ....     5
   Bias factor          DIISBfac        ....   1.050
   Max. coefficient     DIISMaxC        ....  10.000
 Trust-Rad. Augm. Hess. CNVTRAH         .... auto
   Auto Start mean grad. ratio tolernc. ....  1.125000
   Auto Start start iteration           ....    20
   Auto Start num. interpolation iter.  ....    10
   Max. Number of Micro iterations      ....    16
   Max. Number of Macro iterations      .... Maxiter - #DIIS iter
   Number of Davidson start vectors     ....     2
   Converg. threshold I  (grad. norm)   ....   1.000e-05
   Converg. threshold II (energy diff.) ....   1.000e-08
   Grad. Scal. Fac. for Micro threshold ....   0.100
   Minimum threshold for Micro iter.    ....   0.010
   NR start threshold (gradient norm)   ....   0.001
   Initial trust radius                 ....   0.400
   Minimum AH scaling param. (alpha)    ....   1.000
   Maximum AH scaling param. (alpha)    .... 1000.000
   Orbital update algorithm             .... Taylor
   White noise on init. David. guess    .... on
   Maximum white noise                  ....   0.010
   Quad. conv. algorithm                .... NR
 SOSCF                  CNVSOSCF        .... on
   Start iteration      SOSCFMaxIt      ....   150
   Startup grad/error   SOSCFStart      ....  0.003300
 Level Shifting         CNVShift        .... on
   Level shift para.    LevelShift      ....    0.2500
   Turn off err/grad.   ShiftErr        ....    0.0010
 Zerner damping         CNVZerner       .... off
 Static damping         CNVDamp         .... on
   Fraction old density DampFac         ....    0.7000
   Max. Damping (<1)    DampMax         ....    0.9800
   Min. Damping (>=0)   DampMin         ....    0.0000
   Turn off err/grad.   DampErr         ....    0.1000
 Fernandez-Rico         CNVRico         .... off

SCF Procedure:
 Maximum # iterations   MaxIter         ....   125
 SCF integral mode      SCFMode         .... Direct
   Integral package                     .... SHARK and LIBINT hybrid scheme
 Reset frequency        DirectResetFreq ....    20
 Integral Threshold     Thresh          ....  2.500e-11 Eh
 Primitive CutOff       TCut            ....  2.500e-12 Eh

Convergence Tolerance:
 Convergence Check Mode ConvCheckMode   .... Total+1el-Energy
 Convergence forced     ConvForced      .... 1
 Energy Change          TolE            ....  1.000e-08 Eh
 1-El. energy change                    ....  1.000e-05 Eh
 Orbital Gradient       TolG            ....  1.000e-05
 Orbital Rotation angle TolX            ....  1.000e-05
 DIIS Error             TolErr          ....  5.000e-07


Diagonalization of the overlap matrix:
Smallest eigenvalue                        ... 4.971e-05
Time for diagonalization                   ...    0.153 sec
Threshold for overlap eigenvalues          ... 1.000e-08
Number of eigenvalues below threshold      ... 0
Time for construction of square roots      ...    0.065 sec
Total time needed                          ...    0.222 sec

Time for model grid setup =    1.511 sec

------------------------------
INITIAL GUESS: MODEL POTENTIAL
------------------------------
Loading Hartree-Fock densities                     ... done
Calculating cut-offs                               ... done
Initializing the effective Hamiltonian             ... done
Setting up the integral package (SHARK)            ... done
Starting the Coulomb interaction                   ... done (   4.4 sec)
Reading the grid                                   ... done
Mapping shells                                     ... done
Starting the XC term evaluation                    ... done (   1.5 sec)
Transforming the Hamiltonian                       ... done (   0.1 sec)
Diagonalizing the Hamiltonian                      ... done (   0.2 sec)
Back transforming the eigenvectors                 ... done (   0.0 sec)
Now organizing SCF variables                       ... done
                      ------------------
                      INITIAL GUESS DONE (   7.7 sec)
                      ------------------
--------------
SCF ITERATIONS
--------------
ITER       Energy         Delta-E        Max-DP      RMS-DP      [F,P]     Damp
               ***  Starting incremental Fock matrix formation  ***
  0  -1270.0367535362   0.000000000000 0.07497305  0.00051324  0.3590963 0.7000
  1  -1270.3265173630  -0.289763826832 0.07026255  0.00042699  0.2071391 0.7000
                               ***Turning on DIIS***
  2  -1270.5059724110  -0.179455048022 0.03968606  0.00027857  0.1102975 0.7000
  3  -1272.5563582450  -2.050385833981 0.06426570  0.00056074  0.0842173 0.0000
  4  -1270.8381589335   1.718199311452 0.02165350  0.00011825  0.0071696 0.0000
  5  -1270.8963395386  -0.058180605082 0.00612760  0.00005836  0.0041710 0.0000
                      *** Initiating the SOSCF procedure ***
                           *** Shutting down DIIS ***
                      *** Re-Reading the Fockian *** 
                      *** Removing any level shift *** 
ITER      Energy       Delta-E        Grad      Rot      Max-DP    RMS-DP
  6  -1270.87693338   0.0194061585  0.001668  0.001668  0.002177  0.000029
               *** Restarting incremental Fock matrix formation ***
  7  -1270.89382594  -0.0168925639  0.001062  0.002686  0.001455  0.000018
  8  -1270.89388351  -0.0000575627  0.000484  0.003218  0.002195  0.000021
  9  -1270.89390629  -0.0000227797  0.000209  0.000360  0.000494  0.000005
 10  -1270.89390920  -0.0000029126  0.000045  0.000130  0.000185  0.000002
 11  -1270.89390953  -0.0000003311  0.000037  0.000221  0.000107  0.000001
 12  -1270.89390964  -0.0000001095  0.000012  0.000048  0.000039  0.000000
 13  -1270.89390965  -0.0000000091  0.000003  0.000008  0.000013  0.000000
                  ***Gradient check signals convergence***
              ***Rediagonalizing the Fockian in SOSCF/NRSCF***

               *****************************************************
               *                     SUCCESS                       *
               *           SCF CONVERGED AFTER  14 CYCLES          *
               *****************************************************


----------------
TOTAL SCF ENERGY
----------------

Total Energy       :        -1270.89390964 Eh          -34582.78144 eV

Components:
Nuclear Repulsion  :         1768.88055718 Eh           48133.68703 eV
Electronic Energy  :        -3039.77446682 Eh          -82716.46847 eV
One Electron Energy:        -5178.67661304 Eh         -140918.95482 eV
Two Electron Energy:         2138.90214622 Eh           58202.48636 eV

Virial components:
Potential Energy   :        -2539.94624790 Eh          -69115.45117 eV
Kinetic Energy     :         1269.05233826 Eh           34532.66973 eV
Virial Ratio       :            2.00145114


---------------
SCF CONVERGENCE
---------------

  Last Energy change         ...    6.7389e-09  Tolerance :   1.0000e-08
  Last MAX-Density change    ...    5.7492e-06  Tolerance :   1.0000e-07
  Last RMS-Density change    ...    4.1905e-08  Tolerance :   5.0000e-09
  Last Orbital Gradient      ...    1.4696e-06  Tolerance :   1.0000e-05
  Last Orbital Rotation      ...    2.7896e-06  Tolerance :   1.0000e-05

             **** THE GBW FILE WAS UPDATED (qm_input.solv.gbw) ****
             **** DENSITY qm_input.solv.scfp WAS UPDATED ****
             **** ENERGY FILE WAS UPDATED (qm_input.solv.en.tmp) ****
             **** THE GBW FILE WAS UPDATED (qm_input.solv.gbw) ****
             **** DENSITY qm_input.solv.scfp WAS UPDATED ****
----------------
ORBITAL ENERGIES
----------------

  NO   OCC          E(Eh)            E(eV) 
   0   2.0000     -92.426408     -2515.0504 
   1   2.0000     -21.121697      -574.7506 
   2   2.0000     -21.111556      -574.4746 
   3   2.0000     -21.075045      -573.4811 
   4   2.0000     -16.139870      -439.1882 
   5   2.0000     -16.130954      -438.9456 
   6   2.0000     -11.929467      -324.6173 
   7   2.0000     -11.910098      -324.0902 
   8   2.0000     -11.868651      -322.9624 
   9   2.0000     -11.837055      -322.1026 
  10   2.0000     -11.831683      -321.9565 
  11   2.0000     -11.813538      -321.4627 
  12   2.0000     -11.781591      -320.5934 
  13   2.0000     -11.779941      -320.5485 
  14   2.0000     -11.768769      -320.2445 
  15   2.0000     -11.762438      -320.0722 
  16   2.0000     -11.760175      -320.0106 
  17   2.0000     -11.759362      -319.9885 
  18   2.0000     -11.757923      -319.9493 
  19   2.0000     -11.737448      -319.3922 
  20   2.0000      -9.432940      -256.6833 
  21   2.0000      -7.114890      -193.6060 
  22   2.0000      -7.112765      -193.5482 
  23   2.0000      -7.112317      -193.5360 
  24   2.0000      -1.978925       -53.8493 
  25   2.0000      -1.925055       -52.3834 
  26   2.0000      -1.886991       -51.3476 
  27   2.0000      -1.868174       -50.8356 
  28   2.0000      -1.758086       -47.8399 
  29   2.0000      -1.683268       -45.8041 
  30   2.0000      -1.645714       -44.7822 
  31   2.0000      -1.563134       -42.5350 
  32   2.0000      -1.555798       -42.3354 
  33   2.0000      -1.536998       -41.8238 
  34   2.0000      -1.515607       -41.2418 
  35   2.0000      -1.511533       -41.1309 
  36   2.0000      -1.445511       -39.3343 
  37   2.0000      -1.424083       -38.7513 
  38   2.0000      -1.374633       -37.4057 
  39   2.0000      -1.366136       -37.1744 
  40   2.0000      -1.341693       -36.5093 
  41   2.0000      -1.336805       -36.3763 
  42   2.0000      -1.271473       -34.5985 
  43   2.0000      -1.259973       -34.2856 
  44   2.0000      -1.249187       -33.9921 
  45   2.0000      -1.214833       -33.0573 
  46   2.0000      -1.207612       -32.8608 
  47   2.0000      -1.195416       -32.5289 
  48   2.0000      -1.188328       -32.3361 
  49   2.0000      -1.183110       -32.1941 
  50   2.0000      -1.168264       -31.7901 
  51   2.0000      -1.163477       -31.6598 
  52   2.0000      -1.145384       -31.1675 
  53   2.0000      -1.132880       -30.8272 
  54   2.0000      -1.126226       -30.6462 
  55   2.0000      -1.119722       -30.4692 
  56   2.0000      -1.114745       -30.3338 
  57   2.0000      -1.101852       -29.9829 
  58   2.0000      -1.089617       -29.6500 
  59   2.0000      -1.080745       -29.4086 
  60   2.0000      -1.073837       -29.2206 
  61   2.0000      -1.061366       -28.8812 
  62   2.0000      -1.056736       -28.7553 
  63   2.0000      -1.054874       -28.7046 
  64   2.0000      -1.042722       -28.3739 
  65   2.0000      -1.035235       -28.1702 
  66   2.0000      -1.023375       -27.8474 
  67   2.0000      -1.018313       -27.7097 
  68   2.0000      -1.004147       -27.3242 
  69   2.0000      -0.985692       -26.8220 
  70   2.0000      -0.979539       -26.6546 
  71   2.0000      -0.973642       -26.4941 
  72   2.0000      -0.879416       -23.9301 
  73   2.0000      -0.875885       -23.8340 
  74   2.0000      -0.871182       -23.7061 
  75   2.0000      -0.852635       -23.2014 
  76   2.0000      -0.839977       -22.8569 
  77   0.0000      -0.456091       -12.4109 
  78   0.0000      -0.408308       -11.1106 
  79   0.0000      -0.387948       -10.5566 
  80   0.0000      -0.377490       -10.2720 
  81   0.0000      -0.363374        -9.8879 
  82   0.0000      -0.357422        -9.7259 
  83   0.0000      -0.351429        -9.5629 
  84   0.0000      -0.339807        -9.2466 
  85   0.0000      -0.331566        -9.0224 
  86   0.0000      -0.327441        -8.9101 
  87   0.0000      -0.324062        -8.8182 
  88   0.0000      -0.314460        -8.5569 
  89   0.0000      -0.305676        -8.3179 
  90   0.0000      -0.302324        -8.2267 
  91   0.0000      -0.299349        -8.1457 
  92   0.0000      -0.290755        -7.9118 
  93   0.0000      -0.286991        -7.8094 
  94   0.0000      -0.278552        -7.5798 
  95   0.0000      -0.272326        -7.4104 
  96   0.0000      -0.266452        -7.2505 
  97   0.0000      -0.259687        -7.0664 
  98   0.0000      -0.254437        -6.9236 
  99   0.0000      -0.238831        -6.4989 
 100   0.0000      -0.224026        -6.0961 
 101   0.0000      -0.211957        -5.7676 
 102   0.0000      -0.202655        -5.5145 
 103   0.0000      -0.190631        -5.1873 
 104   0.0000      -0.188855        -5.1390 
 105   0.0000      -0.184036        -5.0079 
 106   0.0000      -0.166842        -4.5400 
 107   0.0000      -0.165471        -4.5027 
 108   0.0000      -0.155017        -4.2182 
 109   0.0000      -0.150926        -4.1069 
 110   0.0000      -0.147128        -4.0036 
 111   0.0000      -0.141446        -3.8489 
 112   0.0000      -0.134696        -3.6653 
 113   0.0000      -0.131236        -3.5711 
 114   0.0000      -0.121177        -3.2974 
 115   0.0000      -0.114341        -3.1114 
 116   0.0000      -0.102378        -2.7859 
 117   0.0000      -0.098107        -2.6696 
 118   0.0000      -0.090428        -2.4607 
 119   0.0000      -0.084010        -2.2860 
 120   0.0000      -0.075845        -2.0639 
 121   0.0000      -0.073782        -2.0077 
 122   0.0000      -0.067280        -1.8308 
 123   0.0000      -0.065582        -1.7846 
 124   0.0000      -0.061441        -1.6719 
 125   0.0000      -0.058751        -1.5987 
 126   0.0000      -0.047182        -1.2839 
 127   0.0000      -0.041380        -1.1260 
 128   0.0000      -0.037359        -1.0166 
 129   0.0000      -0.027090        -0.7372 
 130   0.0000      -0.022392        -0.6093 
 131   0.0000      -0.021135        -0.5751 
 132   0.0000      -0.014492        -0.3943 
 133   0.0000      -0.000010        -0.0003 
 134   0.0000       0.003438         0.0935 
 135   0.0000       0.006427         0.1749 
 136   0.0000       0.014724         0.4007 
 137   0.0000       0.018782         0.5111 
 138   0.0000       0.022255         0.6056 
 139   0.0000       0.025492         0.6937 
 140   0.0000       0.031635         0.8608 
 141   0.0000       0.042018         1.1434 
 142   0.0000       0.049111         1.3364 
 143   0.0000       0.051120         1.3910 
 144   0.0000       0.060596         1.6489 
 145   0.0000       0.065013         1.7691 
 146   0.0000       0.066587         1.8119 
 147   0.0000       0.072884         1.9833 
 148   0.0000       0.078229         2.1287 
 149   0.0000       0.080824         2.1993 
 150   0.0000       0.083004         2.2587 
 151   0.0000       0.091418         2.4876 
 152   0.0000       0.098227         2.6729 
 153   0.0000       0.100093         2.7237 
 154   0.0000       0.106127         2.8879 
 155   0.0000       0.106231         2.8907 
 156   0.0000       0.109234         2.9724 
 157   0.0000       0.112526         3.0620 
 158   0.0000       0.114086         3.1044 
 159   0.0000       0.122878         3.3437 
 160   0.0000       0.129787         3.5317 
 161   0.0000       0.135137         3.6773 
 162   0.0000       0.136862         3.7242 
 163   0.0000       0.140908         3.8343 
 164   0.0000       0.146123         3.9762 
 165   0.0000       0.156945         4.2707 
 166   0.0000       0.169805         4.6206 
 167   0.0000       0.170932         4.6513 
 168   0.0000       0.172189         4.6855 
 169   0.0000       0.175946         4.7877 
 170   0.0000       0.185128         5.0376 
 171   0.0000       0.192108         5.2275 
 172   0.0000       0.197497         5.3742 
 173   0.0000       0.208232         5.6663 
 174   0.0000       0.214683         5.8418 
 175   0.0000       0.220383         5.9969 
 176   0.0000       0.223012         6.0685 
 177   0.0000       0.230535         6.2732 
 178   0.0000       0.233023         6.3409 
 179   0.0000       0.239361         6.5134 
 180   0.0000       0.241810         6.5800 
 181   0.0000       0.246852         6.7172 
 182   0.0000       0.251245         6.8367 
 183   0.0000       0.261283         7.1099 
 184   0.0000       0.271738         7.3944 
 185   0.0000       0.279212         7.5977 
 186   0.0000       0.283877         7.7247 
 187   0.0000       0.291550         7.9335 
 188   0.0000       0.303100         8.2478 
 189   0.0000       0.313424         8.5287 
 190   0.0000       0.320613         8.7243 
 191   0.0000       0.325281         8.8514 
 192   0.0000       0.334328         9.0975 
 193   0.0000       0.342246         9.3130 
 194   0.0000       0.349712         9.5161 
 195   0.0000       0.353460         9.6181 
 196   0.0000       0.357274         9.7219 
 197   0.0000       0.374664        10.1951 
 198   0.0000       0.378477        10.2989 
 199   0.0000       0.381174        10.3723 
 200   0.0000       0.387922        10.5559 
 201   0.0000       0.397804        10.8248 
 202   0.0000       0.405734        11.0406 
 203   0.0000       0.412265        11.2183 
 204   0.0000       0.420477        11.4418 
 205   0.0000       0.421811        11.4781 
 206   0.0000       0.433952        11.8084 
 207   0.0000       0.440566        11.9884 
 208   0.0000       0.449479        12.2309 
 209   0.0000       0.454192        12.3592 
 210   0.0000       0.457790        12.4571 
 211   0.0000       0.467878        12.7316 
 212   0.0000       0.473925        12.8962 
 213   0.0000       0.477763        13.0006 
 214   0.0000       0.486911        13.2495 
 215   0.0000       0.489192        13.3116 
 216   0.0000       0.498551        13.5663 
 217   0.0000       0.512090        13.9347 
 218   0.0000       0.515195        14.0192 
 219   0.0000       0.519397        14.1335 
 220   0.0000       0.533093        14.5062 
 221   0.0000       0.541369        14.7314 
 222   0.0000       0.551335        15.0026 
 223   0.0000       0.556224        15.1356 
 224   0.0000       0.563597        15.3363 
 225   0.0000       0.582814        15.8592 
 226   0.0000       0.584043        15.8926 
 227   0.0000       0.588001        16.0003 
 228   0.0000       0.595780        16.2120 
 229   0.0000       0.604682        16.4542 
 230   0.0000       0.612150        16.6574 
 231   0.0000       0.612555        16.6685 
 232   0.0000       0.620369        16.8811 
 233   0.0000       0.634598        17.2683 
 234   0.0000       0.637016        17.3341 
 235   0.0000       0.642121        17.4730 
 236   0.0000       0.652176        17.7466 
 237   0.0000       0.655387        17.8340 
 238   0.0000       0.661474        17.9996 
 239   0.0000       0.674518        18.3546 
 240   0.0000       0.676543        18.4097 
 241   0.0000       0.686658        18.6849 
 242   0.0000       0.689909        18.7734 
 243   0.0000       0.694944        18.9104 
 244   0.0000       0.703453        19.1419 
 245   0.0000       0.712087        19.3769 
 246   0.0000       0.721514        19.6334 
 247   0.0000       0.728605        19.8264 
 248   0.0000       0.732035        19.9197 
 249   0.0000       0.734885        19.9972 
 250   0.0000       0.744932        20.2706 
 251   0.0000       0.746425        20.3113 
 252   0.0000       0.757287        20.6068 
 253   0.0000       0.768040        20.8994 
 254   0.0000       0.779940        21.2232 
 255   0.0000       0.785704        21.3801 
 256   0.0000       0.790423        21.5085 
 257   0.0000       0.796160        21.6646 
 258   0.0000       0.808365        21.9967 
 259   0.0000       0.813568        22.1383 
 260   0.0000       0.821101        22.3433 
 261   0.0000       0.830792        22.6070 
 262   0.0000       0.832468        22.6526 
 263   0.0000       0.838242        22.8097 
 264   0.0000       0.857482        23.3333 
 265   0.0000       0.864145        23.5146 
 266   0.0000       0.871731        23.7210 
 267   0.0000       0.885968        24.1084 
 268   0.0000       0.894727        24.3467 
 269   0.0000       0.898412        24.4470 
 270   0.0000       0.899262        24.4702 
 271   0.0000       0.913709        24.8633 
 272   0.0000       0.913979        24.8706 
 273   0.0000       0.919751        25.0277 
 274   0.0000       0.931330        25.3428 
 275   0.0000       0.940833        25.6014 
 276   0.0000       0.950323        25.8596 
 277   0.0000       0.961330        26.1591 
 278   0.0000       0.964597        26.2480 
 279   0.0000       0.967709        26.3327 
 280   0.0000       0.983242        26.7554 
 281   0.0000       0.988229        26.8911 
 282   0.0000       0.992151        26.9978 
 283   0.0000       0.996739        27.1226 
 284   0.0000       0.999072        27.1861 
 285   0.0000       1.008627        27.4461 
 286   0.0000       1.017657        27.6918 
 287   0.0000       1.019500        27.7420 
 288   0.0000       1.024236        27.8709 
 289   0.0000       1.032779        28.1033 
 290   0.0000       1.040413        28.3111 
 291   0.0000       1.045696        28.4548 
 292   0.0000       1.051832        28.6218 
 293   0.0000       1.055485        28.7212 
 294   0.0000       1.071026        29.1441 
 295   0.0000       1.083905        29.4946 
 296   0.0000       1.086533        29.5661 
 297   0.0000       1.101751        29.9802 
 298   0.0000       1.104103        30.0442 
 299   0.0000       1.110297        30.2127 
 300   0.0000       1.112840        30.2819 
 301   0.0000       1.120909        30.5015 
 302   0.0000       1.122781        30.5524 
 303   0.0000       1.133123        30.8338 
 304   0.0000       1.153426        31.3863 
 305   0.0000       1.159477        31.5510 
 306   0.0000       1.171644        31.8820 
 307   0.0000       1.177079        32.0300 
 308   0.0000       1.188592        32.3432 
 309   0.0000       1.191367        32.4187 
 310   0.0000       1.201261        32.6880 
 311   0.0000       1.207643        32.8616 
 312   0.0000       1.213682        33.0260 
 313   0.0000       1.227847        33.4114 
 314   0.0000       1.239854        33.7381 
 315   0.0000       1.256413        34.1887 
 316   0.0000       1.257401        34.2156 
 317   0.0000       1.270228        34.5647 
 318   0.0000       1.278175        34.7809 
 319   0.0000       1.280615        34.8473 
 320   0.0000       1.291366        35.1399 
 321   0.0000       1.307625        35.5823 
 322   0.0000       1.316378        35.8205 
 323   0.0000       1.320142        35.9229 
 324   0.0000       1.331980        36.2450 
 325   0.0000       1.337987        36.4085 
 326   0.0000       1.341617        36.5073 
 327   0.0000       1.364257        37.1233 
 328   0.0000       1.368298        37.2333 
 329   0.0000       1.376319        37.4515 
 330   0.0000       1.388805        37.7913 
 331   0.0000       1.400810        38.1180 
 332   0.0000       1.402558        38.1655 
 333   0.0000       1.416473        38.5442 
 334   0.0000       1.424385        38.7595 
 335   0.0000       1.432282        38.9744 
 336   0.0000       1.435602        39.0647 
 337   0.0000       1.452505        39.5247 
 338   0.0000       1.461325        39.7647 
 339   0.0000       1.467531        39.9336 
 340   0.0000       1.479570        40.2612 
 341   0.0000       1.483701        40.3736 
 342   0.0000       1.499457        40.8023 
 343   0.0000       1.541353        41.9424 
 344   0.0000       1.571486        42.7623 
 345   0.0000       1.581032        43.0221 
 346   0.0000       1.593545        43.3626 
 347   0.0000       1.605552        43.6893 
 348   0.0000       1.619312        44.0637 
 349   0.0000       1.623037        44.1651 
 350   0.0000       1.636248        44.5246 
 351   0.0000       1.648473        44.8572 
 352   0.0000       1.661899        45.2226 
 353   0.0000       1.679097        45.6906 
 354   0.0000       1.700837        46.2821 
 355   0.0000       1.728617        47.0381 
 356   0.0000       1.742667        47.4204 
 357   0.0000       1.748860        47.5889 
 358   0.0000       1.775816        48.3224 
 359   0.0000       1.782896        48.5151 
 360   0.0000       1.787701        48.6458 
 361   0.0000       1.798107        48.9290 
 362   0.0000       1.814928        49.3867 
 363   0.0000       1.834492        49.9191 
 364   0.0000       1.838975        50.0410 
 365   0.0000       1.854195        50.4552 
 366   0.0000       1.874625        51.0111 
 367   0.0000       1.881614        51.2013 
 368   0.0000       1.897760        51.6407 
 369   0.0000       1.905392        51.8483 
 370   0.0000       1.911253        52.0078 
 371   0.0000       1.929940        52.5163 
 372   0.0000       1.947102        52.9833 
 373   0.0000       1.960855        53.3576 
 374   0.0000       1.969082        53.5814 
 375   0.0000       1.972709        53.6801 
 376   0.0000       2.002362        54.4871 
 377   0.0000       2.010115        54.6980 
 378   0.0000       2.024463        55.0884 
 379   0.0000       2.047511        55.7156 
 380   0.0000       2.049560        55.7714 
 381   0.0000       2.069059        56.3020 
 382   0.0000       2.076493        56.5042 
 383   0.0000       2.079394        56.5832 
 384   0.0000       2.094084        56.9829 
 385   0.0000       2.104431        57.2645 
 386   0.0000       2.110220        57.4220 
 387   0.0000       2.118714        57.6531 
 388   0.0000       2.133184        58.0469 
 389   0.0000       2.146188        58.4007 
 390   0.0000       2.153004        58.5862 
 391   0.0000       2.167496        58.9806 
 392   0.0000       2.176862        59.2354 
 393   0.0000       2.188370        59.5486 
 394   0.0000       2.208017        60.0832 
 395   0.0000       2.218883        60.3789 
 396   0.0000       2.226436        60.5844 
 397   0.0000       2.236340        60.8539 
 398   0.0000       2.247032        61.1448 
 399   0.0000       2.259887        61.4946 
 400   0.0000       2.262292        61.5601 
 401   0.0000       2.268718        61.7349 
 402   0.0000       2.279697        62.0337 
 403   0.0000       2.289967        62.3132 
 404   0.0000       2.296059        62.4789 
 405   0.0000       2.297852        62.5277 
 406   0.0000       2.309727        62.8509 
 407   0.0000       2.324171        63.2439 
 408   0.0000       2.331671        63.4480 
 409   0.0000       2.341806        63.7238 
 410   0.0000       2.348714        63.9118 
 411   0.0000       2.358974        64.1909 
 412   0.0000       2.365549        64.3699 
 413   0.0000       2.371924        64.5433 
 414   0.0000       2.392287        65.0974 
 415   0.0000       2.392594        65.1058 
 416   0.0000       2.400029        65.3081 
 417   0.0000       2.412288        65.6417 
 418   0.0000       2.422330        65.9150 
 419   0.0000       2.435051        66.2611 
 420   0.0000       2.440368        66.4058 
 421   0.0000       2.450201        66.6734 
 422   0.0000       2.452389        66.7329 
 423   0.0000       2.457376        66.8686 
 424   0.0000       2.460510        66.9539 
 425   0.0000       2.479515        67.4710 
 426   0.0000       2.482919        67.5637 
 427   0.0000       2.495137        67.8961 
 428   0.0000       2.502481        68.0960 
 429   0.0000       2.511412        68.3390 
 430   0.0000       2.528299        68.7985 
 431   0.0000       2.543266        69.2058 
 432   0.0000       2.550936        69.4145 
 433   0.0000       2.559060        69.6356 
 434   0.0000       2.564356        69.7797 
 435   0.0000       2.566921        69.8495 
 436   0.0000       2.579564        70.1935 
 437   0.0000       2.584251        70.3210 
 438   0.0000       2.591866        70.5283 
 439   0.0000       2.599214        70.7282 
 440   0.0000       2.600914        70.7745 
 441   0.0000       2.604277        70.8660 
 442   0.0000       2.612441        71.0881 
 443   0.0000       2.620906        71.3185 
 444   0.0000       2.626716        71.4766 
 445   0.0000       2.632514        71.6344 
 446   0.0000       2.650411        72.1214 
 447   0.0000       2.661709        72.4288 
 448   0.0000       2.665813        72.5405 
 449   0.0000       2.670418        72.6658 
 450   0.0000       2.673933        72.7614 
 451   0.0000       2.682612        72.9976 
 452   0.0000       2.697646        73.4067 
 453   0.0000       2.705643        73.6243 
 454   0.0000       2.714338        73.8609 
 455   0.0000       2.718981        73.9872 
 456   0.0000       2.722346        74.0788 
 457   0.0000       2.730524        74.3013 
 458   0.0000       2.738970        74.5312 
 459   0.0000       2.741139        74.5902 
 460   0.0000       2.750180        74.8362 
 461   0.0000       2.756124        74.9980 
 462   0.0000       2.767625        75.3109 
 463   0.0000       2.776900        75.5633 
 464   0.0000       2.779899        75.6449 
 465   0.0000       2.783794        75.7509 
 466   0.0000       2.787476        75.8511 
 467   0.0000       2.798291        76.1454 
 468   0.0000       2.802921        76.2714 
 469   0.0000       2.807756        76.4029 
 470   0.0000       2.813067        76.5474 
 471   0.0000       2.820631        76.7533 
 472   0.0000       2.824656        76.8628 
 473   0.0000       2.831469        77.0482 
 474   0.0000       2.834144        77.1210 
 475   0.0000       2.847652        77.4885 
 476   0.0000       2.853309        77.6425 
 477   0.0000       2.856874        77.7395 
 478   0.0000       2.863706        77.9254 
 479   0.0000       2.867408        78.0261 
 480   0.0000       2.871525        78.1382 
 481   0.0000       2.880254        78.3757 
 482   0.0000       2.888740        78.6066 
 483   0.0000       2.890350        78.6504 
 484   0.0000       2.893638        78.7399 
 485   0.0000       2.901149        78.9443 
 486   0.0000       2.903107        78.9976 
 487   0.0000       2.908571        79.1462 
 488   0.0000       2.917348        79.3851 
 489   0.0000       2.919832        79.4527 
 490   0.0000       2.923371        79.5490 
 491   0.0000       2.928969        79.7013 
 492   0.0000       2.934406        79.8493 
 493   0.0000       2.938709        79.9663 
 494   0.0000       2.948645        80.2367 
 495   0.0000       2.952914        80.3529 
 496   0.0000       2.953897        80.3796 
 497   0.0000       2.961950        80.5987 
 498   0.0000       2.968520        80.7775 
 499   0.0000       2.969165        80.7951 
 500   0.0000       2.989144        81.3387 
 501   0.0000       3.003675        81.7342 
 502   0.0000       3.012097        81.9633 
 503   0.0000       3.015743        82.0625 
 504   0.0000       3.022720        82.2524 
 505   0.0000       3.033508        82.5459 
 506   0.0000       3.035974        82.6130 
 507   0.0000       3.047498        82.9266 
 508   0.0000       3.048676        82.9587 
 509   0.0000       3.060024        83.2675 
 510   0.0000       3.069515        83.5257 
 511   0.0000       3.070882        83.5630 
 512   0.0000       3.087434        84.0133 
 513   0.0000       3.093988        84.1917 
 514   0.0000       3.098802        84.3227 
 515   0.0000       3.106937        84.5440 
 516   0.0000       3.116095        84.7933 
 517   0.0000       3.118535        84.8596 
 518   0.0000       3.125858        85.0589 
 519   0.0000       3.129219        85.1504 
 520   0.0000       3.138985        85.4161 
 521   0.0000       3.142523        85.5124 
 522   0.0000       3.147203        85.6397 
 523   0.0000       3.158634        85.9508 
 524   0.0000       3.163559        86.0848 
 525   0.0000       3.166073        86.1532 
 526   0.0000       3.170226        86.2662 
 527   0.0000       3.179647        86.5226 
 528   0.0000       3.186773        86.7165 
 529   0.0000       3.188436        86.7617 
 530   0.0000       3.194630        86.9303 
 531   0.0000       3.206257        87.2467 
 532   0.0000       3.215717        87.5041 
 533   0.0000       3.220936        87.6461 
 534   0.0000       3.226301        87.7921 
 535   0.0000       3.228824        87.8608 
 536   0.0000       3.237376        88.0935 
 537   0.0000       3.239339        88.1469 
 538   0.0000       3.245688        88.3197 
 539   0.0000       3.256905        88.6249 
 540   0.0000       3.261662        88.7543 
 541   0.0000       3.267179        88.9045 
 542   0.0000       3.277366        89.1817 
 543   0.0000       3.284497        89.3757 
 544   0.0000       3.294086        89.6366 
 545   0.0000       3.301625        89.8418 
 546   0.0000       3.305102        89.9364 
 547   0.0000       3.309066        90.0443 
 548   0.0000       3.317138        90.2639 
 549   0.0000       3.319988        90.3415 
 550   0.0000       3.328221        90.5655 
 551   0.0000       3.336283        90.7849 
 552   0.0000       3.344574        91.0105 
 553   0.0000       3.348253        91.1106 
 554   0.0000       3.359832        91.4257 
 555   0.0000       3.383395        92.0669 
 556   0.0000       3.383783        92.0774 
 557   0.0000       3.393358        92.3380 
 558   0.0000       3.405765        92.6756 
 559   0.0000       3.412055        92.8467 
 560   0.0000       3.413187        92.8775 
 561   0.0000       3.420315        93.0715 
 562   0.0000       3.443808        93.7108 
 563   0.0000       3.451045        93.9077 
 564   0.0000       3.452585        93.9496 
 565   0.0000       3.460189        94.1565 
 566   0.0000       3.478474        94.6541 
 567   0.0000       3.485919        94.8567 
 568   0.0000       3.490383        94.9781 
 569   0.0000       3.494975        95.1031 
 570   0.0000       3.503434        95.3333 
 571   0.0000       3.510572        95.5275 
 572   0.0000       3.514567        95.6362 
 573   0.0000       3.518477        95.7426 
 574   0.0000       3.536602        96.2358 
 575   0.0000       3.545548        96.4793 
 576   0.0000       3.549764        96.5940 
 577   0.0000       3.563096        96.9568 
 578   0.0000       3.575485        97.2939 
 579   0.0000       3.587200        97.6127 
 580   0.0000       3.601962        98.0144 
 581   0.0000       3.603853        98.0658 
 582   0.0000       3.609333        98.2149 
 583   0.0000       3.614842        98.3649 
 584   0.0000       3.619749        98.4984 
 585   0.0000       3.623265        98.5940 
 586   0.0000       3.632616        98.8485 
 587   0.0000       3.638701        99.0141 
 588   0.0000       3.650341        99.3308 
 589   0.0000       3.651593        99.3649 
 590   0.0000       3.660359        99.6034 
 591   0.0000       3.662158        99.6524 
 592   0.0000       3.670763        99.8865 
 593   0.0000       3.672973        99.9467 
 594   0.0000       3.685288       100.2818 
 595   0.0000       3.690290       100.4179 
 596   0.0000       3.694675       100.5372 
 597   0.0000       3.704065       100.7927 
 598   0.0000       3.711020       100.9820 
 599   0.0000       3.718865       101.1955 
 600   0.0000       3.726633       101.4068 
 601   0.0000       3.729555       101.4863 
 602   0.0000       3.745799       101.9284 
 603   0.0000       3.757488       102.2465 
 604   0.0000       3.762688       102.3879 
 605   0.0000       3.777721       102.7970 
 606   0.0000       3.795080       103.2694 
 607   0.0000       3.802108       103.4606 
 608   0.0000       3.808814       103.6431 
 609   0.0000       3.816170       103.8433 
 610   0.0000       3.818048       103.8944 
 611   0.0000       3.834875       104.3522 
 612   0.0000       3.846679       104.6735 
 613   0.0000       3.851585       104.8070 
 614   0.0000       3.852819       104.8405 
 615   0.0000       3.854402       104.8836 
 616   0.0000       3.867840       105.2493 
 617   0.0000       3.875282       105.4518 
 618   0.0000       3.886658       105.7613 
 619   0.0000       3.891147       105.8835 
 620   0.0000       3.904428       106.2449 
 621   0.0000       3.914840       106.5282 
 622   0.0000       3.920572       106.6842 
 623   0.0000       3.923735       106.7703 
 624   0.0000       3.934983       107.0763 
 625   0.0000       3.938731       107.1783 
 626   0.0000       3.941910       107.2648 
 627   0.0000       3.945678       107.3673 
 628   0.0000       3.948481       107.4436 
 629   0.0000       3.963750       107.8591 
 630   0.0000       3.972447       108.0958 
 631   0.0000       3.983520       108.3971 
 632   0.0000       3.988878       108.5429 
 633   0.0000       3.999259       108.8254 
 634   0.0000       4.008563       109.0785 
 635   0.0000       4.021718       109.4365 
 636   0.0000       4.023378       109.4817 
 637   0.0000       4.042141       109.9922 
 638   0.0000       4.050747       110.2264 
 639   0.0000       4.059640       110.4684 
 640   0.0000       4.067716       110.6882 
 641   0.0000       4.069694       110.7420 
 642   0.0000       4.077324       110.9496 
 643   0.0000       4.085959       111.1846 
 644   0.0000       4.100249       111.5735 
 645   0.0000       4.106829       111.7525 
 646   0.0000       4.108873       111.8081 
 647   0.0000       4.115981       112.0015 
 648   0.0000       4.120867       112.1345 
 649   0.0000       4.135634       112.5363 
 650   0.0000       4.142582       112.7254 
 651   0.0000       4.153077       113.0110 
 652   0.0000       4.160161       113.2037 
 653   0.0000       4.167463       113.4024 
 654   0.0000       4.176007       113.6349 
 655   0.0000       4.191536       114.0575 
 656   0.0000       4.199864       114.2841 
 657   0.0000       4.206884       114.4751 
 658   0.0000       4.218524       114.7919 
 659   0.0000       4.237859       115.3180 
 660   0.0000       4.240326       115.3851 
 661   0.0000       4.247116       115.5699 
 662   0.0000       4.254902       115.7818 
 663   0.0000       4.266028       116.0845 
 664   0.0000       4.288582       116.6983 
 665   0.0000       4.295349       116.8824 
 666   0.0000       4.314303       117.3982 
 667   0.0000       4.331855       117.8758 
 668   0.0000       4.350016       118.3699 
 669   0.0000       4.364002       118.7505 
 670   0.0000       4.370567       118.9292 
 671   0.0000       4.404708       119.8582 
 672   0.0000       4.411509       120.0433 
 673   0.0000       4.434272       120.6627 
 674   0.0000       4.450018       121.0911 
 675   0.0000       4.472774       121.7104 
 676   0.0000       4.487423       122.1090 
 677   0.0000       4.505862       122.6107 
 678   0.0000       4.514425       122.8437 
 679   0.0000       4.522376       123.0601 
 680   0.0000       4.532004       123.3221 
 681   0.0000       4.550891       123.8360 
 682   0.0000       4.556820       123.9974 
 683   0.0000       4.567559       124.2896 
 684   0.0000       4.573788       124.4591 
 685   0.0000       4.581929       124.6806 
 686   0.0000       4.601123       125.2029 
 687   0.0000       4.611566       125.4871 
 688   0.0000       4.623233       125.8046 
 689   0.0000       4.643666       126.3606 
 690   0.0000       4.651867       126.5837 
 691   0.0000       4.656525       126.7105 
 692   0.0000       4.661832       126.8549 
 693   0.0000       4.664832       126.9365 
 694   0.0000       4.678986       127.3217 
 695   0.0000       4.696162       127.7891 
 696   0.0000       4.710626       128.1826 
 697   0.0000       4.728953       128.6814 
 698   0.0000       4.744329       129.0998 
 699   0.0000       4.745358       129.1277 
 700   0.0000       4.748906       129.2243 
 701   0.0000       4.758132       129.4754 
 702   0.0000       4.763094       129.6104 
 703   0.0000       4.781063       130.0993 
 704   0.0000       4.785174       130.2112 
 705   0.0000       4.815919       131.0478 
 706   0.0000       4.824559       131.2829 
 707   0.0000       4.838522       131.6629 
 708   0.0000       4.839932       131.7012 
 709   0.0000       4.846573       131.8820 
 710   0.0000       4.865401       132.3943 
 711   0.0000       4.884515       132.9144 
 712   0.0000       4.908186       133.5585 
 713   0.0000       4.934544       134.2758 
 714   0.0000       4.938682       134.3884 
 715   0.0000       4.962770       135.0439 
 716   0.0000       4.967897       135.1834 
 717   0.0000       4.987930       135.7285 
 718   0.0000       4.998052       136.0039 
 719   0.0000       5.010172       136.3337 
 720   0.0000       5.021102       136.6311 
 721   0.0000       5.024605       136.7265 
 722   0.0000       5.049065       137.3920 
 723   0.0000       5.056305       137.5891 
 724   0.0000       5.068597       137.9235 
 725   0.0000       5.079620       138.2235 
 726   0.0000       5.084037       138.3437 
 727   0.0000       5.097694       138.7153 
 728   0.0000       5.123412       139.4151 
 729   0.0000       5.134315       139.7118 
 730   0.0000       5.153593       140.2364 
 731   0.0000       5.159715       140.4030 
 732   0.0000       5.168538       140.6431 
 733   0.0000       5.191941       141.2799 
 734   0.0000       5.200764       141.5200 
 735   0.0000       5.211476       141.8115 
 736   0.0000       5.223353       142.1347 
 737   0.0000       5.229933       142.3137 
 738   0.0000       5.239522       142.5746 
 739   0.0000       5.249277       142.8401 
 740   0.0000       5.264343       143.2501 
 741   0.0000       5.272820       143.4807 
 742   0.0000       5.286097       143.8420 
 743   0.0000       5.298706       144.1851 
 744   0.0000       5.307224       144.4169 
 745   0.0000       5.328666       145.0004 
 746   0.0000       5.338309       145.2628 
 747   0.0000       5.356913       145.7690 
 748   0.0000       5.371603       146.1687 
 749   0.0000       5.407214       147.1378 
 750   0.0000       5.414208       147.3281 
 751   0.0000       5.440728       148.0497 
 752   0.0000       5.454160       148.4152 
 753   0.0000       5.456597       148.4816 
 754   0.0000       5.475069       148.9842 
 755   0.0000       5.514089       150.0460 
 756   0.0000       5.532806       150.5553 
 757   0.0000       5.551599       151.0667 
 758   0.0000       5.570829       151.5900 
 759   0.0000       5.599220       152.3625 
 760   0.0000       5.633521       153.2959 
 761   0.0000       5.645348       153.6177 
 762   0.0000       5.674124       154.4008 
 763   0.0000       5.709976       155.3763 
 764   0.0000       5.719947       155.6477 
 765   0.0000       5.735676       156.0757 
 766   0.0000       5.773953       157.1173 
 767   0.0000       5.800629       157.8432 
 768   0.0000       5.824073       158.4811 
 769   0.0000       5.836484       158.8188 
 770   0.0000       5.852683       159.2596 
 771   0.0000       5.862970       159.5395 
 772   0.0000       5.869144       159.7075 
 773   0.0000       5.907400       160.7485 
 774   0.0000       5.931599       161.4070 
 775   0.0000       5.951064       161.9367 
 776   0.0000       5.978939       162.6952 
 777   0.0000       6.016923       163.7288 
 778   0.0000       6.044950       164.4915 
 779   0.0000       6.092405       165.7828 
 780   0.0000       6.164883       167.7550 
 781   0.0000       6.195433       168.5863 
 782   0.0000       6.207522       168.9153 
 783   0.0000       6.261447       170.3826 
 784   0.0000       6.267162       170.5381 
 785   0.0000       6.301860       171.4823 
 786   0.0000       6.389596       173.8697 
 787   0.0000       6.399754       174.1462 
 788   0.0000       6.436045       175.1337 
 789   0.0000       6.514379       177.2653 
 790   0.0000       6.528961       177.6621 
 791   0.0000       6.551219       178.2677 
 792   0.0000       6.596186       179.4913 
 793   0.0000       6.621766       180.1874 
 794   0.0000       6.663376       181.3197 
 795   0.0000       6.742040       183.4602 
 796   0.0000       6.749980       183.6763 
 797   0.0000       6.763039       184.0317 
 798   0.0000       6.774334       184.3390 
 799   0.0000       6.822472       185.6489 
 800   0.0000       6.956918       189.3074 
 801   0.0000       6.972813       189.7399 
 802   0.0000       7.031702       191.3423 
 803   0.0000       7.044707       191.6962 
 804   0.0000       7.182513       195.4461 
 805   0.0000       7.209361       196.1767 
 806   0.0000       7.360594       200.2920 
 807   0.0000       7.426884       202.0958 
 808   0.0000       7.486669       203.7226 
 809   0.0000       8.786517       239.0933 
 810   0.0000       8.866866       241.2797 
 811   0.0000      10.408452       283.2284 
 812   0.0000      11.265190       306.5414 
 813   0.0000      11.528030       313.6937 
 814   0.0000      12.004164       326.6499 
 815   0.0000      12.240657       333.0852 
 816   0.0000      12.446937       338.6984 
 817   0.0000      12.494938       340.0045 
 818   0.0000      12.533910       341.0650 
 819   0.0000      12.823327       348.9405 
 820   0.0000      13.070930       355.6781 
 821   0.0000      13.196351       359.0910 
 822   0.0000      13.301741       361.9588 
 823   0.0000      13.396864       364.5472 
 824   0.0000      13.657508       371.6397 
 825   0.0000      13.874161       377.5351 
 826   0.0000      14.039648       382.0382 
 827   0.0000      15.339870       417.4191 

                    ********************************
                    * MULLIKEN POPULATION ANALYSIS *
                    ********************************

-----------------------
MULLIKEN ATOMIC CHARGES
-----------------------
   0 C :   -0.308137
   1 C :    0.021362
   2 O :   -0.334113
   3 C :    0.472406
   4 O :   -0.557566
   5 C :   -0.199411
   6 C :    0.187428
   7 C :   -0.284174
   8 N :   -0.147729
   9 C :    0.288271
  10 S :   -0.601869
  11 N :   -0.192415
  12 C :    0.069956
  13 C :   -0.015715
  14 C :   -0.205664
  15 C :   -0.124983
  16 C :   -0.280518
  17 C :    0.286146
  18 O :   -0.438373
  19 C :   -0.308874
  20 H :    0.108480
  21 H :    0.096468
  22 H :    0.119744
  23 H :    0.105197
  24 H :    0.125439
  25 H :    0.134522
  26 H :    0.135001
  27 H :    0.130008
  28 H :    0.247487
  29 H :    0.242637
  30 H :    0.167762
  31 H :    0.184819
  32 H :    0.195578
  33 H :    0.174636
  34 H :    0.323109
  35 H :    0.183085
Sum of atomic charges:    0.0000000

--------------------------------
MULLIKEN REDUCED ORBITAL CHARGES
--------------------------------
  0 C s       :     3.266039  s :     3.266039
      pz      :     1.038546  p :     2.965442
      px      :     0.911118
      py      :     1.015778
      dz2     :     0.013525  d :     0.072343
      dxz     :     0.017601
      dyz     :     0.007726
      dx2y2   :     0.019924
      dxy     :     0.013568
      f0      :     0.000367  f :     0.004313
      f+1     :     0.001075
      f-1     :     0.000536
      f+2     :     0.000374
      f-2     :     0.000066
      f+3     :     0.000796
      f-3     :     0.001099
  1 C s       :     3.177279  s :     3.177279
      pz      :     0.768609  p :     2.636767
      px      :     0.842281
      py      :     1.025877
      dz2     :     0.034348  d :     0.152805
      dxz     :     0.038282
      dyz     :     0.022355
      dx2y2   :     0.034012
      dxy     :     0.023809
      f0      :     0.002109  f :     0.011787
      f+1     :     0.002525
      f-1     :     0.001500
      f+2     :     0.001756
      f-2     :     0.001581
      f+3     :     0.001035
      f-3     :     0.001281
  2 O s       :     3.699581  s :     3.699581
      pz      :     1.476113  p :     4.598309
      px      :     1.662089
      py      :     1.460107
      dz2     :     0.006670  d :     0.033839
      dxz     :     0.006509
      dyz     :     0.007306
      dx2y2   :     0.009067
      dxy     :     0.004287
      f0      :     0.000299  f :     0.002384
      f+1     :     0.000424
      f-1     :     0.000325
      f+2     :     0.000549
      f-2     :     0.000335
[...]
 15 C s       :     2.704526  s :     2.704526
      pz      :     0.902502  p :     2.802152
      px      :     0.973059
      py      :     0.926591
      dz2     :     0.059495  d :     0.424371
      dxz     :     0.089716
      dyz     :     0.072550
      dx2y2   :     0.109930
      dxy     :     0.092681
      f0      :     0.005680  f :     0.042066
      f+1     :     0.005193
      f-1     :     0.003075
      f+2     :     0.006291
      f-2     :     0.006491
      f+3     :     0.009460
      f-3     :     0.005876
 16 C s       :     2.706645  s :     2.706645
      pz      :     0.928807  p :     2.866293
      px      :     0.978678
      py      :     0.958808
      dz2     :     0.041917  d :     0.386526
      dxz     :     0.088916
      dyz     :     0.065040
      dx2y2   :     0.095312
      dxy     :     0.095341
      f0      :     0.004636  f :     0.039610
      f+1     :     0.003223
      f-1     :     0.005621
      f+2     :     0.005351
      f-2     :     0.006439
      f+3     :     0.008604
      f-3     :     0.005735
 17 C s       :     2.706522  s :     2.706522
      pz      :     0.936002  p :     2.696865
      px      :     0.839387
      py      :     0.921476
      dz2     :     0.115773  d :     0.699029
      dxz     :     0.142727
      dyz     :     0.110660
      dx2y2   :     0.176114
      dxy     :     0.153755
      f0      :     0.010676  f :     0.096743
      f+1     :     0.011494
      f-1     :     0.009870
      f+2     :     0.011859
      f-2     :     0.015936
      f+3     :     0.022830
      f-3     :     0.014078
 18 O s       :     3.177103  s :     3.177103
      pz      :     1.589118  p :     4.397823
      px      :     1.456726
      py      :     1.351980
      dz2     :     0.007218  d :     0.071543
      dxz     :     0.010555
      dyz     :     0.013618
      dx2y2   :     0.021331
      dxy     :     0.018820
      f0      :     0.000374  f :     0.004512
      f+1     :     0.000434
      f-1     :     0.000310
      f+2     :     0.000815
      f-2     :     0.000833
      f+3     :     0.000862
      f-3     :     0.000883
 19 C s       :     2.690262  s :     2.690262
      pz      :     0.934742  p :     2.859036
      px      :     0.980299
      py      :     0.943996
      dz2     :     0.056241  d :     0.408964
      dxz     :     0.092384
      dyz     :     0.068358
      dx2y2   :     0.100802
      dxy     :     0.091178
      f0      :     0.005951  f :     0.044230
      f+1     :     0.005564
      f-1     :     0.003320
      f+2     :     0.006838
      f-2     :     0.006588
      f+3     :     0.009581
      f-3     :     0.006389
 20 H s       :     0.848037  s :     0.848037
      pz      :     0.065512  p :     0.152250
      px      :     0.044520
      py      :     0.042218
      dz2     :     0.008850  d :     0.027447
      dxz     :     0.007460
      dyz     :     0.006779
      dx2y2   :     0.002496
      dxy     :     0.001861
 21 H s       :     0.846768  s :     0.846768
      pz      :     0.043048  p :     0.155703
      px      :     0.038978
      py      :     0.073676
      dz2     :     0.002981  d :     0.028106
      dxz     :     0.000360
      dyz     :     0.009234
      dx2y2   :     0.006958
      dxy     :     0.008573
 22 H s       :     0.832124  s :     0.832124
      pz      :     0.056997  p :     0.155855
      px      :     0.049364
      py      :     0.049495
      dz2     :     0.008155  d :     0.028198
      dxz     :     0.006001
      dyz     :     0.004755
      dx2y2   :     0.005303
      dxy     :     0.003984
 23 H s       :     0.852024  s :     0.852024
      pz      :     0.061338  p :     0.145964
      px      :     0.039865
      py      :     0.044761
      dz2     :     0.007702  d :     0.027118
      dxz     :     0.006907
      dyz     :     0.006848
      dx2y2   :     0.003884
      dxy     :     0.001778
 24 H s       :     0.847478  s :     0.847478
      pz      :     0.029810  p :     0.143894
      px      :     0.034882
      py      :     0.079201
      dz2     :     0.002688  d :     0.027323
      dxz     :     0.000206
      dyz     :     0.008102
      dx2y2   :     0.008057
      dxy     :     0.008270
 25 H s       :     0.827455  s :     0.827455
      pz      :     0.056865  p :     0.152330
      px      :     0.042756
      py      :     0.052709
      dz2     :     0.007803  d :     0.027968
      dxz     :     0.003975
      dyz     :     0.006678
      dx2y2   :     0.004549
      dxy     :     0.004962
 26 H s       :     0.827942  s :     0.827942
      pz      :     0.071930  p :     0.154286
      px      :     0.039801
      py      :     0.042556
      dz2     :     0.009010  d :     0.028059
      dxz     :     0.007052
      dyz     :     0.008344
      dx2y2   :     0.001781
      dxy     :     0.001871
 27 H s       :     0.821471  s :     0.821471
      pz      :     0.042744  p :     0.153466
      px      :     0.074332
      py      :     0.036390
      dz2     :     0.002696  d :     0.028126
      dxz     :     0.009694
      dyz     :     0.000282
      dx2y2   :     0.006924
      dxy     :     0.008530
 28 H s       :     0.713960  s :     0.713960
      pz      :     0.085318  p :     0.258522
      px      :     0.080470
      py      :     0.092735
      dz2     :     0.013727  d :     0.062169
      dxz     :     0.007753
      dyz     :     0.015903
      dx2y2   :     0.010145
      dxy     :     0.014640
 29 H s       :     0.722277  s :     0.722277
      pz      :     0.063646  p :     0.251589
      px      :     0.091963
      py      :     0.095980
      dz2     :     0.008341  d :     0.060870
      dxz     :     0.005779
      dyz     :     0.014771
      dx2y2   :     0.015979
      dxy     :     0.016001
 30 H s       :     0.825140  s :     0.825140
      pz      :     0.029268  p :     0.152706
      px      :     0.062387
      py      :     0.061051
      dz2     :     0.002949  d :     0.029076
      dxz     :     0.004734
      dyz     :     0.003322
      dx2y2   :     0.009879
      dxy     :     0.008192
 31 H s       :     0.836941  s :     0.836941
      pz      :     0.039487  p :     0.156094
      px      :     0.068922
      py      :     0.047685
      dz2     :     0.002941  d :     0.027540
      dxz     :     0.006328
      dyz     :     0.002454
      dx2y2   :     0.007770
      dxy     :     0.008048
 32 H s       :     0.833225  s :     0.833225
      pz      :     0.051536  p :     0.151631
      px      :     0.035419
      py      :     0.064676
      dz2     :     0.005029  d :     0.026746
      dxz     :     0.002960
      dyz     :     0.007605
      dx2y2   :     0.005212
      dxy     :     0.005941
 33 H s       :     0.839383  s :     0.839383
      pz      :     0.056042  p :     0.157299
      px      :     0.058172
      py      :     0.043085
      dz2     :     0.005856  d :     0.027594
      dxz     :     0.006681
      dyz     :     0.004128
      dx2y2   :     0.005311
      dxy     :     0.005618
 34 H s       :     0.672804  s :     0.672804
      pz      :     0.120459  p :     0.341443
      px      :     0.073779
      py      :     0.147205
      dz2     :     0.019463  d :     0.097977
      dxz     :     0.007622
      dyz     :     0.027982
      dx2y2   :     0.020442
      dxy     :     0.022468
 35 H s       :     0.829414  s :     0.829414
      pz      :     0.057077  p :     0.156815
      px      :     0.034471
      py      :     0.065267
      dz2     :     0.006342  d :     0.028176
      dxz     :     0.003462
      dyz     :     0.007582
      dx2y2   :     0.005139
      dxy     :     0.005652


                      *****************************
                      * MAYER POPULATION ANALYSIS *
                      *****************************

  NA   - Mulliken gross atomic population
  ZA   - Total nuclear charge
  QA   - Mulliken gross atomic charge
  VA   - Mayer's total valence
  BVA  - Mayer's bonded valence
  FA   - Mayer's free valence

  ATOM       NA         ZA         QA         VA         BVA        FA
  0 C      6.3081     6.0000    -0.3081     3.8662     3.8662     0.0000
  1 C      5.9786     6.0000     0.0214     3.8525     3.8525    -0.0000
  2 O      8.3341     8.0000    -0.3341     2.0712     2.0712     0.0000
  3 C      5.5276     6.0000     0.4724     4.2631     4.2631     0.0000
  4 O      8.5576     8.0000    -0.5576     1.9712     1.9712    -0.0000
  5 C      6.1994     6.0000    -0.1994     3.5981     3.5981     0.0000
  6 C      5.8126     6.0000     0.1874     3.8578     3.8578     0.0000
  7 C      6.2842     6.0000    -0.2842     3.8772     3.8772     0.0000
  8 N      7.1477     7.0000    -0.1477     3.3542     3.3542     0.0000
  9 C      5.7117     6.0000     0.2883     4.1215     4.1215     0.0000
 10 S     16.6019    16.0000    -0.6019     1.5825     1.5825    -0.0000
 11 N      7.1924     7.0000    -0.1924     3.3602     3.3602     0.0000
 12 C      5.9300     6.0000     0.0700     3.9367     3.9367     0.0000
 13 C      6.0157     6.0000    -0.0157     3.6428     3.6428     0.0000
 14 C      6.2057     6.0000    -0.2057     3.8298     3.8298    -0.0000
 15 C      6.1250     6.0000    -0.1250     3.7651     3.7651    -0.0000
 16 C      6.2805     6.0000    -0.2805     3.7495     3.7495     0.0000
 17 C      5.7139     6.0000     0.2861     3.8834     3.8834    -0.0000
 18 O      8.4384     8.0000    -0.4384     2.0530     2.0530    -0.0000
 19 C      6.3089     6.0000    -0.3089     3.7874     3.7874    -0.0000
 20 H      0.8915     1.0000     0.1085     0.9806     0.9806     0.0000
 21 H      0.9035     1.0000     0.0965     0.9905     0.9905    -0.0000
 22 H      0.8803     1.0000     0.1197     0.9772     0.9772    -0.0000
 23 H      0.8948     1.0000     0.1052     0.9756     0.9756    -0.0000
 24 H      0.8746     1.0000     0.1254     0.9737     0.9737     0.0000
 25 H      0.8655     1.0000     0.1345     0.9816     0.9816     0.0000
 26 H      0.8650     1.0000     0.1350     0.9827     0.9827    -0.0000
 27 H      0.8700     1.0000     0.1300     0.9770     0.9770    -0.0000
 28 H      0.7525     1.0000     0.2475     0.9702     0.9702     0.0000
 29 H      0.7574     1.0000     0.2426     0.9779     0.9779    -0.0000
 30 H      0.8322     1.0000     0.1678     0.9878     0.9878     0.0000
 31 H      0.8152     1.0000     0.1848     0.9769     0.9769    -0.0000
 32 H      0.8044     1.0000     0.1956     0.9615     0.9615    -0.0000
 33 H      0.8254     1.0000     0.1746     0.9837     0.9837     0.0000
 34 H      0.6769     1.0000     0.3231     0.9400     0.9400     0.0000
 35 H      0.8169     1.0000     0.1831     0.9800     0.9800    -0.0000

  Mayer bond orders larger than 0.100000
B(  0-C ,  1-C ) :   0.9631 B(  0-C , 20-H ) :   0.9715 B(  0-C , 21-H ) :   0.9778 
B(  0-C , 22-H ) :   0.9722 B(  1-C ,  2-O ) :   0.8955 B(  1-C , 23-H ) :   0.9768 
B(  1-C , 24-H ) :   0.9812 B(  2-O ,  3-C ) :   1.2100 B(  3-C ,  4-O ) :   1.8906 
B(  3-C ,  5-C ) :   1.0961 B(  5-C ,  6-C ) :   1.6110 B(  5-C , 12-C ) :   0.9523 
B(  6-C ,  7-C ) :   0.9622 B(  6-C ,  8-N ) :   1.1596 B(  7-C , 25-H ) :   0.9771 
B(  7-C , 26-H ) :   0.9633 B(  7-C , 27-H ) :   0.9571 B(  8-N ,  9-C ) :   1.2355 
B(  8-N , 28-H ) :   0.9254 B(  9-C , 10-S ) :   1.4408 B(  9-C , 11-N ) :   1.3742 
B( 11-N , 12-C ) :   1.0192 B( 11-N , 29-H ) :   0.9270 B( 12-C , 13-C ) :   0.9300 
B( 12-C , 30-H ) :   0.9990 B( 13-C , 14-C ) :   1.3357 B( 13-C , 19-C ) :   1.3277 
B( 14-C , 15-C ) :   1.4118 B( 14-C , 31-H ) :   0.9611 B( 15-C , 16-C ) :   1.3398 
B( 15-C , 32-H ) :   0.9598 B( 16-C , 17-C ) :   1.3397 B( 16-C , 33-H ) :   0.9653 
B( 17-C , 18-O ) :   1.1171 B( 17-C , 19-C ) :   1.3582 B( 18-O , 34-H ) :   0.9158 
B( 19-C , 35-H ) :   0.9585 

-------
TIMINGS
-------

Total SCF time: 0 days 2 hours 3 min 16 sec 

Total time                  ....    7396.429 sec
Sum of individual times     ....    7392.325 sec  ( 99.9%)

Fock matrix formation       ....    7379.255 sec  ( 99.8%)
Diagonalization             ....       1.572 sec  (  0.0%)
Density matrix formation    ....       0.216 sec  (  0.0%)
Population analysis         ....       0.233 sec  (  0.0%)
Initial guess               ....       6.232 sec  (  0.1%)
Orbital Transformation      ....       0.000 sec  (  0.0%)
Orbital Orthonormalization  ....       0.000 sec  (  0.0%)
DIIS solution               ....       1.322 sec  (  0.0%)
SOSCF solution              ....       1.983 sec  (  0.0%)

Maximum memory used throughout the entire SCF-calculation: 723.4 MB

------------------------------------------------------------------------------
                                ORCA  MP2 
------------------------------------------------------------------------------

Freezing NCore=48 chemical core electrons

-------------
RI-MP2 ENERGY
-------------
Dimension of the basis                    ...  828
Memory devoted to MP2                     ...  256 MB   
Data format for buffers                   ... DOUBLE
Compression type for matrix containers    ... UNCOMPRESSED
Overall scaling of the MP2 energy         ...   1.000e+00
Calculating two index integrals           ... done (    0.049 sec)
Cholesky decomposition of V**-1           ... done (    0.650 sec)

-----------------
RI-TRANSFORMATION (AUX index driven)
-----------------

Dimension of the orbital-basis         ... 828
Dimension of the aux-basis             ... 2141
Transformation of internal/external MOs...   24-  76 to   77- 827
Number Format for Storage              ... Double (8 Byte)
Integral mode                          ... Direct

First Phase: integral generation and transformation of MO indices
  Aux angular momentum 0               ... done (    5.607 sec)
  Aux angular momentum 1               ... done (    8.592 sec)
  Aux angular momentum 2               ... done (   10.376 sec)
  Aux angular momentum 3               ... done (    8.732 sec)
  Aux angular momentum 4               ... done (    3.122 sec)
Closing buffer VIA ( 0.63 GB; CompressionRatio= 1.00)
  Phase 1 completed in    36.622 sec
Second Phase: sorting and transformation of aux index

IA-Transformation
Memory available                       ... 158 MB 
Max. # MO pairs treated in a batch     ... 11    
# of internal orbitals                 ... 53
# batches for internal orbitals        ... 5
Closing buffer IAV ( 0.63 GB; CompressionRatio= 1.00)
(ia|v) transformation done in    19.017 sec

  Phase 2 completed in    19.036 sec
RI-Integral transformation completed in    55.667 sec
Opening buffers                              ... done

Starting loop over batches of integrals:

Operator 0  - window                       ... ( 24- 76)x( 77-827)
Operator 0  - Memory available             ...   256 MB
Operator 0  - Memory needed per MO         ...  12.3 MB
Operator 0  - Number of orbitals per batch ... 13
Operator 0  - Number of batches            ... 5

OPERATOR  0   PASS   0:  MOs    24 ...   36
  Reading integrals       ... ok
  Internal MO  26
  Internal MO  29
  Internal MO  32
  Internal MO  35
OPERATOR  0   PASS   1:  MOs    37 ...   49
  Reading integrals       ... ok
  Internal MO  38
  Internal MO  41
  Internal MO  44
  Internal MO  47
OPERATOR  0   PASS   2:  MOs    50 ...   62
  Reading integrals       ... ok
  Internal MO  50
  Internal MO  53
  Internal MO  56
  Internal MO  59
  Internal MO  62
OPERATOR  0   PASS   3:  MOs    63 ...   75
  Reading integrals       ... ok
  Internal MO  65
  Internal MO  68
  Internal MO  71
  Internal MO  74
OPERATOR  0   PASS   4:  MOs    76 ...   76
  Reading integrals       ... ok
Time spent in pair loops =    96.496 sec
Deleting buffer (Ka|jb)[aa] ...done

-----------------------------------------------
 RI-MP2 CORRELATION ENERGY:     -3.524492026 Eh
-----------------------------------------------


-------
TIMINGS
-------

Total time                :  152.972 sec
Integral trafo            :   55.694 sec ( 36.4%)
I/O of integrals          :    0.934 sec (  0.6%)
K(i,j) Operators          :   67.437 sec ( 44.1%)
T(i,j) pair energies      :    9.836 sec (  6.4%)
V-calculation             :    0.049 sec (  0.0%)
V**(-1/2)                 :    0.650 sec (  0.4%)
Gamma(ia|P)               :    0.000 sec (  0.0%)
Gamma-Trafo               :    0.000 sec (  0.0%)
D(virtual)                :    0.000 sec (  0.0%)
D(internal)               :    0.000 sec (  0.0%)
W(virtual)                :    0.000 sec (  0.0%)
W(internal)               :    0.000 sec (  0.0%)
L(virtual)                :    0.000 sec (  0.0%)
L(internal)               :    0.000 sec (  0.0%)
G(D)                      :    0.000 sec (  0.0%)
G(Z)                      :    0.000 sec (  0.0%)
Z-Vector Solution         :    0.000 sec (  0.0%)
3-Index Derivative        :    0.000 sec (  0.0%)
2-Index Derivative        :    0.000 sec (  0.0%)
Separable Gradient        :    0.000 sec (  0.0%)


---------------------------------------
MP2 TOTAL ENERGY:    -1274.418401668 Eh
---------------------------------------

Maximum memory used throughout the entire MP2-calculation: 303.3 MB

-------------------------   --------------------
FINAL SINGLE POINT ENERGY     -1274.418401667568
-------------------------   --------------------


                            ***************************************
                            *     ORCA property calculations      *
                            ***************************************


  WARNING: The energy has been calculated at the MP2 level but the densities
           used in the property calculations are still SCF densities
           MP2 response densities have not been calculated 
           use %mp2 Density relaxed end
           or  %mp2 Density unrelaxed end

                                    ---------------------
                                    Active property flags
                                    ---------------------
   (+) Dipole Moment


------------------------------------------------------------------------------
                       ORCA ELECTRIC PROPERTIES CALCULATION
------------------------------------------------------------------------------

Dipole Moment Calculation                       ... on
Quadrupole Moment Calculation                   ... off
Polarizability Calculation                      ... off
GBWName                                         ... qm_input.solv.gbw
Electron density file                           ... qm_input.solv.scfp
The origin for moment calculation is the CENTER OF MASS  = ( 8.704892, 36.090283 -10.204500)

-------------
DIPOLE MOMENT
-------------
                                X             Y             Z
Electronic contribution:     12.13437       0.03320      12.05855
Nuclear contribution   :    -13.36143       0.10986     -12.95721
                        -----------------------------------------
Total Dipole Moment    :     -1.22705       0.14306      -0.89866
                        -----------------------------------------
Magnitude (a.u.)       :      1.52765
Magnitude (Debye)      :      3.88298



--------------------
Rotational spectrum 
--------------------
 
Rotational constants in cm-1:     0.010481     0.008955     0.005780 
Rotational constants in MHz :   314.222461   268.469078   173.292818 

 Dipole components along the rotational axes: 
x,y,z [a.u.] :    -1.242362     0.859116    -0.228410 
x,y,z [Debye]:    -3.157834     2.183700    -0.580573 

 

Timings for individual modules:

Sum of individual times         ...     7795.989 sec (= 129.933 min)
GTO integral calculation        ...      245.897 sec (=   4.098 min)   3.2 %
SCF iterations                  ...     7396.561 sec (= 123.276 min)  94.9 %
MP2 module                      ...      153.531 sec (=   2.559 min)   2.0 %
                             ****ORCA TERMINATED NORMALLY****
TOTAL RUN TIME: 0 days 2 hours 9 minutes 57 seconds 9 msec
