
                                        *****************
                                        * O   R   C   A *
                                        *****************

                                            #,                                       
                                            ###                                      
                                            ####                                     
                                            #####                                    
                                            ######                                   
                                           ########,                                 
                                     ,,################,,,,,                         
                               ,,#################################,,                 
                          ,,##########################################,,             
                       ,#########################################, ''#####,          
                    ,#############################################,,   '####,        
                  ,##################################################,,,,####,       
                ,###########''''           ''''###############################       
              ,#####''   ,,,,##########,,,,          '''####'''          '####       
            ,##' ,,,,###########################,,,                        '##       
           ' ,,###''''                  '''############,,,                           
         ,,##''                                '''############,,,,        ,,,,,,###''
      ,#''                                            '''#######################'''  
     '                                                          ''''####''''         
             ,#######,   #######,   ,#######,      ##                                
            ,#'     '#,  ##    ##  ,#'     '#,    #''#        ######   ,####,        
            ##       ##  ##   ,#'  ##            #'  '#       #        #'  '#        
            ##       ##  #######   ##           ,######,      #####,   #    #        
            '#,     ,#'  ##    ##  '#,     ,#' ,#      #,         ##   #,  ,#        
             '#######'   ##     ##  '#######'  #'      '#     #####' # '####'        



                  #######################################################
                  #                        -***-                        #
                  #          Department of theory and spectroscopy      #
                  #    Directorship and core code : Frank Neese         #
                  #        Max Planck Institute fuer Kohlenforschung    #
                  #                Kaiser Wilhelm Platz 1               #
                  #                 D-45470 Muelheim/Ruhr               #
                  #                      Germany                        #
                  #                                                     #
                  #                  All rights reserved                #
                  #                        -***-                        #
                  #######################################################


                         Program Version 5.0.0 -  RELEASE  -
                                (SVN: $Rev: 19529$)
                ($Date: 2021-06-28 11:36:33 +0200 (Mo, 28 Jun 2021) $)


 With contributions from (in alphabetic order):
   Daniel Aravena         : Magnetic Suceptibility
   Michael Atanasov       : Ab Initio Ligand Field Theory (pilot matlab implementation)
   Alexander A. Auer      : GIAO ZORA, VPT2 properties, NMR spectrum
   Ute Becker             : Parallelization
   Giovanni Bistoni       : ED, misc. LED, open-shell LED, HFLD
   Martin Brehm           : Molecular dynamics
   Dmytro Bykov           : SCF Hessian
   Vijay G. Chilkuri      : MRCI spin determinant printing, contributions to CSF-ICE
   Dipayan Datta          : RHF DLPNO-CCSD density
   Achintya Kumar Dutta   : EOM-CC, STEOM-CC
   Dmitry Ganyushin       : Spin-Orbit,Spin-Spin,Magnetic field MRCI
   Miquel Garcia          : C-PCM Hessian, Gaussian charge scheme
   Yang Guo               : DLPNO-NEVPT2, F12-NEVPT2, CIM, IAO-localization
   Andreas Hansen         : Spin unrestricted coupled pair/coupled cluster methods
   Benjamin Helmich-Paris : MC-RPA, TRAH-SCF, COSX integrals
   Lee Huntington         : MR-EOM, pCC
   Robert Izsak           : Overlap fitted RIJCOSX, COSX-SCS-MP3, EOM
   Marcus Kettner         : VPT2
   Christian Kollmar      : KDIIS, OOCD, Brueckner-CCSD(T), CCSD density, CASPT2, CASPT2-K
   Simone Kossmann        : Meta GGA functionals, TD-DFT gradient, OOMP2, MP2 Hessian
   Martin Krupicka        : Initial AUTO-CI
   Lucas Lang             : DCDCAS
   Marvin Lechner         : AUTO-CI (C++ implementation), FIC-MRCC
   Dagmar Lenk            : GEPOL surface, SMD
   Dimitrios Liakos       : Extrapolation schemes; Compound Job, initial MDCI parallelization
   Dimitrios Manganas     : Further ROCIS development; embedding schemes
   Dimitrios Pantazis     : SARC Basis sets
   Anastasios Papadopoulos: AUTO-CI, single reference methods and gradients
   Taras Petrenko         : DFT Hessian,TD-DFT gradient, ASA, ECA, R-Raman, ABS, FL, XAS/XES, NRVS
   Peter Pinski           : DLPNO-MP2, DLPNO-MP2 Gradient
   Christoph Reimann      : Effective Core Potentials
   Marius Retegan         : Local ZFS, SOC
   Christoph Riplinger    : Optimizer, TS searches, QM/MM, DLPNO-CCSD(T), (RO)-DLPNO pert. Triples
   Tobias Risthaus        : Range-separated hybrids, TD-DFT gradient, RPA, STAB
   Michael Roemelt        : Original ROCIS implementation
   Masaaki Saitow         : Open-shell DLPNO-CCSD energy and density
   Barbara Sandhoefer     : DKH picture change effects
   Avijit Sen             : IP-ROCIS
   Kantharuban Sivalingam : CASSCF convergence, NEVPT2, FIC-MRCI
   Bernardo de Souza      : ESD, SOC TD-DFT
   Georgi Stoychev        : AutoAux, RI-MP2 NMR
   Willem Van den Heuvel  : Paramagnetic NMR
   Boris Wezisla          : Elementary symmetry handling
   Frank Wennmohs         : Technical directorship


 We gratefully acknowledge several colleagues who have allowed us to
 interface, adapt or use parts of their codes:
   Stefan Grimme, W. Hujo, H. Kruse, P. Pracht,  : VdW corrections, initial TS optimization,
                  C. Bannwarth, S. Ehlert          DFT functionals, gCP, sTDA/sTD-DF
   Ed Valeev, F. Pavosevic, A. Kumar             : LibInt (2-el integral package), F12 methods
   Garnet Chan, S. Sharma, J. Yang, R. Olivares  : DMRG
   Ulf Ekstrom                                   : XCFun DFT Library
   Mihaly Kallay                                 : mrcc  (arbitrary order and MRCC methods)
   Jiri Pittner, Ondrej Demel                    : Mk-CCSD
   Frank Weinhold                                : gennbo (NPA and NBO analysis)
   Christopher J. Cramer and Donald G. Truhlar   : smd solvation model
   Lars Goerigk                                  : TD-DFT with DH, B97 family of functionals
   V. Asgeirsson, H. Jonsson                     : NEB implementation
   FAccTs GmbH                                   : IRC, NEB, NEB-TS, DLPNO-Multilevel, CI-OPT
                                                   MM, QMMM, 2- and 3-layer-ONIOM, Crystal-QMMM,
                                                   LR-CPCM, SF, NACMEs, symmetry and pop. for TD-DFT,
                                                   nearIR, NL-DFT gradient (VV10), updates on ESD,
                                                   ML-optimized integration grids
   S Lehtola, MJT Oliveira, MAL Marques          : LibXC Library
   Liviu Ungur et al                             : ANISO software


 Your calculation uses the libint2 library for the computation of 2-el integrals
 For citations please refer to: http://libint.valeyev.net

 Your ORCA version has been built with support for libXC version: 5.1.0
 For citations please refer to: https://tddft.org/programs/libxc/

 This ORCA versions uses:
   CBLAS   interface :  Fast vector & matrix operations
   LAPACKE interface :  Fast linear algebra routines
   SCALAPACK package :  Parallel linear algebra routines
   Shared memory     :  Shared parallel matrices
   BLAS/LAPACK       :  OpenBLAS 0.3.15  USE64BITINT DYNAMIC_ARCH NO_AFFINITY SkylakeX SINGLE_THREADED
        Core in use  :  SkylakeX
   Copyright (c) 2011-2014, The OpenBLAS Project


================================================================================

----- Orbital basis set information -----
Your calculation utilizes the basis: cc-pVTZ 
       H, B-Ne : Obtained from the ccRepo (grant-hill.group.shef.ac.uk/ccrepo) Feb. 2017
                 T. H. Dunning, Jr., J. Chem. Phys. 90, 1007 (1989)
            He : Obtained from the ccRepo (grant-hill.group.shef.ac.uk/ccrepo) Feb. 2017
                 D. E. Woon, T. H. Dunning, Jr., J. Chem. Phys. 100, 2975 (1994)
  Li-Be, Na-Mg : Obtained from the ccRepo (grant-hill.group.shef.ac.uk/ccrepo) Feb. 2017
                 B. P. Prascher, D. E. Woon, K. A. Peterson, T. H. Dunning, Jr., A. K. Wilson, Theor. Chem. Acc. 128, 69 (2011)
         Al-Ar : Obtained from the ccRepo (grant-hill.group.shef.ac.uk/ccrepo) Feb. 2017
                 D. E. Woon, T. H. Dunning, Jr., J. Chem. Phys. 98, 1358 (1993)
            Ca : Obtained from the Peterson Research Group Website (tyr0.chem.wsu.edu/~kipeters) Feb. 2017
                 J. Koput, K. A. Peterson, J. Phys. Chem. 106, 9595 (2002)
         Sc-Zn : Obtained from the ccRepo (grant-hill.group.shef.ac.uk/ccrepo) Feb. 2017
                 N. B. Balabanov, K. A. Peterson, J. Chem. Phys. 123, 064107 (2005)
                 N. B. Balabanov, K. A. Peterson, J. Chem. Phys. 125, 074110 (2006)
         Ga-Kr : Obtained from the ccRepo (grant-hill.group.shef.ac.uk/ccrepo) Feb. 2017
                 A. K. Wilson, D. E. Woon, K. A. Peterson, T. H. Dunning, Jr., J. Chem. Phys. 110, 7667 (1999)
             Y : Obtained from the ccRepo (grant-hill.group.shef.ac.uk/ccrepo) Feb. 2017
                 K. A. Peterson, D. Figgen, M. Dolg, H. Stoll, J. Chem. Phys. 126, 124101 (2007)
        Ag, Au : Obtained from the Peterson Research Group Website (tyr0.chem.wsu.edu/~kipeters) Feb. 2017
                 K. A. Peterson, C. Puzzarini, Theor. Chem. Acc. 114, 283 (2005)

----- AuxC basis set information -----
Your calculation utilizes the auxiliary basis: cc-pVTZ/C 
  Obtained from the EMSL Basis Set Exchange (bse.pnl.gov) Feb. 2017
  H-He, B-F, Al-Ar, Ga-Kr : F. Weigend, A. Kohn, C. Hattig, J. Chem. Phys. 116, 3175 (2002)
             Li-Be, Na-Mg : C. Haettig, Phys. Chem. Chem. Phys. 7, 59 (2005)
                       Ne : C. Haettig, Phys. Chem. Chem. Phys. 7, 59 (2005)
                            F. Weigend, A. Kohn, C. Hattig, J. Chem. Phys. 116, 3175 (2002)
                    Sc-Zn : J. G. Hill, J. A. Platts, J. Chem. Phys. 128, 044104 (2008)

================================================================================
                                        WARNINGS
                       Please study these warnings very carefully!
================================================================================


WARNING: No MP2 level density has been requested!
         To caclulate MP2 level properties use
         %mp2 Density relaxed end
         or
         %mp2 Density unrelaxed end

WARNING: Post HF methods need fully converged wavefunctions
  ===> : Setting SCFConvForced true
         You can overwrite this default with %scf ConvForced false 


INFO   : the flag for use of the SHARK integral package has been found!

================================================================================
                                       INPUT FILE
================================================================================
NAME = qm_input.vacu
|  1> ! RI-MP2 cc-pVTZ cc-pVTZ/c TightSCF KeepDens NoKeepInts
|  2> 
|  3> *xyz  0  1
|  4>     C    11.4242034   -6.4516510   14.3743139
|  5>     C    10.2907837   -7.0869763   13.5832620
|  6>     O     9.1683305   -7.3972934   14.4866431
|  7>     C     8.9722406   -8.6278381   14.9975180
|  8>     O     9.8165643   -9.4760177   14.8726025
|  9>     C     7.6670003   -8.7938099   15.7653491
| 10>     C     6.6983960   -7.8604653   15.9714343
| 11>     C     6.6091931   -6.5375872   15.3021898
| 12>     N     5.7033652   -8.0664396   16.7716790
| 13>     C     5.6124770   -9.1331895   17.6347858
| 14>     S     4.5678174   -9.1062996   18.8706698
| 15>     N     6.4678683  -10.1496671   17.4504633
| 16>     C     7.4537922  -10.1898299   16.3868424
| 17>     C     7.0329099  -11.1197384   15.2631231
| 18>     C     7.3768050  -12.4358540   15.4719517
| 19>     C     6.8742862  -13.4255367   14.5591641
| 20>     C     6.1529993  -13.0186484   13.3920896
| 21>     C     5.8261782  -11.6768702   13.1819614
| 22>     O     5.0713188  -11.2592364   12.1264585
| 23>     C     6.2640094  -10.7082080   14.1376148
| 24>     H    12.2597716   -6.1285633   13.7413600
| 25>     H    11.7677637   -7.2053241   15.0934333
| 26>     H    11.0590565   -5.6417317   15.0176609
| 27>     H     9.9223222   -6.2919476   12.9234472
| 28>     H    10.6818260   -7.9067454   12.9682383
| 29>     H     5.6246115   -6.0664784   15.4110227
| 30>     H     6.6256998   -6.7482431   14.2258343
| 31>     H     7.4063150   -5.8529916   15.6170056
| 32>     H     4.9746829   -7.3833185   16.9400060
| 33>     H     6.4880589  -10.9372867   18.0870276
| 34>     H     8.3373269  -10.6121460   16.8810135
| 35>     H     8.0147187  -12.7050237   16.3086176
| 36>     H     6.9956935  -14.4821970   14.7785389
| 37>     H     5.8341068  -13.7764056   12.6825068
| 38>     H     5.4216669  -10.4003173   11.8327861
| 39>     H     6.0010155   -9.6642403   13.9949184
| 40> *
| 41> 
| 42>                          ****END OF INPUT****
================================================================================

                       ****************************
                       * Single Point Calculation *
                       ****************************

---------------------------------
CARTESIAN COORDINATES (ANGSTROEM)
---------------------------------
  C     11.424203   -6.451651   14.374314
  C     10.290784   -7.086976   13.583262
  O      9.168330   -7.397293   14.486643
  C      8.972241   -8.627838   14.997518
  O      9.816564   -9.476018   14.872602
  C      7.667000   -8.793810   15.765349
  C      6.698396   -7.860465   15.971434
  C      6.609193   -6.537587   15.302190
  N      5.703365   -8.066440   16.771679
  C      5.612477   -9.133190   17.634786
  S      4.567817   -9.106300   18.870670
  N      6.467868  -10.149667   17.450463
  C      7.453792  -10.189830   16.386842
  C      7.032910  -11.119738   15.263123
  C      7.376805  -12.435854   15.471952
  C      6.874286  -13.425537   14.559164
  C      6.152999  -13.018648   13.392090
  C      5.826178  -11.676870   13.181961
  O      5.071319  -11.259236   12.126459
  C      6.264009  -10.708208   14.137615
  H     12.259772   -6.128563   13.741360
  H     11.767764   -7.205324   15.093433
  H     11.059057   -5.641732   15.017661
  H      9.922322   -6.291948   12.923447
  H     10.681826   -7.906745   12.968238
  H      5.624612   -6.066478   15.411023
  H      6.625700   -6.748243   14.225834
  H      7.406315   -5.852992   15.617006
  H      4.974683   -7.383318   16.940006
  H      6.488059  -10.937287   18.087028
  H      8.337327  -10.612146   16.881014
  H      8.014719  -12.705024   16.308618
  H      6.995693  -14.482197   14.778539
  H      5.834107  -13.776406   12.682507
  H      5.421667  -10.400317   11.832786
  H      6.001016   -9.664240   13.994918

----------------------------
CARTESIAN COORDINATES (A.U.)
----------------------------
  NO LB      ZA    FRAG     MASS         X           Y           Z
   0 C     6.0000    0    12.011   21.588616  -12.191854   27.163517
   1 C     6.0000    0    12.011   19.446763  -13.392444   25.668645
   2 O     8.0000    0    15.999   17.325634  -13.978859   27.375788
   3 C     6.0000    0    12.011   16.955078  -16.304251   28.341202
   4 O     8.0000    0    15.999   18.550618  -17.907078   28.105146
   5 C     6.0000    0    12.011   14.488531  -16.617892   29.792192
   6 C     6.0000    0    12.011   12.658134  -14.854127   30.181637
   7 C     6.0000    0    12.011   12.489565  -12.354249   28.916948
   8 N     7.0000    0    14.007   10.777798  -15.243362   31.693880
   9 C     6.0000    0    12.011   10.606044  -17.259227   33.324916
  10 S    16.0000    0    32.060    8.631924  -17.208412   35.660398
  11 N     7.0000    0    14.007   12.222500  -19.180091   32.976597
  12 C     6.0000    0    12.011   14.085626  -19.255988   30.966644
  13 C     6.0000    0    12.011   13.290274  -21.013260   28.843123
  14 C     6.0000    0    12.011   13.940141  -23.500358   29.237751
  15 C     6.0000    0    12.011   12.990518  -25.370588   27.512833
  16 C     6.0000    0    12.011   11.627484  -24.601680   25.307382
  17 C     6.0000    0    12.011   11.009881  -22.066087   24.910297
  18 O     8.0000    0    15.999    9.583404  -21.276873   22.915686
  19 C     6.0000    0    12.011   11.837262  -20.235581   26.716220
  20 H     1.0000    0     1.008   23.167611  -11.581306   25.967407
  21 H     1.0000    0     1.008   22.237851  -13.616089   28.522455
  22 H     1.0000    0     1.008   20.898588  -10.661328   28.379266
  23 H     1.0000    0     1.008   18.750472  -11.890058   24.421776
  24 H     1.0000    0     1.008   20.185726  -14.941583   24.506419
  25 H     1.0000    0     1.008   10.628975  -11.463983   29.122612
  26 H     1.0000    0     1.008   12.520758  -12.752331   26.882931
  27 H     1.0000    0     1.008   13.995907  -11.060551   29.511864
  28 H     1.0000    0     1.008    9.400788  -13.952450   32.011972
  29 H     1.0000    0     1.008   12.260654  -20.668477   34.179529
  30 H     1.0000    0     1.008   15.755265  -20.054050   31.900492
  31 H     1.0000    0     1.008   15.145623  -24.009015   30.818821
  32 H     1.0000    0     1.008   13.219945  -27.367386   27.927391
  33 H     1.0000    0     1.008   11.024864  -26.033634   23.966465
  34 H     1.0000    0     1.008   10.245466  -19.653751   22.360725
  35 H     1.0000    0     1.008   11.340276  -18.262767   26.446563

--------------------------------
INTERNAL COORDINATES (ANGSTROEM)
--------------------------------
 C      0   0   0     0.000000000000     0.00000000     0.00000000
 C      1   0   0     1.521197410484     0.00000000     0.00000000
 O      2   1   0     1.473870856140   109.67170805     0.00000000
 C      3   2   1     1.346731105689   122.39688149   261.86724395
 O      4   3   2     1.203285097713   120.16722918    10.03061396
 C      4   3   2     1.523405224248   114.55077243   187.32245843
 C      6   4   3     1.360807680015   127.69503747     0.76760753
 C      7   6   4     1.485211037398   125.83258088    10.55619907
 N      7   6   4     1.293407625263   122.14463331   188.27759978
 C      9   7   6     1.375197935664   124.24220343     9.99050370
 S     10   9   7     1.618470267892   120.59940780   162.85744652
 N     10   9   7     1.341229201674   117.35362533   346.35916689
 C     12  10   9     1.450844032283   123.71928435   358.87117125
 C     13  12  10     1.518096437654   111.79035195   256.28814829
 C     14  13  12     1.376238895158   113.84048733   274.38932856
 C     15  14  13     1.437072786517   118.34858819   171.94343006
 C     16  15  14     1.431040100535   119.89732072     6.34201069
 C     17  16  15     1.396901796776   120.91137042   354.37516273
 O     18  17  16     1.363201040412   122.70392919   184.09163570
 C     14  13  12     1.423844858962   123.90324101    89.81182367
 H      1   2   3     1.096900414016   112.98661238   184.35159111
 H      1   2   3     1.096899964835   106.69788595    63.34022284
 H      1   2   3     1.096903320034   111.42886634   311.47556218
 H      2   1   3     1.096900214744   105.09250089   112.85580575
 H      2   1   3     1.096899999665   109.75993656   229.83207810
 H      8   7   6     1.096899734989   113.06345229   164.60564047
 H      8   7   6     1.096899968880   105.67653754    54.86519089
 H      8   7   6     1.096897190683   112.51536127   291.12351189
 H      9   7   6     1.012899950897   123.28890997   179.81194807
 H     12  10   9     1.012899996380   121.04134907   176.24735836
 H     13  12  10     1.096899963761   103.16465230   139.64125627
 H     15  14  13     1.086000020381   120.04675001   351.80909559
 H     16  15  14     1.086000011494   120.17718043   189.49682339
 H     17  16  15     1.086000069412   118.84748405   176.26868761
 H     19  18  17     0.973000149044   107.74327547   216.47927494
 H     20  14  13     1.086000282069   120.82919905     4.70923497

---------------------------
INTERNAL COORDINATES (A.U.)
---------------------------
 C      0   0   0     0.000000000000     0.00000000     0.00000000
 C      1   0   0     2.874646501444     0.00000000     0.00000000
 O      2   1   0     2.785212274873   109.67170805     0.00000000
 C      3   2   1     2.544952965785   122.39688149   261.86724395
 O      4   3   2     2.273879295706   120.16722918    10.03061396
 C      4   3   2     2.878818664814   114.55077243   187.32245843
 C      6   4   3     2.571553836164   127.69503747     0.76760753
 C      7   6   4     2.806642111759   125.83258088    10.55619907
 N      7   6   4     2.444186191272   122.14463331   188.27759978
 C      9   7   6     2.598747478339   124.24220343     9.99050370
 S     10   9   7     3.058465562210   120.59940780   162.85744652
 N     10   9   7     2.534555873982   117.35362533   346.35916689
 C     12  10   9     2.741697884049   123.71928435   358.87117125
 C     13  12  10     2.868786512048   111.79035195   256.28814829
 C     14  13  12     2.600714606699   113.84048733   274.38932856
 C     15  14  13     2.715674001027   118.34858819   171.94343006
 C     16  15  14     2.704273876670   119.89732072     6.34201069
 C     17  16  15     2.639761831889   120.91137042   354.37516273
 O     18  17  16     2.576076631854   122.70392919   184.09163570
 C     14  13  12     2.690676840630   123.90324101    89.81182367
 H      1   2   3     2.072841378674   112.98661238   184.35159111
 H      1   2   3     2.072840529847   106.69788595    63.34022284
 H      1   2   3     2.072846870253   111.42886634   311.47556218
 H      2   1   3     2.072841002105   105.09250089   112.85580575
 H      2   1   3     2.072840595666   109.75993656   229.83207810
 H      8   7   6     2.072840095500   113.06345229   164.60564047
 H      8   7   6     2.072840537491   105.67653754    54.86519089
 H      8   7   6     2.072835287459   112.51536127   291.12351189
 H      9   7   6     1.914103508258   123.28890997   179.81194807
 H     12  10   9     1.914103594208   121.04134907   176.24735836
 H     13  12  10     2.072840527816   103.16465230   139.64125627
 H     15  14  13     2.052242619954   120.04675001   351.80909559
 H     16  15  14     2.052242603159   120.17718043   189.49682339
 H     17  16  15     2.052242712609   118.84748405   176.26868761
 H     19  18  17     1.838703809958   107.74327547   216.47927494
 H     20  14  13     2.052243114471   120.82919905     4.70923497

---------------------
BASIS SET INFORMATION
---------------------
There are 5 groups of distinct atoms

 Group   1 Type C   : 18s5p2d1f contracted to 4s3p2d1f pattern {8811/311/11/1}
 Group   2 Type O   : 18s5p2d1f contracted to 4s3p2d1f pattern {8811/311/11/1}
 Group   3 Type N   : 18s5p2d1f contracted to 4s3p2d1f pattern {8811/311/11/1}
 Group   4 Type S   : 41s16p2d1f contracted to 5s4p2d1f pattern {13131311/7711/11/1}
 Group   5 Type H   : 5s2p1d contracted to 3s2p1d pattern {311/11/1}

Atom   0C    basis set group =>   1
Atom   1C    basis set group =>   1
Atom   2O    basis set group =>   2
Atom   3C    basis set group =>   1
Atom   4O    basis set group =>   2
Atom   5C    basis set group =>   1
Atom   6C    basis set group =>   1
Atom   7C    basis set group =>   1
Atom   8N    basis set group =>   3
Atom   9C    basis set group =>   1
Atom  10S    basis set group =>   4
Atom  11N    basis set group =>   3
Atom  12C    basis set group =>   1
Atom  13C    basis set group =>   1
Atom  14C    basis set group =>   1
Atom  15C    basis set group =>   1
Atom  16C    basis set group =>   1
Atom  17C    basis set group =>   1
Atom  18O    basis set group =>   2
Atom  19C    basis set group =>   1
Atom  20H    basis set group =>   5
Atom  21H    basis set group =>   5
Atom  22H    basis set group =>   5
Atom  23H    basis set group =>   5
Atom  24H    basis set group =>   5
Atom  25H    basis set group =>   5
Atom  26H    basis set group =>   5
Atom  27H    basis set group =>   5
Atom  28H    basis set group =>   5
Atom  29H    basis set group =>   5
Atom  30H    basis set group =>   5
Atom  31H    basis set group =>   5
Atom  32H    basis set group =>   5
Atom  33H    basis set group =>   5
Atom  34H    basis set group =>   5
Atom  35H    basis set group =>   5
---------------------------------
AUXILIARY/C BASIS SET INFORMATION
---------------------------------
There are 5 groups of distinct atoms

 Group   1 Type C   : 8s6p5d3f1g contracted to 8s6p5d3f1g pattern {11111111/111111/11111/111/1}
 Group   2 Type O   : 8s6p5d3f1g contracted to 8s6p5d3f1g pattern {11111111/111111/11111/111/1}
 Group   3 Type N   : 8s6p5d3f1g contracted to 8s6p5d3f1g pattern {11111111/111111/11111/111/1}
 Group   4 Type S   : 10s8p7d5f2g contracted to 10s8p7d5f2g pattern {1111111111/11111111/1111111/11111/11}
 Group   5 Type H   : 4s3p2d1f contracted to 4s3p2d1f pattern {1111/111/11/1}

Atom   0C    basis set group =>   1
Atom   1C    basis set group =>   1
Atom   2O    basis set group =>   2
Atom   3C    basis set group =>   1
Atom   4O    basis set group =>   2
Atom   5C    basis set group =>   1
Atom   6C    basis set group =>   1
Atom   7C    basis set group =>   1
Atom   8N    basis set group =>   3
Atom   9C    basis set group =>   1
Atom  10S    basis set group =>   4
Atom  11N    basis set group =>   3
Atom  12C    basis set group =>   1
Atom  13C    basis set group =>   1
Atom  14C    basis set group =>   1
Atom  15C    basis set group =>   1
Atom  16C    basis set group =>   1
Atom  17C    basis set group =>   1
Atom  18O    basis set group =>   2
Atom  19C    basis set group =>   1
Atom  20H    basis set group =>   5
Atom  21H    basis set group =>   5
Atom  22H    basis set group =>   5
Atom  23H    basis set group =>   5
Atom  24H    basis set group =>   5
Atom  25H    basis set group =>   5
Atom  26H    basis set group =>   5
Atom  27H    basis set group =>   5
Atom  28H    basis set group =>   5
Atom  29H    basis set group =>   5
Atom  30H    basis set group =>   5
Atom  31H    basis set group =>   5
Atom  32H    basis set group =>   5
Atom  33H    basis set group =>   5
Atom  34H    basis set group =>   5
Atom  35H    basis set group =>   5
------------------------------------------------------------------------------
                           ORCA GTO INTEGRAL CALCULATION
------------------------------------------------------------------------------
------------------------------------------------------------------------------
                   ___                                                        
                  /   \      - P O W E R E D   B Y -                         
                 /     \                                                     
                 |  |  |   _    _      __       _____    __    __             
                 |  |  |  | |  | |    /  \     |  _  \  |  |  /  |          
                  \  \/   | |  | |   /    \    | | | |  |  | /  /          
                 / \  \   | |__| |  /  /\  \   | |_| |  |  |/  /          
                |  |  |   |  __  | /  /__\  \  |    /   |      \           
                |  |  |   | |  | | |   __   |  |    \   |  |\   \          
                \     /   | |  | | |  |  |  |  | |\  \  |  | \   \       
                 \___/    |_|  |_| |__|  |__|  |_| \__\ |__|  \__/        
                                                                              
                      - O R C A' S   B I G   F R I E N D -                    
                                      &                                       
                       - I N T E G R A L  F E E D E R -                       
                                                                              
 v1 FN, 2020, v2 2021                                                         
------------------------------------------------------------------------------


Reading SHARK input file qm_input.vacu.SHARKINP.tmp ... ok
----------------------
SHARK INTEGRAL PACKAGE
----------------------

Number of atoms                             ...     36
Number of basis functions                   ...    828
Number of shells                            ...    298
Maximum angular momentum                    ...      3
Integral batch strategy                     ... SHARK/LIBINT Hybrid
RI-J (if used) integral strategy            ... SPLIT-RIJ (Revised 2003 algorithm where possible)
Printlevel                                  ...      1
Contraction scheme used                     ... SEGMENTED contraction
Coulomb Range Separation                    ... NOT USED
Exchange Range Separation                   ... NOT USED
Finite Nucleus Model                        ... NOT USED
Auxiliary Coulomb fitting basis             ... NOT available
Auxiliary J/K fitting basis                 ... NOT available
Auxiliary Correlation fitting basis         ... AVAILABLE
   # of basis functions in Aux-C            ...   2141
   # of shells in Aux-C                     ...    629
   Maximum angular momentum in Aux-C        ...      4
Auxiliary 'external' fitting basis          ... NOT available
Integral threshold                          ...     2.500000e-11
Primitive cut-off                           ...     2.500000e-12
Primitive pair pre-selection threshold      ...     2.500000e-12

Calculating pre-screening integrals         ... done (  0.6 sec) Dimension = 298
Organizing shell pair data                  ... done (  0.4 sec)
Shell pair information
Total number of shell pairs                 ...     44551
Shell pairs after pre-screening             ...     32271
Total number of primitive shell pairs       ...    234348
Primitive shell pairs kept                  ...     93263
          la=0 lb=0:   6455 shell pairs
          la=1 lb=0:   9003 shell pairs
          la=1 lb=1:   3181 shell pairs
          la=2 lb=0:   5133 shell pairs
          la=2 lb=1:   3528 shell pairs
          la=2 lb=2:    986 shell pairs
          la=3 lb=0:   1860 shell pairs
          la=3 lb=1:   1272 shell pairs
          la=3 lb=2:    712 shell pairs
          la=3 lb=3:    141 shell pairs

Calculating one electron integrals          ... done (  0.4 sec)
Calculating RI/C V-Matrix + Cholesky decomp.... done (  0.4 sec)
Calculating Nuclear repulsion               ... done (  0.0 sec) ENN=   1690.962194259406 Eh

SHARK setup successfully completed in   1.9 seconds

Maximum memory used throughout the entire GTOINT-calculation: 478.7 MB
-------------------------------------------------------------------------------
                                 ORCA SCF
-------------------------------------------------------------------------------

------------
SCF SETTINGS
------------
Hamiltonian:
 Ab initio Hamiltonian  Method          .... Hartree-Fock(GTOs)


General Settings:
 Integral files         IntName         .... qm_input.vacu
 Hartree-Fock type      HFTyp           .... RHF
 Total Charge           Charge          ....    0
 Multiplicity           Mult            ....    1
 Number of Electrons    NEL             ....  154
 Basis Dimension        Dim             ....  828
 Nuclear Repulsion      ENuc            ....   1690.9621942594 Eh

Convergence Acceleration:
 DIIS                   CNVDIIS         .... on
   Start iteration      DIISMaxIt       ....    12
   Startup error        DIISStart       ....  0.200000
   # of expansion vecs  DIISMaxEq       ....     5
   Bias factor          DIISBfac        ....   1.050
   Max. coefficient     DIISMaxC        ....  10.000
 Trust-Rad. Augm. Hess. CNVTRAH         .... auto
   Auto Start mean grad. ratio tolernc. ....  1.125000
   Auto Start start iteration           ....    20
   Auto Start num. interpolation iter.  ....    10
   Max. Number of Micro iterations      ....    16
   Max. Number of Macro iterations      .... Maxiter - #DIIS iter
   Number of Davidson start vectors     ....     2
   Converg. threshold I  (grad. norm)   ....   1.000e-05
   Converg. threshold II (energy diff.) ....   1.000e-08
   Grad. Scal. Fac. for Micro threshold ....   0.100
   Minimum threshold for Micro iter.    ....   0.010
   NR start threshold (gradient norm)   ....   0.001
   Initial trust radius                 ....   0.400
   Minimum AH scaling param. (alpha)    ....   1.000
   Maximum AH scaling param. (alpha)    .... 1000.000
   Orbital update algorithm             .... Taylor
   White noise on init. David. guess    .... on
   Maximum white noise                  ....   0.010
   Quad. conv. algorithm                .... NR
 SOSCF                  CNVSOSCF        .... on
   Start iteration      SOSCFMaxIt      ....   150
   Startup grad/error   SOSCFStart      ....  0.003300
 Level Shifting         CNVShift        .... on
   Level shift para.    LevelShift      ....    0.2500
   Turn off err/grad.   ShiftErr        ....    0.0010
 Zerner damping         CNVZerner       .... off
 Static damping         CNVDamp         .... on
   Fraction old density DampFac         ....    0.7000
   Max. Damping (<1)    DampMax         ....    0.9800
   Min. Damping (>=0)   DampMin         ....    0.0000
   Turn off err/grad.   DampErr         ....    0.1000
 Fernandez-Rico         CNVRico         .... off

SCF Procedure:
 Maximum # iterations   MaxIter         ....   125
 SCF integral mode      SCFMode         .... Direct
   Integral package                     .... SHARK and LIBINT hybrid scheme
 Reset frequency        DirectResetFreq ....    20
 Integral Threshold     Thresh          ....  2.500e-11 Eh
 Primitive CutOff       TCut            ....  2.500e-12 Eh

Convergence Tolerance:
 Convergence Check Mode ConvCheckMode   .... Total+1el-Energy
 Convergence forced     ConvForced      .... 1
 Energy Change          TolE            ....  1.000e-08 Eh
 1-El. energy change                    ....  1.000e-05 Eh
 Orbital Gradient       TolG            ....  1.000e-05
 Orbital Rotation angle TolX            ....  1.000e-05
 DIIS Error             TolErr          ....  5.000e-07


Diagonalization of the overlap matrix:
Smallest eigenvalue                        ... 4.062e-05
Time for diagonalization                   ...    0.154 sec
Threshold for overlap eigenvalues          ... 1.000e-08
Number of eigenvalues below threshold      ... 0
Time for construction of square roots      ...    0.067 sec
Total time needed                          ...    0.225 sec

Time for model grid setup =    1.505 sec

------------------------------
INITIAL GUESS: MODEL POTENTIAL
------------------------------
Loading Hartree-Fock densities                     ... done
Calculating cut-offs                               ... done
Initializing the effective Hamiltonian             ... done
Setting up the integral package (SHARK)            ... done
Starting the Coulomb interaction                   ... done (   4.4 sec)
Reading the grid                                   ... done
Mapping shells                                     ... done
Starting the XC term evaluation                    ... done (   1.5 sec)
Transforming the Hamiltonian                       ... done (   0.1 sec)
Diagonalizing the Hamiltonian                      ... done (   0.1 sec)
Back transforming the eigenvectors                 ... done (   0.0 sec)
Now organizing SCF variables                       ... done
                      ------------------
                      INITIAL GUESS DONE (   7.7 sec)
                      ------------------
--------------
SCF ITERATIONS
--------------
ITER       Energy         Delta-E        Max-DP      RMS-DP      [F,P]     Damp
               ***  Starting incremental Fock matrix formation  ***
  0  -1269.9694227091   0.000000000000 0.05527254  0.00045271  0.3283811 0.7000
  1  -1270.2429569364  -0.273534227309 0.05205207  0.00036691  0.1943548 0.7000
                               ***Turning on DIIS***
  2  -1270.4130979307  -0.170140994255 0.03070060  0.00024244  0.1095926 0.7000
  3  -1272.5976935045  -2.184595573836 0.06317366  0.00050650  0.0829334 0.0000
  4  -1270.7200297816   1.877663722985 0.01714963  0.00010209  0.0071003 0.0000
  5  -1270.7891414702  -0.069111688680 0.00502654  0.00005150  0.0040029 0.0000
                      *** Initiating the SOSCF procedure ***
                           *** Shutting down DIIS ***
                      *** Re-Reading the Fockian *** 
                      *** Removing any level shift *** 
ITER      Energy       Delta-E        Grad      Rot      Max-DP    RMS-DP
  6  -1270.76823124   0.0209102331  0.001756  0.001756  0.001710  0.000025
               *** Restarting incremental Fock matrix formation ***
  7  -1270.78150636  -0.0132751204  0.000811  0.001485  0.001188  0.000015
  8  -1270.78154789  -0.0000415279  0.000367  0.001679  0.001200  0.000015
  9  -1270.78156293  -0.0000150453  0.000122  0.000268  0.000329  0.000004
 10  -1270.78156472  -0.0000017861  0.000033  0.000095  0.000105  0.000001
 11  -1270.78156489  -0.0000001742  0.000023  0.000127  0.000065  0.000001
 12  -1270.78156494  -0.0000000521  0.000008  0.000025  0.000027  0.000000
 13  -1270.78156494  -0.0000000001  0.000003  0.000008  0.000008  0.000000
                 **** Energy Check signals convergence ****
              ***Rediagonalizing the Fockian in SOSCF/NRSCF***

               *****************************************************
               *                     SUCCESS                       *
               *           SCF CONVERGED AFTER  14 CYCLES          *
               *****************************************************


----------------
TOTAL SCF ENERGY
----------------

Total Energy       :        -1270.78156494 Eh          -34579.72438 eV

Components:
Nuclear Repulsion  :         1690.96219426 Eh           46013.42058 eV
Electronic Energy  :        -2961.74375920 Eh          -80593.14496 eV
One Electron Energy:        -5103.03588314 Eh         -138860.66592 eV
Two Electron Energy:         2141.29212394 Eh           58267.52096 eV

Virial components:
Potential Energy   :        -2540.18992323 Eh          -69122.08191 eV
Kinetic Energy     :         1269.40835829 Eh           34542.35753 eV
Virial Ratio       :            2.00108177


---------------
SCF CONVERGENCE
---------------

  Last Energy change         ...    6.2928e-09  Tolerance :   1.0000e-08
  Last MAX-Density change    ...    3.0571e-06  Tolerance :   1.0000e-07
  Last RMS-Density change    ...    3.4297e-08  Tolerance :   5.0000e-09
  Last Orbital Gradient      ...    1.1673e-06  Tolerance :   1.0000e-05
  Last Orbital Rotation      ...    3.8437e-06  Tolerance :   1.0000e-05

             **** THE GBW FILE WAS UPDATED (qm_input.vacu.gbw) ****
             **** DENSITY qm_input.vacu.scfp WAS UPDATED ****
             **** ENERGY FILE WAS UPDATED (qm_input.vacu.en.tmp) ****
             **** THE GBW FILE WAS UPDATED (qm_input.vacu.gbw) ****
             **** DENSITY qm_input.vacu.scfp WAS UPDATED ****
----------------
ORBITAL ENERGIES
----------------

  NO   OCC          E(Eh)            E(eV) 
   0   2.0000     -91.890595     -2500.4702 
   1   2.0000     -20.598059      -560.5017 
   2   2.0000     -20.593047      -560.3653 
   3   2.0000     -20.534675      -558.7769 
   4   2.0000     -15.631824      -425.3635 
   5   2.0000     -15.611287      -424.8047 
   6   2.0000     -11.386837      -309.8516 
   7   2.0000     -11.380669      -309.6837 
   8   2.0000     -11.325060      -308.1706 
   9   2.0000     -11.312644      -307.8327 
  10   2.0000     -11.302206      -307.5487 
  11   2.0000     -11.298196      -307.4396 
  12   2.0000     -11.256678      -306.3098 
  13   2.0000     -11.255541      -306.2788 
  14   2.0000     -11.250258      -306.1351 
  15   2.0000     -11.247703      -306.0656 
  16   2.0000     -11.241836      -305.9059 
  17   2.0000     -11.238928      -305.8268 
  18   2.0000     -11.234701      -305.7118 
  19   2.0000     -11.227508      -305.5160 
  20   2.0000      -8.897295      -242.1077 
  21   2.0000      -6.579017      -179.0242 
  22   2.0000      -6.576867      -178.9656 
  23   2.0000      -6.576229      -178.9483 
  24   2.0000      -1.453752       -39.5586 
  25   2.0000      -1.408273       -38.3211 
  26   2.0000      -1.371871       -37.3305 
  27   2.0000      -1.350808       -36.7574 
  28   2.0000      -1.264949       -34.4210 
  29   2.0000      -1.153316       -31.3833 
  30   2.0000      -1.118031       -30.4232 
  31   2.0000      -1.047288       -28.4982 
  32   2.0000      -1.041402       -28.3380 
  33   2.0000      -1.006503       -27.3883 
  34   2.0000      -0.999996       -27.2113 
  35   2.0000      -0.994571       -27.0637 
  36   2.0000      -0.925237       -25.1770 
  37   2.0000      -0.890012       -24.2185 
  38   2.0000      -0.862637       -23.4735 
  39   2.0000      -0.844642       -22.9839 
  40   2.0000      -0.825581       -22.4652 
  41   2.0000      -0.804244       -21.8846 
  42   2.0000      -0.760924       -20.7058 
  43   2.0000      -0.747121       -20.3302 
  44   2.0000      -0.732842       -19.9417 
  45   2.0000      -0.701451       -19.0875 
  46   2.0000      -0.693273       -18.8649 
  47   2.0000      -0.676609       -18.4115 
  48   2.0000      -0.668702       -18.1963 
  49   2.0000      -0.660183       -17.9645 
  50   2.0000      -0.657313       -17.8864 
  51   2.0000      -0.639329       -17.3970 
  52   2.0000      -0.631426       -17.1820 
  53   2.0000      -0.627245       -17.0682 
  54   2.0000      -0.611498       -16.6397 
  55   2.0000      -0.606847       -16.5131 
  56   2.0000      -0.594338       -16.1728 
  57   2.0000      -0.580167       -15.7871 
  58   2.0000      -0.571481       -15.5508 
  59   2.0000      -0.564608       -15.3638 
  60   2.0000      -0.557686       -15.1754 
  61   2.0000      -0.536162       -14.5897 
  62   2.0000      -0.534395       -14.5416 
  63   2.0000      -0.529209       -14.4005 
  64   2.0000      -0.519664       -14.1408 
  65   2.0000      -0.510551       -13.8928 
  66   2.0000      -0.500096       -13.6083 
  67   2.0000      -0.497461       -13.5366 
  68   2.0000      -0.477312       -12.9883 
  69   2.0000      -0.463325       -12.6077 
  70   2.0000      -0.454465       -12.3666 
  71   2.0000      -0.448086       -12.1930 
  72   2.0000      -0.351186        -9.5563 
  73   2.0000      -0.342526        -9.3206 
  74   2.0000      -0.331356        -9.0166 
  75   2.0000      -0.321717        -8.7544 
  76   2.0000      -0.314497        -8.5579 
  77   0.0000       0.083592         2.2747 
  78   0.0000       0.101519         2.7625 
  79   0.0000       0.114161         3.1065 
  80   0.0000       0.130449         3.5497 
  81   0.0000       0.137386         3.7385 
  82   0.0000       0.138212         3.7609 
  83   0.0000       0.143562         3.9065 
  84   0.0000       0.162696         4.4272 
  85   0.0000       0.164496         4.4762 
  86   0.0000       0.171094         4.6557 
  87   0.0000       0.175739         4.7821 
  88   0.0000       0.191327         5.2063 
  89   0.0000       0.195499         5.3198 
  90   0.0000       0.201697         5.4884 
  91   0.0000       0.204844         5.5741 
  92   0.0000       0.211977         5.7682 
  93   0.0000       0.221166         6.0182 
  94   0.0000       0.226408         6.1609 
  95   0.0000       0.240354         6.5404 
  96   0.0000       0.249630         6.7928 
  97   0.0000       0.250111         6.8059 
  98   0.0000       0.259845         7.0707 
  99   0.0000       0.273312         7.4372 
 100   0.0000       0.285100         7.7580 
 101   0.0000       0.294391         8.0108 
 102   0.0000       0.311938         8.4883 
 103   0.0000       0.316523         8.6130 
 104   0.0000       0.328790         8.9468 
 105   0.0000       0.336324         9.1519 
 106   0.0000       0.341937         9.3046 
 107   0.0000       0.358085         9.7440 
 108   0.0000       0.363264         9.8849 
 109   0.0000       0.364122         9.9083 
 110   0.0000       0.369569        10.0565 
 111   0.0000       0.373247        10.1566 
 112   0.0000       0.385665        10.4945 
 113   0.0000       0.390324        10.6213 
 114   0.0000       0.394986        10.7481 
 115   0.0000       0.401569        10.9272 
 116   0.0000       0.407081        11.0772 
 117   0.0000       0.418996        11.4015 
 118   0.0000       0.428199        11.6519 
 119   0.0000       0.439455        11.9582 
 120   0.0000       0.445583        12.1249 
 121   0.0000       0.448205        12.1963 
 122   0.0000       0.457595        12.4518 
 123   0.0000       0.460610        12.5338 
 124   0.0000       0.463660        12.6168 
 125   0.0000       0.467201        12.7132 
 126   0.0000       0.480348        13.0709 
 127   0.0000       0.483479        13.1561 
 128   0.0000       0.491040        13.3619 
 129   0.0000       0.496320        13.5055 
 130   0.0000       0.497837        13.5468 
 131   0.0000       0.505570        13.7573 
 132   0.0000       0.508167        13.8279 
 133   0.0000       0.513337        13.9686 
 134   0.0000       0.516200        14.0465 
 135   0.0000       0.530812        14.4441 
 136   0.0000       0.533342        14.5130 
 137   0.0000       0.541870        14.7450 
 138   0.0000       0.545525        14.8445 
 139   0.0000       0.549414        14.9503 
 140   0.0000       0.550859        14.9896 
 141   0.0000       0.557355        15.1664 
 142   0.0000       0.568631        15.4732 
 143   0.0000       0.574746        15.6396 
 144   0.0000       0.579679        15.7739 
 145   0.0000       0.582926        15.8622 
 146   0.0000       0.583507        15.8780 
 147   0.0000       0.588478        16.0133 
 148   0.0000       0.594786        16.1850 
 149   0.0000       0.600005        16.3270 
 150   0.0000       0.601878        16.3779 
 151   0.0000       0.603265        16.4157 
 152   0.0000       0.607796        16.5390 
 153   0.0000       0.610940        16.6245 
 154   0.0000       0.617244        16.7961 
 155   0.0000       0.621804        16.9202 
 156   0.0000       0.622592        16.9416 
 157   0.0000       0.631658        17.1883 
 158   0.0000       0.639212        17.3938 
 159   0.0000       0.642701        17.4888 
 160   0.0000       0.646176        17.5833 
 161   0.0000       0.650787        17.7088 
 162   0.0000       0.657848        17.9010 
 163   0.0000       0.662622        18.0309 
 164   0.0000       0.665137        18.0993 
 165   0.0000       0.668754        18.1977 
 166   0.0000       0.675241        18.3742 
 167   0.0000       0.678724        18.4690 
 168   0.0000       0.688191        18.7266 
 169   0.0000       0.690151        18.7800 
 170   0.0000       0.696703        18.9583 
 171   0.0000       0.703333        19.1387 
 172   0.0000       0.710352        19.3297 
 173   0.0000       0.725657        19.7461 
 174   0.0000       0.732321        19.9275 
 175   0.0000       0.734480        19.9862 
 176   0.0000       0.743252        20.2249 
 177   0.0000       0.748347        20.3636 
 178   0.0000       0.757195        20.6043 
 179   0.0000       0.767658        20.8890 
 180   0.0000       0.771811        21.0020 
 181   0.0000       0.775257        21.0958 
 182   0.0000       0.782504        21.2930 
 183   0.0000       0.794547        21.6207 
 184   0.0000       0.796944        21.6860 
 185   0.0000       0.806385        21.9428 
 186   0.0000       0.811792        22.0900 
 187   0.0000       0.817460        22.2442 
 188   0.0000       0.820977        22.3399 
 189   0.0000       0.826682        22.4951 
 190   0.0000       0.838094        22.8057 
 191   0.0000       0.842762        22.9327 
 192   0.0000       0.859641        23.3920 
 193   0.0000       0.863133        23.4870 
 194   0.0000       0.867378        23.6026 
 195   0.0000       0.874797        23.8044 
 196   0.0000       0.882496        24.0139 
 197   0.0000       0.885249        24.0888 
 198   0.0000       0.900935        24.5157 
 199   0.0000       0.906146        24.6575 
 200   0.0000       0.912769        24.8377 
 201   0.0000       0.917529        24.9672 
 202   0.0000       0.921698        25.0807 
 203   0.0000       0.928265        25.2594 
 204   0.0000       0.929267        25.2866 
 205   0.0000       0.945583        25.7306 
 206   0.0000       0.951376        25.8883 
 207   0.0000       0.965759        26.2796 
 208   0.0000       0.968700        26.3597 
 209   0.0000       0.977954        26.6115 
 210   0.0000       0.986259        26.8375 
 211   0.0000       0.988666        26.9030 
 212   0.0000       0.994790        27.0696 
 213   0.0000       1.000970        27.2378 
 214   0.0000       1.014257        27.5993 
 215   0.0000       1.020499        27.7692 
 216   0.0000       1.021997        27.8100 
 217   0.0000       1.033091        28.1118 
 218   0.0000       1.035391        28.1744 
 219   0.0000       1.042934        28.3797 
 220   0.0000       1.050168        28.5765 
 221   0.0000       1.056558        28.7504 
 222   0.0000       1.059955        28.8428 
 223   0.0000       1.070692        29.1350 
 224   0.0000       1.075192        29.2575 
 225   0.0000       1.099135        29.9090 
 226   0.0000       1.108753        30.1707 
 227   0.0000       1.110724        30.2243 
 228   0.0000       1.117819        30.4174 
 229   0.0000       1.125842        30.6357 
 230   0.0000       1.129989        30.7486 
 231   0.0000       1.139098        30.9964 
 232   0.0000       1.144073        31.1318 
 233   0.0000       1.153134        31.3784 
 234   0.0000       1.161804        31.6143 
 235   0.0000       1.164453        31.6864 
 236   0.0000       1.170112        31.8404 
 237   0.0000       1.176298        32.0087 
 238   0.0000       1.184651        32.2360 
 239   0.0000       1.192026        32.4367 
 240   0.0000       1.196960        32.5709 
 241   0.0000       1.203919        32.7603 
 242   0.0000       1.204770        32.7835 
 243   0.0000       1.209896        32.9229 
 244   0.0000       1.230873        33.4938 
 245   0.0000       1.233758        33.5723 
 246   0.0000       1.238121        33.6910 
 247   0.0000       1.242743        33.8167 
 248   0.0000       1.244617        33.8677 
 249   0.0000       1.253805        34.1178 
 250   0.0000       1.265407        34.4335 
 251   0.0000       1.269422        34.5427 
 252   0.0000       1.282374        34.8952 
 253   0.0000       1.290432        35.1144 
 254   0.0000       1.298109        35.3233 
 255   0.0000       1.307762        35.5860 
 256   0.0000       1.318171        35.8692 
 257   0.0000       1.326416        36.0936 
 258   0.0000       1.333118        36.2760 
 259   0.0000       1.335002        36.3272 
 260   0.0000       1.337636        36.3989 
 261   0.0000       1.343593        36.5610 
 262   0.0000       1.355486        36.8846 
 263   0.0000       1.368565        37.2405 
 264   0.0000       1.370971        37.3060 
 265   0.0000       1.378323        37.5061 
 266   0.0000       1.380715        37.5712 
 267   0.0000       1.395068        37.9617 
 268   0.0000       1.400406        38.1070 
 269   0.0000       1.411518        38.4094 
 270   0.0000       1.414766        38.4978 
 271   0.0000       1.423015        38.7222 
 272   0.0000       1.428468        38.8706 
 273   0.0000       1.436141        39.0794 
 274   0.0000       1.444994        39.3203 
 275   0.0000       1.453323        39.5469 
 276   0.0000       1.459971        39.7278 
 277   0.0000       1.469468        39.9863 
 278   0.0000       1.475006        40.1369 
 279   0.0000       1.489387        40.5283 
 280   0.0000       1.495459        40.6935 
 281   0.0000       1.499002        40.7899 
 282   0.0000       1.505902        40.9777 
 283   0.0000       1.510339        41.0984 
 284   0.0000       1.519402        41.3450 
 285   0.0000       1.525804        41.5192 
 286   0.0000       1.532500        41.7015 
 287   0.0000       1.539257        41.8853 
 288   0.0000       1.547018        42.0965 
 289   0.0000       1.549878        42.1743 
 290   0.0000       1.561695        42.4959 
 291   0.0000       1.565027        42.5865 
 292   0.0000       1.573604        42.8199 
 293   0.0000       1.580132        42.9976 
 294   0.0000       1.590800        43.2879 
 295   0.0000       1.592974        43.3470 
 296   0.0000       1.598055        43.4853 
 297   0.0000       1.605894        43.6986 
 298   0.0000       1.608666        43.7740 
 299   0.0000       1.626637        44.2630 
 300   0.0000       1.629616        44.3441 
 301   0.0000       1.634616        44.4802 
 302   0.0000       1.638031        44.5731 
 303   0.0000       1.647331        44.8261 
 304   0.0000       1.656157        45.0663 
 305   0.0000       1.677542        45.6482 
 306   0.0000       1.688162        45.9372 
 307   0.0000       1.695557        46.1385 
 308   0.0000       1.703117        46.3442 
 309   0.0000       1.711209        46.5644 
 310   0.0000       1.716563        46.7101 
 311   0.0000       1.727613        47.0108 
 312   0.0000       1.731418        47.1143 
 313   0.0000       1.738143        47.2973 
 314   0.0000       1.752780        47.6956 
 315   0.0000       1.763252        47.9805 
 316   0.0000       1.781127        48.4669 
 317   0.0000       1.789026        48.6819 
 318   0.0000       1.798224        48.9322 
 319   0.0000       1.801621        49.0246 
 320   0.0000       1.806800        49.1655 
 321   0.0000       1.827378        49.7255 
 322   0.0000       1.842886        50.1475 
 323   0.0000       1.851719        50.3878 
 324   0.0000       1.855502        50.4908 
 325   0.0000       1.883013        51.2394 
 326   0.0000       1.888381        51.3855 
 327   0.0000       1.890430        51.4412 
 328   0.0000       1.894113        51.5414 
 329   0.0000       1.903568        51.7987 
 330   0.0000       1.918531        52.2059 
 331   0.0000       1.928012        52.4639 
 332   0.0000       1.946518        52.9675 
 333   0.0000       1.959756        53.3277 
 334   0.0000       1.976085        53.7720 
 335   0.0000       1.983985        53.9870 
 336   0.0000       1.993280        54.2399 
 337   0.0000       2.000858        54.4461 
 338   0.0000       2.005804        54.5807 
 339   0.0000       2.006475        54.5990 
 340   0.0000       2.024855        55.0991 
 341   0.0000       2.048386        55.7394 
 342   0.0000       2.055888        55.9435 
 343   0.0000       2.066259        56.2258 
 344   0.0000       2.091607        56.9155 
 345   0.0000       2.107521        57.3486 
 346   0.0000       2.130832        57.9829 
 347   0.0000       2.140560        58.2476 
 348   0.0000       2.154736        58.6333 
 349   0.0000       2.166471        58.9527 
 350   0.0000       2.178750        59.2868 
 351   0.0000       2.199800        59.8596 
 352   0.0000       2.222207        60.4693 
 353   0.0000       2.229603        60.6706 
 354   0.0000       2.239305        60.9346 
 355   0.0000       2.260221        61.5037 
 356   0.0000       2.265789        61.6553 
 357   0.0000       2.277538        61.9750 
 358   0.0000       2.278378        61.9978 
 359   0.0000       2.301934        62.6388 
 360   0.0000       2.308432        62.8156 
 361   0.0000       2.320409        63.1415 
 362   0.0000       2.337446        63.6051 
 363   0.0000       2.346352        63.8475 
 364   0.0000       2.359022        64.1922 
 365   0.0000       2.384212        64.8777 
 366   0.0000       2.389776        65.0291 
 367   0.0000       2.396592        65.2146 
 368   0.0000       2.409143        65.5561 
 369   0.0000       2.418355        65.8068 
 370   0.0000       2.432174        66.1828 
 371   0.0000       2.444966        66.5309 
 372   0.0000       2.446220        66.5650 
 373   0.0000       2.479142        67.4609 
 374   0.0000       2.492631        67.8279 
 375   0.0000       2.498703        67.9932 
 376   0.0000       2.512602        68.3714 
 377   0.0000       2.528450        68.8026 
 378   0.0000       2.538113        69.0656 
 379   0.0000       2.552220        69.4494 
 380   0.0000       2.566133        69.8280 
 381   0.0000       2.577175        70.1285 
 382   0.0000       2.588357        70.4328 
 383   0.0000       2.606399        70.9237 
 384   0.0000       2.608392        70.9780 
 385   0.0000       2.629694        71.5576 
 386   0.0000       2.635320        71.7107 
 387   0.0000       2.652453        72.1769 
 388   0.0000       2.660963        72.4085 
 389   0.0000       2.668777        72.6211 
 390   0.0000       2.678245        72.8788 
 391   0.0000       2.695437        73.3466 
 392   0.0000       2.709365        73.7256 
 393   0.0000       2.720829        74.0375 
 394   0.0000       2.728862        74.2561 
 395   0.0000       2.746476        74.7354 
 396   0.0000       2.753256        74.9199 
 397   0.0000       2.756446        75.0067 
 398   0.0000       2.765893        75.2638 
 399   0.0000       2.775108        75.5145 
 400   0.0000       2.786248        75.8177 
 401   0.0000       2.794583        76.0445 
 402   0.0000       2.798242        76.1440 
 403   0.0000       2.809294        76.4448 
 404   0.0000       2.822395        76.8013 
 405   0.0000       2.825721        76.8918 
 406   0.0000       2.828500        76.9674 
 407   0.0000       2.844858        77.4125 
 408   0.0000       2.847521        77.4850 
 409   0.0000       2.860667        77.8427 
 410   0.0000       2.872235        78.1575 
 411   0.0000       2.881543        78.4108 
 412   0.0000       2.896295        78.8122 
 413   0.0000       2.899092        78.8883 
 414   0.0000       2.910501        79.1988 
 415   0.0000       2.918596        79.4190 
 416   0.0000       2.930465        79.7420 
 417   0.0000       2.940630        80.0186 
 418   0.0000       2.946159        80.1691 
 419   0.0000       2.961089        80.5753 
 420   0.0000       2.966315        80.7175 
 421   0.0000       2.974321        80.9354 
 422   0.0000       2.983617        81.1883 
 423   0.0000       2.991347        81.3987 
 424   0.0000       3.008118        81.8550 
 425   0.0000       3.010980        81.9329 
 426   0.0000       3.017824        82.1192 
 427   0.0000       3.030221        82.4565 
 428   0.0000       3.034016        82.5598 
 429   0.0000       3.039123        82.6988 
 430   0.0000       3.042803        82.7989 
 431   0.0000       3.055123        83.1341 
 432   0.0000       3.062754        83.3418 
 433   0.0000       3.069790        83.5332 
 434   0.0000       3.078132        83.7602 
 435   0.0000       3.085895        83.9715 
 436   0.0000       3.091632        84.1276 
 437   0.0000       3.097595        84.2899 
 438   0.0000       3.104156        84.4684 
 439   0.0000       3.106531        84.5330 
 440   0.0000       3.112210        84.6875 
 441   0.0000       3.122719        84.9735 
 442   0.0000       3.129560        85.1597 
 443   0.0000       3.141828        85.4935 
 444   0.0000       3.145324        85.5886 
 445   0.0000       3.147330        85.6432 
 446   0.0000       3.154707        85.8439 
 447   0.0000       3.165171        86.1287 
 448   0.0000       3.174064        86.3707 
 449   0.0000       3.179539        86.5197 
 450   0.0000       3.183496        86.6273 
 451   0.0000       3.197170        86.9994 
 452   0.0000       3.216066        87.5136 
 453   0.0000       3.226591        87.8000 
 454   0.0000       3.227829        87.8337 
 455   0.0000       3.239087        88.1400 
 456   0.0000       3.249969        88.4361 
 457   0.0000       3.254821        88.5682 
 458   0.0000       3.260139        88.7129 
 459   0.0000       3.270206        88.9868 
 460   0.0000       3.273010        89.0631 
 461   0.0000       3.277156        89.1760 
 462   0.0000       3.280193        89.2586 
 463   0.0000       3.286873        89.4404 
 464   0.0000       3.290123        89.5288 
 465   0.0000       3.305828        89.9562 
 466   0.0000       3.307309        89.9965 
 467   0.0000       3.310237        90.0761 
 468   0.0000       3.319643        90.3321 
 469   0.0000       3.325291        90.4858 
 470   0.0000       3.331991        90.6681 
 471   0.0000       3.341011        90.9135 
 472   0.0000       3.346148        91.0533 
 473   0.0000       3.362318        91.4933 
 474   0.0000       3.364321        91.5478 
 475   0.0000       3.366577        91.6092 
 476   0.0000       3.374456        91.8236 
 477   0.0000       3.380754        91.9950 
 478   0.0000       3.386011        92.1380 
 479   0.0000       3.391889        92.2980 
 480   0.0000       3.396176        92.4147 
 481   0.0000       3.400240        92.5252 
 482   0.0000       3.409802        92.7854 
 483   0.0000       3.415603        92.9433 
 484   0.0000       3.420243        93.0695 
 485   0.0000       3.432500        93.4031 
 486   0.0000       3.434249        93.4507 
 487   0.0000       3.435852        93.4943 
 488   0.0000       3.441858        93.6577 
 489   0.0000       3.444533        93.7305 
 490   0.0000       3.450855        93.9025 
 491   0.0000       3.453036        93.9619 
 492   0.0000       3.455614        94.0320 
 493   0.0000       3.466775        94.3358 
 494   0.0000       3.479011        94.6687 
 495   0.0000       3.483718        94.7968 
 496   0.0000       3.501713        95.2865 
 497   0.0000       3.504779        95.3699 
 498   0.0000       3.507887        95.4545 
 499   0.0000       3.517347        95.7119 
 500   0.0000       3.524507        95.9067 
 501   0.0000       3.526566        95.9628 
 502   0.0000       3.534776        96.1861 
 503   0.0000       3.542525        96.3970 
 504   0.0000       3.548299        96.5541 
 505   0.0000       3.553612        96.6987 
 506   0.0000       3.560581        96.8883 
 507   0.0000       3.567885        97.0871 
 508   0.0000       3.571576        97.1875 
 509   0.0000       3.588766        97.6553 
 510   0.0000       3.592684        97.7619 
 511   0.0000       3.597507        97.8931 
 512   0.0000       3.601602        98.0046 
 513   0.0000       3.614716        98.3614 
 514   0.0000       3.621372        98.5425 
 515   0.0000       3.626827        98.6910 
 516   0.0000       3.633209        98.8646 
 517   0.0000       3.636649        98.9582 
 518   0.0000       3.645002        99.1855 
 519   0.0000       3.645713        99.2049 
 520   0.0000       3.656412        99.4960 
 521   0.0000       3.663179        99.6802 
 522   0.0000       3.666313        99.7655 
 523   0.0000       3.670662        99.8838 
 524   0.0000       3.678132       100.0871 
 525   0.0000       3.684280       100.2544 
 526   0.0000       3.692321       100.4731 
 527   0.0000       3.694777       100.5400 
 528   0.0000       3.706955       100.8714 
 529   0.0000       3.716586       101.1334 
 530   0.0000       3.720418       101.2377 
 531   0.0000       3.726897       101.4140 
 532   0.0000       3.734182       101.6122 
 533   0.0000       3.738125       101.7195 
 534   0.0000       3.741721       101.8174 
 535   0.0000       3.750448       102.0549 
 536   0.0000       3.754077       102.1536 
 537   0.0000       3.758496       102.2739 
 538   0.0000       3.765779       102.4721 
 539   0.0000       3.767457       102.5177 
 540   0.0000       3.781598       102.9025 
 541   0.0000       3.790318       103.1398 
 542   0.0000       3.792841       103.2084 
 543   0.0000       3.796824       103.3168 
 544   0.0000       3.802273       103.4651 
 545   0.0000       3.806634       103.5838 
 546   0.0000       3.817184       103.8709 
 547   0.0000       3.825586       104.0995 
 548   0.0000       3.835929       104.3809 
 549   0.0000       3.841343       104.5283 
 550   0.0000       3.856530       104.9415 
 551   0.0000       3.870573       105.3237 
 552   0.0000       3.874134       105.4206 
 553   0.0000       3.887347       105.7801 
 554   0.0000       3.896276       106.0231 
 555   0.0000       3.901590       106.1676 
 556   0.0000       3.923730       106.7701 
 557   0.0000       3.933432       107.0341 
 558   0.0000       3.935672       107.0951 
 559   0.0000       3.948364       107.4404 
 560   0.0000       3.958334       107.7117 
 561   0.0000       3.967251       107.9544 
 562   0.0000       3.975366       108.1752 
 563   0.0000       3.982304       108.3640 
 564   0.0000       3.997964       108.7901 
 565   0.0000       4.003547       108.9421 
 566   0.0000       4.017041       109.3092 
 567   0.0000       4.019580       109.3783 
 568   0.0000       4.021981       109.4437 
 569   0.0000       4.028407       109.6185 
 570   0.0000       4.036311       109.8336 
 571   0.0000       4.046701       110.1163 
 572   0.0000       4.049506       110.1926 
 573   0.0000       4.064065       110.5888 
 574   0.0000       4.073940       110.8575 
 575   0.0000       4.079157       110.9995 
 576   0.0000       4.085463       111.1711 
 577   0.0000       4.089905       111.2920 
 578   0.0000       4.092774       111.3700 
 579   0.0000       4.099631       111.5566 
 580   0.0000       4.115718       111.9944 
 581   0.0000       4.122160       112.1697 
 582   0.0000       4.132591       112.4535 
 583   0.0000       4.136612       112.5629 
 584   0.0000       4.148319       112.8815 
 585   0.0000       4.153219       113.0148 
 586   0.0000       4.155928       113.0886 
 587   0.0000       4.161497       113.2401 
 588   0.0000       4.171308       113.5070 
 589   0.0000       4.174252       113.5872 
 590   0.0000       4.185426       113.8912 
 591   0.0000       4.192546       114.0850 
 592   0.0000       4.195624       114.1687 
 593   0.0000       4.207575       114.4939 
 594   0.0000       4.210001       114.5600 
 595   0.0000       4.221790       114.8808 
 596   0.0000       4.228076       115.0518 
 597   0.0000       4.236957       115.2935 
 598   0.0000       4.238142       115.3257 
 599   0.0000       4.246698       115.5585 
 600   0.0000       4.253315       115.7386 
 601   0.0000       4.258150       115.8702 
 602   0.0000       4.269775       116.1865 
 603   0.0000       4.278471       116.4231 
 604   0.0000       4.281218       116.4979 
 605   0.0000       4.297640       116.9447 
 606   0.0000       4.307353       117.2090 
 607   0.0000       4.312956       117.3615 
 608   0.0000       4.323862       117.6583 
 609   0.0000       4.333415       117.9182 
 610   0.0000       4.339233       118.0765 
 611   0.0000       4.342718       118.1714 
 612   0.0000       4.347876       118.3117 
 613   0.0000       4.360224       118.6477 
 614   0.0000       4.367130       118.8356 
 615   0.0000       4.369718       118.9061 
 616   0.0000       4.378738       119.1515 
 617   0.0000       4.384279       119.3023 
 618   0.0000       4.394551       119.5818 
 619   0.0000       4.399482       119.7160 
 620   0.0000       4.406251       119.9002 
 621   0.0000       4.417354       120.2023 
 622   0.0000       4.428404       120.5030 
 623   0.0000       4.430832       120.5691 
 624   0.0000       4.441752       120.8662 
 625   0.0000       4.448436       121.0481 
 626   0.0000       4.454135       121.2032 
 627   0.0000       4.462930       121.4425 
 628   0.0000       4.470094       121.6374 
 629   0.0000       4.476904       121.8228 
 630   0.0000       4.486509       122.0841 
 631   0.0000       4.493718       122.2803 
 632   0.0000       4.504493       122.5735 
 633   0.0000       4.515557       122.8746 
 634   0.0000       4.529711       123.2597 
 635   0.0000       4.542027       123.5948 
 636   0.0000       4.549386       123.7951 
 637   0.0000       4.555135       123.9515 
 638   0.0000       4.570600       124.3723 
 639   0.0000       4.582751       124.7030 
 640   0.0000       4.591544       124.9423 
 641   0.0000       4.599665       125.1632 
 642   0.0000       4.602180       125.2317 
 643   0.0000       4.617262       125.6421 
 644   0.0000       4.621211       125.7496 
 645   0.0000       4.628115       125.9374 
 646   0.0000       4.631631       126.0331 
 647   0.0000       4.635870       126.1484 
 648   0.0000       4.643740       126.3626 
 649   0.0000       4.656386       126.7067 
 650   0.0000       4.658126       126.7540 
 651   0.0000       4.668645       127.0403 
 652   0.0000       4.684430       127.4698 
 653   0.0000       4.699970       127.8927 
 654   0.0000       4.702973       127.9744 
 655   0.0000       4.712264       128.2272 
 656   0.0000       4.733030       128.7923 
 657   0.0000       4.743455       129.0760 
 658   0.0000       4.749832       129.2495 
 659   0.0000       4.758634       129.4890 
 660   0.0000       4.767658       129.7346 
 661   0.0000       4.772831       129.8753 
 662   0.0000       4.793836       130.4469 
 663   0.0000       4.801997       130.6690 
 664   0.0000       4.808439       130.8443 
 665   0.0000       4.830808       131.4530 
 666   0.0000       4.847056       131.8951 
 667   0.0000       4.854344       132.0934 
 668   0.0000       4.863006       132.3291 
 669   0.0000       4.884957       132.9264 
 670   0.0000       4.910397       133.6187 
 671   0.0000       4.934590       134.2770 
 672   0.0000       4.956485       134.8728 
 673   0.0000       4.971655       135.2856 
 674   0.0000       4.979847       135.5085 
 675   0.0000       4.993409       135.8776 
 676   0.0000       5.008024       136.2753 
 677   0.0000       5.029769       136.8670 
 678   0.0000       5.037297       137.0718 
 679   0.0000       5.045898       137.3059 
 680   0.0000       5.055597       137.5698 
 681   0.0000       5.070616       137.9785 
 682   0.0000       5.079860       138.2300 
 683   0.0000       5.089437       138.4906 
 684   0.0000       5.101595       138.8215 
 685   0.0000       5.115592       139.2023 
 686   0.0000       5.129204       139.5727 
 687   0.0000       5.138802       139.8339 
 688   0.0000       5.149726       140.1312 
 689   0.0000       5.165182       140.5518 
 690   0.0000       5.171018       140.7105 
 691   0.0000       5.180642       140.9724 
 692   0.0000       5.187302       141.1537 
 693   0.0000       5.202324       141.5624 
 694   0.0000       5.213694       141.8718 
 695   0.0000       5.227019       142.2344 
 696   0.0000       5.237563       142.5213 
 697   0.0000       5.241436       142.6267 
 698   0.0000       5.251602       142.9034 
 699   0.0000       5.272942       143.4841 
 700   0.0000       5.281148       143.7073 
 701   0.0000       5.299943       144.2188 
 702   0.0000       5.300317       144.2290 
 703   0.0000       5.305038       144.3574 
 704   0.0000       5.341830       145.3586 
 705   0.0000       5.342432       145.3750 
 706   0.0000       5.356247       145.7509 
 707   0.0000       5.368084       146.0730 
 708   0.0000       5.380795       146.4189 
 709   0.0000       5.392474       146.7367 
 710   0.0000       5.413230       147.3015 
 711   0.0000       5.427128       147.6797 
 712   0.0000       5.433730       147.8593 
 713   0.0000       5.457160       148.4969 
 714   0.0000       5.471881       148.8974 
 715   0.0000       5.483405       149.2110 
 716   0.0000       5.494124       149.5027 
 717   0.0000       5.505277       149.8062 
 718   0.0000       5.521075       150.2361 
 719   0.0000       5.529667       150.4699 
 720   0.0000       5.545721       150.9067 
 721   0.0000       5.564561       151.4194 
 722   0.0000       5.587744       152.0503 
 723   0.0000       5.594899       152.2450 
 724   0.0000       5.607887       152.5984 
 725   0.0000       5.609766       152.6495 
 726   0.0000       5.615553       152.8070 
 727   0.0000       5.622891       153.0066 
 728   0.0000       5.633869       153.3054 
 729   0.0000       5.643577       153.5695 
 730   0.0000       5.658895       153.9864 
 731   0.0000       5.671025       154.3164 
 732   0.0000       5.690079       154.8349 
 733   0.0000       5.711972       155.4307 
 734   0.0000       5.715993       155.5401 
 735   0.0000       5.733997       156.0300 
 736   0.0000       5.747721       156.4035 
 737   0.0000       5.750789       156.4869 
 738   0.0000       5.759219       156.7163 
 739   0.0000       5.774278       157.1261 
 740   0.0000       5.781592       157.3251 
 741   0.0000       5.794793       157.6843 
 742   0.0000       5.812029       158.1534 
 743   0.0000       5.857534       159.3916 
 744   0.0000       5.859795       159.4531 
 745   0.0000       5.869799       159.7253 
 746   0.0000       5.874047       159.8409 
 747   0.0000       5.893724       160.3764 
 748   0.0000       5.913747       160.9212 
 749   0.0000       5.932814       161.4401 
 750   0.0000       5.959254       162.1595 
 751   0.0000       5.989905       162.9936 
 752   0.0000       6.007318       163.4674 
 753   0.0000       6.014447       163.6614 
 754   0.0000       6.027376       164.0132 
 755   0.0000       6.041810       164.4060 
 756   0.0000       6.067284       165.0992 
 757   0.0000       6.078886       165.4149 
 758   0.0000       6.113597       166.3594 
 759   0.0000       6.130134       166.8094 
 760   0.0000       6.151082       167.3795 
 761   0.0000       6.167962       167.8388 
 762   0.0000       6.173593       167.9920 
 763   0.0000       6.202863       168.7885 
 764   0.0000       6.229918       169.5247 
 765   0.0000       6.247226       169.9957 
 766   0.0000       6.259261       170.3232 
 767   0.0000       6.287924       171.1031 
 768   0.0000       6.300021       171.4323 
 769   0.0000       6.315239       171.8464 
 770   0.0000       6.358604       173.0264 
 771   0.0000       6.400334       174.1620 
 772   0.0000       6.416509       174.6021 
 773   0.0000       6.436731       175.1523 
 774   0.0000       6.480716       176.3493 
 775   0.0000       6.510520       177.1602 
 776   0.0000       6.535195       177.8317 
 777   0.0000       6.546794       178.1473 
 778   0.0000       6.582047       179.1066 
 779   0.0000       6.646940       180.8724 
 780   0.0000       6.728794       183.0998 
 781   0.0000       6.749728       183.6694 
 782   0.0000       6.785220       184.6352 
 783   0.0000       6.798856       185.0063 
 784   0.0000       6.838471       186.0843 
 785   0.0000       6.854788       186.5283 
 786   0.0000       6.915951       188.1926 
 787   0.0000       6.956357       189.2921 
 788   0.0000       6.968591       189.6250 
 789   0.0000       7.031844       191.3462 
 790   0.0000       7.055827       191.9988 
 791   0.0000       7.130327       194.0261 
 792   0.0000       7.139922       194.2871 
 793   0.0000       7.182310       195.4406 
 794   0.0000       7.209191       196.1721 
 795   0.0000       7.226715       196.6489 
 796   0.0000       7.246369       197.1837 
 797   0.0000       7.269680       197.8180 
 798   0.0000       7.373869       200.6532 
 799   0.0000       7.384450       200.9411 
 800   0.0000       7.472191       203.3287 
 801   0.0000       7.528707       204.8665 
 802   0.0000       7.535781       205.0590 
 803   0.0000       7.584943       206.3968 
 804   0.0000       7.702468       209.5948 
 805   0.0000       7.744103       210.7277 
 806   0.0000       7.845476       213.4862 
 807   0.0000       7.926281       215.6851 
 808   0.0000       8.002852       217.7687 
 809   0.0000       9.321887       253.6615 
 810   0.0000      10.023252       272.7465 
 811   0.0000      10.963130       298.3219 
 812   0.0000      11.484959       312.5216 
 813   0.0000      12.089377       328.9687 
 814   0.0000      12.214324       332.3686 
 815   0.0000      12.723779       346.2316 
 816   0.0000      12.978577       353.1650 
 817   0.0000      12.984711       353.3320 
 818   0.0000      13.296346       361.8120 
 819   0.0000      13.339219       362.9786 
 820   0.0000      13.719295       373.3210 
 821   0.0000      13.953398       379.6913 
 822   0.0000      14.000591       380.9754 
 823   0.0000      14.191999       386.1839 
 824   0.0000      14.389239       391.5511 
 825   0.0000      15.019845       408.7108 
 826   0.0000      15.649544       425.8457 
 827   0.0000      15.742074       428.3636 

                    ********************************
                    * MULLIKEN POPULATION ANALYSIS *
                    ********************************

-----------------------
MULLIKEN ATOMIC CHARGES
-----------------------
   0 C :   -0.281739
   1 C :    0.038655
   2 O :   -0.357146
   3 C :    0.477290
   4 O :   -0.433328
   5 C :   -0.287931
   6 C :    0.111772
   7 C :   -0.291569
   8 N :   -0.049883
   9 C :    0.205149
  10 S :   -0.430160
  11 N :   -0.173238
  12 C :    0.025878
  13 C :    0.145149
  14 C :   -0.226617
  15 C :   -0.117275
  16 C :   -0.238425
  17 C :    0.289444
  18 O :   -0.363856
  19 C :   -0.308557
  20 H :    0.101204
  21 H :    0.104396
  22 H :    0.092434
  23 H :    0.096197
  24 H :    0.118904
  25 H :    0.099683
  26 H :    0.111418
  27 H :    0.137637
  28 H :    0.193071
  29 H :    0.198005
  30 H :    0.147158
  31 H :    0.148211
  32 H :    0.162619
  33 H :    0.161877
  34 H :    0.244937
  35 H :    0.148638
Sum of atomic charges:   -0.0000000

--------------------------------
MULLIKEN REDUCED ORBITAL CHARGES
--------------------------------
  0 C s       :     3.260485  s :     3.260485
      pz      :     0.987863  p :     2.944228
      px      :     0.955143
      py      :     1.001221
      dz2     :     0.002362  d :     0.072452
      dxz     :     0.021083
      dyz     :     0.025523
      dx2y2   :     0.011064
      dxy     :     0.012420
      f0      :     0.000293  f :     0.004575
      f+1     :     0.000294
      f-1     :     0.000134
      f+2     :     0.001342
      f-2     :     0.001677
      f+3     :     0.000314
      f-3     :     0.000520
  1 C s       :     3.161725  s :     3.161725
      pz      :     0.875700  p :     2.640457
      px      :     0.771726
      py      :     0.993031
      dz2     :     0.021995  d :     0.148114
      dxz     :     0.036536
      dyz     :     0.033618
      dx2y2   :     0.026352
      dxy     :     0.029612
      f0      :     0.001114  f :     0.011050
      f+1     :     0.002478
      f-1     :     0.000398
      f+2     :     0.002235
      f-2     :     0.002588
      f+3     :     0.001031
      f-3     :     0.001206
  2 O s       :     3.716519  s :     3.716519
      pz      :     1.574539  p :     4.605584
      px      :     1.584187
      py      :     1.446858
      dz2     :     0.004188  d :     0.032785
      dxz     :     0.006049
      dyz     :     0.006540
      dx2y2   :     0.011460
      dxy     :     0.004548
      f0      :     0.000308  f :     0.002258
      f+1     :     0.000231
      f-1     :     0.000268
      f+2     :     0.000519
      f-2     :     0.000308
      f+3     :     0.000279
      f-3     :     0.000345
  3 C s       :     3.043555  s :     3.043555
      pz      :     0.682018  p :     2.145333
      px      :     0.792235
[...]
 15 C s       :     2.717970  s :     2.717970
      pz      :     0.946492  p :     2.784686
      px      :     0.858801
      py      :     0.979393
      dz2     :     0.108617  d :     0.393103
      dxz     :     0.065216
      dyz     :     0.092201
      dx2y2   :     0.081051
      dxy     :     0.046018
      f0      :     0.005365  f :     0.037128
      f+1     :     0.004609
      f-1     :     0.007849
      f+2     :     0.005837
      f-2     :     0.006453
      f+3     :     0.002687
      f-3     :     0.004327
 16 C s       :     2.708695  s :     2.708695
      pz      :     0.959309  p :     2.857256
      px      :     0.915718
      py      :     0.982230
      dz2     :     0.069955  d :     0.379824
      dxz     :     0.043601
      dyz     :     0.124455
      dx2y2   :     0.069740
      dxy     :     0.072074
      f0      :     0.006582  f :     0.038428
      f+1     :     0.004288
      f-1     :     0.005933
      f+2     :     0.005850
      f-2     :     0.005033
      f+3     :     0.005825
      f-3     :     0.004917
 17 C s       :     2.709812  s :     2.709812
      pz      :     0.838705  p :     2.687060
      px      :     0.819784
      py      :     1.028570
      dz2     :     0.167247  d :     0.695701
      dxz     :     0.116289
      dyz     :     0.167454
      dx2y2   :     0.116647
      dxy     :     0.128062
      f0      :     0.018464  f :     0.095444
      f+1     :     0.013773
      f-1     :     0.013665
      f+2     :     0.017007
      f-2     :     0.014223
      f+3     :     0.008725
      f-3     :     0.009587
 18 O s       :     3.184167  s :     3.184167
      pz      :     1.435920  p :     4.357266
      px      :     1.547656
      py      :     1.373690
      dz2     :     0.016755  d :     0.073837
      dxz     :     0.017553
      dyz     :     0.015173
      dx2y2   :     0.012879
      dxy     :     0.011477
      f0      :     0.000680  f :     0.004895
      f+1     :     0.001054
      f-1     :     0.000416
      f+2     :     0.000814
      f-2     :     0.000904
      f+3     :     0.000616
      f-3     :     0.000410
 19 C s       :     2.705907  s :     2.705907
      pz      :     0.960889  p :     2.859383
      px      :     0.931792
      py      :     0.966702
      dz2     :     0.097469  d :     0.375428
      dxz     :     0.062646
      dyz     :     0.092183
      dx2y2   :     0.069825
      dxy     :     0.053305
      f0      :     0.005349  f :     0.037829
      f+1     :     0.005286
      f-1     :     0.007589
      f+2     :     0.006024
      f-2     :     0.006739
      f+3     :     0.003323
      f-3     :     0.003519
 20 H s       :     0.848129  s :     0.848129
      pz      :     0.047889  p :     0.148930
      px      :     0.059110
      py      :     0.041931
      dz2     :     0.005265  d :     0.027006
      dxz     :     0.006569
      dyz     :     0.004171
      dx2y2   :     0.005464
      dxy     :     0.005537
 21 H s       :     0.840321  s :     0.840321
      pz      :     0.055184  p :     0.154431
      px      :     0.042581
      py      :     0.056666
      dz2     :     0.006660  d :     0.028155
      dxz     :     0.005288
      dyz     :     0.006575
      dx2y2   :     0.004729
      dxy     :     0.004904
 22 H s       :     0.848707  s :     0.848707
      pz      :     0.052377  p :     0.151380
      px      :     0.040509
      py      :     0.058494
      dz2     :     0.005888  d :     0.027732
      dxz     :     0.004141
      dyz     :     0.006988
      dx2y2   :     0.005422
      dxy     :     0.005293
 23 H s       :     0.854847  s :     0.854847
      pz      :     0.051295  p :     0.147736
      px      :     0.035797
      py      :     0.060644
      dz2     :     0.005627  d :     0.027541
      dxz     :     0.004740
      dyz     :     0.007105
      dx2y2   :     0.005770
      dxy     :     0.004297
 24 H s       :     0.849571  s :     0.849571
      pz      :     0.048779  p :     0.148091
      px      :     0.038433
      py      :     0.060879
      dz2     :     0.005000  d :     0.026953
      dxz     :     0.003697
      dyz     :     0.007924
      dx2y2   :     0.004146
      dxy     :     0.006186
 25 H s       :     0.840705  s :     0.840705
      pz      :     0.042959  p :     0.150877
      px      :     0.066180
      py      :     0.041738
      dz2     :     0.002762  d :     0.028042
      dxz     :     0.007599
      dyz     :     0.002070
      dx2y2   :     0.007751
      dxy     :     0.007860
 26 H s       :     0.827048  s :     0.827048
      pz      :     0.073160  p :     0.153604
      px      :     0.040727
      py      :     0.039717
      dz2     :     0.009524  d :     0.028553
      dxz     :     0.009061
      dyz     :     0.009044
      dx2y2   :     0.000250
      dxy     :     0.000674
 27 H s       :     0.831094  s :     0.831094
      pz      :     0.040262  p :     0.149438
      px      :     0.059056
      py      :     0.050120
      dz2     :     0.003786  d :     0.027292
      dxz     :     0.004573
      dyz     :     0.004014
      dx2y2   :     0.008073
      dxy     :     0.006846
 28 H s       :     0.731459  s :     0.731459
      pz      :     0.065865  p :     0.246240
      px      :     0.093767
      py      :     0.086608
      dz2     :     0.006206  d :     0.060386
      dxz     :     0.009624
      dyz     :     0.010298
      dx2y2   :     0.019034
      dxy     :     0.015224
 29 H s       :     0.744478  s :     0.744478
      pz      :     0.090250  p :     0.247415
      px      :     0.060950
      py      :     0.096216
      dz2     :     0.014417  d :     0.060326
      dxz     :     0.007894
      dyz     :     0.015719
      dx2y2   :     0.010852
      dxy     :     0.011445
 30 H s       :     0.830853  s :     0.830853
      pz      :     0.040091  p :     0.146685
      px      :     0.065647
      py      :     0.040948
      dz2     :     0.004004  d :     0.028719
      dxz     :     0.007799
      dyz     :     0.003193
      dx2y2   :     0.007330
      dxy     :     0.006394
 31 H s       :     0.844349  s :     0.844349
      pz      :     0.066273  p :     0.157145
      px      :     0.056766
      py      :     0.034105
      dz2     :     0.007633  d :     0.027499
      dxz     :     0.007069
      dyz     :     0.005780
      dx2y2   :     0.003489
      dxy     :     0.003528
 32 H s       :     0.846276  s :     0.846276
      pz      :     0.036878  p :     0.154562
      px      :     0.039346
      py      :     0.078338
      dz2     :     0.003074  d :     0.026746
      dxz     :     0.000490
      dyz     :     0.008276
      dx2y2   :     0.007603
      dxy     :     0.007302
 33 H s       :     0.843167  s :     0.843167
      pz      :     0.055313  p :     0.157435
      px      :     0.047161
      py      :     0.054961
      dz2     :     0.006543  d :     0.027545
      dxz     :     0.004216
      dyz     :     0.007285
      dx2y2   :     0.004752
      dxy     :     0.004750
 34 H s       :     0.704200  s :     0.704200
      pz      :     0.086313  p :     0.348593
      px      :     0.108264
      py      :     0.154015
      dz2     :     0.013252  d :     0.098155
      dxz     :     0.007807
      dyz     :     0.023792
      dx2y2   :     0.025925
      dxy     :     0.027378
 35 H s       :     0.846854  s :     0.846854
      pz      :     0.038964  p :     0.166522
      px      :     0.047401
      py      :     0.080157
      dz2     :     0.002836  d :     0.028374
      dxz     :     0.000736
      dyz     :     0.008308
      dx2y2   :     0.007833
      dxy     :     0.008660


                      *****************************
                      * MAYER POPULATION ANALYSIS *
                      *****************************

  NA   - Mulliken gross atomic population
  ZA   - Total nuclear charge
  QA   - Mulliken gross atomic charge
  VA   - Mayer's total valence
  BVA  - Mayer's bonded valence
  FA   - Mayer's free valence

  ATOM       NA         ZA         QA         VA         BVA        FA
  0 C      6.2817     6.0000    -0.2817     3.8803     3.8803    -0.0000
  1 C      5.9613     6.0000     0.0387     3.8476     3.8476     0.0000
  2 O      8.3571     8.0000    -0.3571     2.0588     2.0588    -0.0000
  3 C      5.5227     6.0000     0.4773     4.2434     4.2434    -0.0000
  4 O      8.4333     8.0000    -0.4333     2.0941     2.0941    -0.0000
  5 C      6.2879     6.0000    -0.2879     3.5912     3.5912    -0.0000
  6 C      5.8882     6.0000     0.1118     3.8899     3.8899    -0.0000
  7 C      6.2916     6.0000    -0.2916     3.8857     3.8857     0.0000
  8 N      7.0499     7.0000    -0.0499     3.3246     3.3246     0.0000
  9 C      5.7949     6.0000     0.2051     4.1634     4.1634    -0.0000
 10 S     16.4302    16.0000    -0.4302     1.7963     1.7963     0.0000
 11 N      7.1732     7.0000    -0.1732     3.2602     3.2602     0.0000
 12 C      5.9741     6.0000     0.0259     3.9738     3.9738    -0.0000
 13 C      5.8549     6.0000     0.1451     3.6543     3.6543    -0.0000
 14 C      6.2266     6.0000    -0.2266     3.8758     3.8758    -0.0000
 15 C      6.1173     6.0000    -0.1173     3.8135     3.8135    -0.0000
 16 C      6.2384     6.0000    -0.2384     3.8273     3.8273    -0.0000
 17 C      5.7106     6.0000     0.2894     3.8840     3.8840    -0.0000
 18 O      8.3639     8.0000    -0.3639     2.0890     2.0890    -0.0000
 19 C      6.3086     6.0000    -0.3086     3.8190     3.8190    -0.0000
 20 H      0.8988     1.0000     0.1012     0.9856     0.9856    -0.0000
 21 H      0.8956     1.0000     0.1044     0.9869     0.9869    -0.0000
 22 H      0.9076     1.0000     0.0924     0.9840     0.9840    -0.0000
 23 H      0.9038     1.0000     0.0962     0.9737     0.9737    -0.0000
 24 H      0.8811     1.0000     0.1189     0.9859     0.9859    -0.0000
 25 H      0.9003     1.0000     0.0997     0.9849     0.9849    -0.0000
 26 H      0.8886     1.0000     0.1114     0.9820     0.9820     0.0000
 27 H      0.8624     1.0000     0.1376     0.9852     0.9852    -0.0000
 28 H      0.8069     1.0000     0.1931     1.0269     1.0269    -0.0000
 29 H      0.8020     1.0000     0.1980     1.0134     1.0134    -0.0000
 30 H      0.8528     1.0000     0.1472     0.9987     0.9987     0.0000
 31 H      0.8518     1.0000     0.1482     0.9874     0.9874    -0.0000
 32 H      0.8374     1.0000     0.1626     0.9767     0.9767    -0.0000
 33 H      0.8381     1.0000     0.1619     0.9838     0.9838    -0.0000
 34 H      0.7551     1.0000     0.2449     1.0044     1.0044     0.0000
 35 H      0.8514     1.0000     0.1486     0.9898     0.9898    -0.0000

  Mayer bond orders larger than 0.100000
B(  0-C ,  1-C ) :   0.9660 B(  0-C , 20-H ) :   0.9735 B(  0-C , 21-H ) :   0.9778 
B(  0-C , 22-H ) :   0.9789 B(  1-C ,  2-O ) :   0.8785 B(  1-C , 23-H ) :   0.9861 
B(  1-C , 24-H ) :   0.9731 B(  2-O ,  3-C ) :   1.1691 B(  3-C ,  4-O ) :   1.9894 
B(  3-C ,  5-C ) :   1.0714 B(  5-C ,  6-C ) :   1.5871 B(  5-C , 12-C ) :   0.9821 
B(  6-C ,  7-C ) :   0.9454 B(  6-C ,  8-N ) :   1.2677 B(  7-C , 25-H ) :   0.9951 
B(  7-C , 26-H ) :   0.9674 B(  7-C , 27-H ) :   0.9656 B(  8-N ,  9-C ) :   1.1171 
B(  8-N , 28-H ) :   0.9419 B(  9-C , 10-S ) :   1.6443 B(  9-C , 11-N ) :   1.3485 
B( 11-N , 12-C ) :   0.9467 B( 11-N , 29-H ) :   0.9503 B( 12-C , 13-C ) :   0.9517 
B( 12-C , 30-H ) :   1.0066 B( 13-C , 14-C ) :   1.3708 B( 13-C , 19-C ) :   1.3226 
B( 14-C , 15-C ) :   1.3779 B( 14-C , 31-H ) :   0.9695 B( 15-C , 16-C ) :   1.3851 
B( 15-C , 32-H ) :   0.9711 B( 16-C , 17-C ) :   1.3721 B( 16-C , 33-H ) :   0.9636 
B( 17-C , 18-O ) :   1.0675 B( 17-C , 19-C ) :   1.3677 B( 18-O , 34-H ) :   0.9742 
B( 19-C , 35-H ) :   0.9618 

-------
TIMINGS
-------

Total SCF time: 0 days 1 hours 58 min 6 sec 

Total time                  ....    7086.143 sec
Sum of individual times     ....    7082.713 sec  (100.0%)

Fock matrix formation       ....    7069.423 sec  ( 99.8%)
Diagonalization             ....       1.514 sec  (  0.0%)
Density matrix formation    ....       0.207 sec  (  0.0%)
Population analysis         ....       0.246 sec  (  0.0%)
Initial guess               ....       6.164 sec  (  0.1%)
Orbital Transformation      ....       0.000 sec  (  0.0%)
Orbital Orthonormalization  ....       0.000 sec  (  0.0%)
DIIS solution               ....       1.655 sec  (  0.0%)
SOSCF solution              ....       1.998 sec  (  0.0%)

Maximum memory used throughout the entire SCF-calculation: 721.1 MB

------------------------------------------------------------------------------
                                ORCA  MP2 
------------------------------------------------------------------------------

Freezing NCore=48 chemical core electrons

-------------
RI-MP2 ENERGY
-------------
Dimension of the basis                    ...  828
Memory devoted to MP2                     ...  256 MB   
Data format for buffers                   ... DOUBLE
Compression type for matrix containers    ... UNCOMPRESSED
Overall scaling of the MP2 energy         ...   1.000e+00
Calculating two index integrals           ... done (    0.046 sec)
Cholesky decomposition of V**-1           ... done (    0.626 sec)

-----------------
RI-TRANSFORMATION (AUX index driven)
-----------------

Dimension of the orbital-basis         ... 828
Dimension of the aux-basis             ... 2141
Transformation of internal/external MOs...   24-  76 to   77- 827
Number Format for Storage              ... Double (8 Byte)
Integral mode                          ... Direct

First Phase: integral generation and transformation of MO indices
  Aux angular momentum 0               ... done (    5.334 sec)
  Aux angular momentum 1               ... done (    8.540 sec)
  Aux angular momentum 2               ... done (   10.647 sec)
  Aux angular momentum 3               ... done (    8.536 sec)
  Aux angular momentum 4               ... done (    2.939 sec)
Closing buffer VIA ( 0.63 GB; CompressionRatio= 1.00)
  Phase 1 completed in    36.178 sec
Second Phase: sorting and transformation of aux index

IA-Transformation
Memory available                       ... 158 MB 
Max. # MO pairs treated in a batch     ... 11    
# of internal orbitals                 ... 53
# batches for internal orbitals        ... 5
Closing buffer IAV ( 0.63 GB; CompressionRatio= 1.00)
(ia|v) transformation done in    19.144 sec

  Phase 2 completed in    19.160 sec
RI-Integral transformation completed in    55.344 sec
Opening buffers                              ... done

Starting loop over batches of integrals:

Operator 0  - window                       ... ( 24- 76)x( 77-827)
Operator 0  - Memory available             ...   256 MB
Operator 0  - Memory needed per MO         ...  12.3 MB
Operator 0  - Number of orbitals per batch ... 13
Operator 0  - Number of batches            ... 5

OPERATOR  0   PASS   0:  MOs    24 ...   36
  Reading integrals       ... ok
  Internal MO  26
  Internal MO  29
  Internal MO  32
  Internal MO  35
OPERATOR  0   PASS   1:  MOs    37 ...   49
  Reading integrals       ... ok
  Internal MO  38
  Internal MO  41
  Internal MO  44
  Internal MO  47
OPERATOR  0   PASS   2:  MOs    50 ...   62
  Reading integrals       ... ok
  Internal MO  50
  Internal MO  53
  Internal MO  56
  Internal MO  59
  Internal MO  62
OPERATOR  0   PASS   3:  MOs    63 ...   75
  Reading integrals       ... ok
  Internal MO  65
  Internal MO  68
  Internal MO  71
  Internal MO  74
OPERATOR  0   PASS   4:  MOs    76 ...   76
  Reading integrals       ... ok
Time spent in pair loops =    94.880 sec
Deleting buffer (Ka|jb)[aa] ...done

-----------------------------------------------
 RI-MP2 CORRELATION ENERGY:     -3.531445162 Eh
-----------------------------------------------


-------
TIMINGS
-------

Total time                :  151.002 sec
Integral trafo            :   55.366 sec ( 36.7%)
I/O of integrals          :    0.894 sec (  0.6%)
K(i,j) Operators          :   66.323 sec ( 43.9%)
T(i,j) pair energies      :    9.562 sec (  6.3%)
V-calculation             :    0.046 sec (  0.0%)
V**(-1/2)                 :    0.626 sec (  0.4%)
Gamma(ia|P)               :    0.000 sec (  0.0%)
Gamma-Trafo               :    0.000 sec (  0.0%)
D(virtual)                :    0.000 sec (  0.0%)
D(internal)               :    0.000 sec (  0.0%)
W(virtual)                :    0.000 sec (  0.0%)
W(internal)               :    0.000 sec (  0.0%)
L(virtual)                :    0.000 sec (  0.0%)
L(internal)               :    0.000 sec (  0.0%)
G(D)                      :    0.000 sec (  0.0%)
G(Z)                      :    0.000 sec (  0.0%)
Z-Vector Solution         :    0.000 sec (  0.0%)
3-Index Derivative        :    0.000 sec (  0.0%)
2-Index Derivative        :    0.000 sec (  0.0%)
Separable Gradient        :    0.000 sec (  0.0%)


---------------------------------------
MP2 TOTAL ENERGY:    -1274.313010099 Eh
---------------------------------------

Maximum memory used throughout the entire MP2-calculation: 303.0 MB

-------------------------   --------------------
FINAL SINGLE POINT ENERGY     -1274.313010099257
-------------------------   --------------------


                            ***************************************
                            *     ORCA property calculations      *
                            ***************************************


  WARNING: The energy has been calculated at the MP2 level but the densities
           used in the property calculations are still SCF densities
           MP2 response densities have not been calculated 
           use %mp2 Density relaxed end
           or  %mp2 Density unrelaxed end

                                    ---------------------
                                    Active property flags
                                    ---------------------
   (+) Dipole Moment


------------------------------------------------------------------------------
                       ORCA ELECTRIC PROPERTIES CALCULATION
------------------------------------------------------------------------------

Dipole Moment Calculation                       ... on
Quadrupole Moment Calculation                   ... off
Polarizability Calculation                      ... off
GBWName                                         ... qm_input.vacu.gbw
Electron density file                           ... qm_input.vacu.scfp
The origin for moment calculation is the CENTER OF MASS  = (13.460621, -18.011088 29.145748)

-------------
DIPOLE MOMENT
-------------
                                X             Y             Z
Electronic contribution:    -11.89985      -8.74581       8.50865
Nuclear contribution   :     12.71680      10.03199      -9.78594
                        -----------------------------------------
Total Dipole Moment    :      0.81694       1.28618      -1.27729
                        -----------------------------------------
Magnitude (a.u.)       :      1.98825
Magnitude (Debye)      :      5.05373



--------------------
Rotational spectrum 
--------------------
 
Rotational constants in cm-1:     0.010380     0.008646     0.005874 
Rotational constants in MHz :   311.179499   259.189556   176.090759 

 Dipole components along the rotational axes: 
x,y,z [a.u.] :     1.704146    -0.552716    -0.862277 
x,y,z [Debye]:     4.331596    -1.404892    -2.191734 

 

Timings for individual modules:

Sum of individual times         ...     7239.648 sec (= 120.661 min)
GTO integral calculation        ...        1.955 sec (=   0.033 min)   0.0 %
SCF iterations                  ...     7086.221 sec (= 118.104 min)  97.9 %
MP2 module                      ...      151.472 sec (=   2.525 min)   2.1 %
                             ****ORCA TERMINATED NORMALLY****
TOTAL RUN TIME: 0 days 2 hours 0 minutes 40 seconds 861 msec
