
                                        *****************
                                        * O   R   C   A *
                                        *****************

                                            #,                                       
                                            ###                                      
                                            ####                                     
                                            #####                                    
                                            ######                                   
                                           ########,                                 
                                     ,,################,,,,,                         
                               ,,#################################,,                 
                          ,,##########################################,,             
                       ,#########################################, ''#####,          
                    ,#############################################,,   '####,        
                  ,##################################################,,,,####,       
                ,###########''''           ''''###############################       
              ,#####''   ,,,,##########,,,,          '''####'''          '####       
            ,##' ,,,,###########################,,,                        '##       
           ' ,,###''''                  '''############,,,                           
         ,,##''                                '''############,,,,        ,,,,,,###''
      ,#''                                            '''#######################'''  
     '                                                          ''''####''''         
             ,#######,   #######,   ,#######,      ##                                
            ,#'     '#,  ##    ##  ,#'     '#,    #''#        ######   ,####,        
            ##       ##  ##   ,#'  ##            #'  '#       #        #'  '#        
            ##       ##  #######   ##           ,######,      #####,   #    #        
            '#,     ,#'  ##    ##  '#,     ,#' ,#      #,         ##   #,  ,#        
             '#######'   ##     ##  '#######'  #'      '#     #####' # '####'        



                  #######################################################
                  #                        -***-                        #
                  #          Department of theory and spectroscopy      #
                  #    Directorship and core code : Frank Neese         #
                  #        Max Planck Institute fuer Kohlenforschung    #
                  #                Kaiser Wilhelm Platz 1               #
                  #                 D-45470 Muelheim/Ruhr               #
                  #                      Germany                        #
                  #                                                     #
                  #                  All rights reserved                #
                  #                        -***-                        #
                  #######################################################


                         Program Version 5.0.0 -  RELEASE  -
                                (SVN: $Rev: 19529$)
                ($Date: 2021-06-28 11:36:33 +0200 (Mo, 28 Jun 2021) $)


 With contributions from (in alphabetic order):
   Daniel Aravena         : Magnetic Suceptibility
   Michael Atanasov       : Ab Initio Ligand Field Theory (pilot matlab implementation)
   Alexander A. Auer      : GIAO ZORA, VPT2 properties, NMR spectrum
   Ute Becker             : Parallelization
   Giovanni Bistoni       : ED, misc. LED, open-shell LED, HFLD
   Martin Brehm           : Molecular dynamics
   Dmytro Bykov           : SCF Hessian
   Vijay G. Chilkuri      : MRCI spin determinant printing, contributions to CSF-ICE
   Dipayan Datta          : RHF DLPNO-CCSD density
   Achintya Kumar Dutta   : EOM-CC, STEOM-CC
   Dmitry Ganyushin       : Spin-Orbit,Spin-Spin,Magnetic field MRCI
   Miquel Garcia          : C-PCM Hessian, Gaussian charge scheme
   Yang Guo               : DLPNO-NEVPT2, F12-NEVPT2, CIM, IAO-localization
   Andreas Hansen         : Spin unrestricted coupled pair/coupled cluster methods
   Benjamin Helmich-Paris : MC-RPA, TRAH-SCF, COSX integrals
   Lee Huntington         : MR-EOM, pCC
   Robert Izsak           : Overlap fitted RIJCOSX, COSX-SCS-MP3, EOM
   Marcus Kettner         : VPT2
   Christian Kollmar      : KDIIS, OOCD, Brueckner-CCSD(T), CCSD density, CASPT2, CASPT2-K
   Simone Kossmann        : Meta GGA functionals, TD-DFT gradient, OOMP2, MP2 Hessian
   Martin Krupicka        : Initial AUTO-CI
   Lucas Lang             : DCDCAS
   Marvin Lechner         : AUTO-CI (C++ implementation), FIC-MRCC
   Dagmar Lenk            : GEPOL surface, SMD
   Dimitrios Liakos       : Extrapolation schemes; Compound Job, initial MDCI parallelization
   Dimitrios Manganas     : Further ROCIS development; embedding schemes
   Dimitrios Pantazis     : SARC Basis sets
   Anastasios Papadopoulos: AUTO-CI, single reference methods and gradients
   Taras Petrenko         : DFT Hessian,TD-DFT gradient, ASA, ECA, R-Raman, ABS, FL, XAS/XES, NRVS
   Peter Pinski           : DLPNO-MP2, DLPNO-MP2 Gradient
   Christoph Reimann      : Effective Core Potentials
   Marius Retegan         : Local ZFS, SOC
   Christoph Riplinger    : Optimizer, TS searches, QM/MM, DLPNO-CCSD(T), (RO)-DLPNO pert. Triples
   Tobias Risthaus        : Range-separated hybrids, TD-DFT gradient, RPA, STAB
   Michael Roemelt        : Original ROCIS implementation
   Masaaki Saitow         : Open-shell DLPNO-CCSD energy and density
   Barbara Sandhoefer     : DKH picture change effects
   Avijit Sen             : IP-ROCIS
   Kantharuban Sivalingam : CASSCF convergence, NEVPT2, FIC-MRCI
   Bernardo de Souza      : ESD, SOC TD-DFT
   Georgi Stoychev        : AutoAux, RI-MP2 NMR
   Willem Van den Heuvel  : Paramagnetic NMR
   Boris Wezisla          : Elementary symmetry handling
   Frank Wennmohs         : Technical directorship


 We gratefully acknowledge several colleagues who have allowed us to
 interface, adapt or use parts of their codes:
   Stefan Grimme, W. Hujo, H. Kruse, P. Pracht,  : VdW corrections, initial TS optimization,
                  C. Bannwarth, S. Ehlert          DFT functionals, gCP, sTDA/sTD-DF
   Ed Valeev, F. Pavosevic, A. Kumar             : LibInt (2-el integral package), F12 methods
   Garnet Chan, S. Sharma, J. Yang, R. Olivares  : DMRG
   Ulf Ekstrom                                   : XCFun DFT Library
   Mihaly Kallay                                 : mrcc  (arbitrary order and MRCC methods)
   Jiri Pittner, Ondrej Demel                    : Mk-CCSD
   Frank Weinhold                                : gennbo (NPA and NBO analysis)
   Christopher J. Cramer and Donald G. Truhlar   : smd solvation model
   Lars Goerigk                                  : TD-DFT with DH, B97 family of functionals
   V. Asgeirsson, H. Jonsson                     : NEB implementation
   FAccTs GmbH                                   : IRC, NEB, NEB-TS, DLPNO-Multilevel, CI-OPT
                                                   MM, QMMM, 2- and 3-layer-ONIOM, Crystal-QMMM,
                                                   LR-CPCM, SF, NACMEs, symmetry and pop. for TD-DFT,
                                                   nearIR, NL-DFT gradient (VV10), updates on ESD,
                                                   ML-optimized integration grids
   S Lehtola, MJT Oliveira, MAL Marques          : LibXC Library
   Liviu Ungur et al                             : ANISO software


 Your calculation uses the libint2 library for the computation of 2-el integrals
 For citations please refer to: http://libint.valeyev.net

 Your ORCA version has been built with support for libXC version: 5.1.0
 For citations please refer to: https://tddft.org/programs/libxc/

 This ORCA versions uses:
   CBLAS   interface :  Fast vector & matrix operations
   LAPACKE interface :  Fast linear algebra routines
   SCALAPACK package :  Parallel linear algebra routines
   Shared memory     :  Shared parallel matrices
   BLAS/LAPACK       :  OpenBLAS 0.3.15  USE64BITINT DYNAMIC_ARCH NO_AFFINITY SkylakeX SINGLE_THREADED
        Core in use  :  SkylakeX
   Copyright (c) 2011-2014, The OpenBLAS Project


================================================================================

----- Orbital basis set information -----
Your calculation utilizes the basis: cc-pVTZ 
       H, B-Ne : Obtained from the ccRepo (grant-hill.group.shef.ac.uk/ccrepo) Feb. 2017
                 T. H. Dunning, Jr., J. Chem. Phys. 90, 1007 (1989)
            He : Obtained from the ccRepo (grant-hill.group.shef.ac.uk/ccrepo) Feb. 2017
                 D. E. Woon, T. H. Dunning, Jr., J. Chem. Phys. 100, 2975 (1994)
  Li-Be, Na-Mg : Obtained from the ccRepo (grant-hill.group.shef.ac.uk/ccrepo) Feb. 2017
                 B. P. Prascher, D. E. Woon, K. A. Peterson, T. H. Dunning, Jr., A. K. Wilson, Theor. Chem. Acc. 128, 69 (2011)
         Al-Ar : Obtained from the ccRepo (grant-hill.group.shef.ac.uk/ccrepo) Feb. 2017
                 D. E. Woon, T. H. Dunning, Jr., J. Chem. Phys. 98, 1358 (1993)
            Ca : Obtained from the Peterson Research Group Website (tyr0.chem.wsu.edu/~kipeters) Feb. 2017
                 J. Koput, K. A. Peterson, J. Phys. Chem. 106, 9595 (2002)
         Sc-Zn : Obtained from the ccRepo (grant-hill.group.shef.ac.uk/ccrepo) Feb. 2017
                 N. B. Balabanov, K. A. Peterson, J. Chem. Phys. 123, 064107 (2005)
                 N. B. Balabanov, K. A. Peterson, J. Chem. Phys. 125, 074110 (2006)
         Ga-Kr : Obtained from the ccRepo (grant-hill.group.shef.ac.uk/ccrepo) Feb. 2017
                 A. K. Wilson, D. E. Woon, K. A. Peterson, T. H. Dunning, Jr., J. Chem. Phys. 110, 7667 (1999)
             Y : Obtained from the ccRepo (grant-hill.group.shef.ac.uk/ccrepo) Feb. 2017
                 K. A. Peterson, D. Figgen, M. Dolg, H. Stoll, J. Chem. Phys. 126, 124101 (2007)
        Ag, Au : Obtained from the Peterson Research Group Website (tyr0.chem.wsu.edu/~kipeters) Feb. 2017
                 K. A. Peterson, C. Puzzarini, Theor. Chem. Acc. 114, 283 (2005)

----- AuxC basis set information -----
Your calculation utilizes the auxiliary basis: cc-pVTZ/C 
  Obtained from the EMSL Basis Set Exchange (bse.pnl.gov) Feb. 2017
  H-He, B-F, Al-Ar, Ga-Kr : F. Weigend, A. Kohn, C. Hattig, J. Chem. Phys. 116, 3175 (2002)
             Li-Be, Na-Mg : C. Haettig, Phys. Chem. Chem. Phys. 7, 59 (2005)
                       Ne : C. Haettig, Phys. Chem. Chem. Phys. 7, 59 (2005)
                            F. Weigend, A. Kohn, C. Hattig, J. Chem. Phys. 116, 3175 (2002)
                    Sc-Zn : J. G. Hill, J. A. Platts, J. Chem. Phys. 128, 044104 (2008)

================================================================================
                                        WARNINGS
                       Please study these warnings very carefully!
================================================================================


WARNING: No MP2 level density has been requested!
         To caclulate MP2 level properties use
         %mp2 Density relaxed end
         or
         %mp2 Density unrelaxed end

WARNING: Post HF methods need fully converged wavefunctions
  ===> : Setting SCFConvForced true
         You can overwrite this default with %scf ConvForced false 


INFO   : the flag for use of the SHARK integral package has been found!

================================================================================
                                       INPUT FILE
================================================================================
NAME = qm_input.solv
|  1> ! RI-MP2 cc-pVTZ cc-pVTZ/c TightSCF KeepDens NoKeepInts
|  2> 
|  3> %pointcharges "srfp_output"
|  4> 
|  5> *xyz  0  1
|  6>     C    -0.0113992   -5.0697507    2.1184903
|  7>     C     1.2650119   -4.4659782    1.6271528
|  8>     O     1.6706597   -3.3554861    2.3890765
|  9>     C     0.9675370   -2.2167616    2.4060321
| 10>     O     0.3895738   -1.8243521    1.3950306
| 11>     C     1.4077057   -1.2682101    3.4592355
| 12>     C     2.1354186   -1.5541537    4.5490491
| 13>     C     2.4718599   -2.8644345    5.1030079
| 14>     N     2.5686594   -0.5655049    5.4342643
| 15>     C     2.2543738    0.7523363    5.3207021
| 16>     S     2.7674898    1.7790703    6.4896870
| 17>     N     1.6211897    1.1359725    4.1734616
| 18>     C     1.2691885    0.1982074    3.0781864
| 19>     C     2.1524009    0.5756956    1.8749823
| 20>     C     3.4060472   -0.0183056    1.7528704
| 21>     C     4.2370623    0.3025941    0.6349772
| 22>     C     3.8126317    1.2066512   -0.3733822
| 23>     C     2.5511324    1.7960507   -0.1995925
| 24>     O     2.1592815    2.6568890   -1.1667712
| 25>     C     1.7510673    1.4980063    0.9059344
| 26>     H    -0.0555374   -5.1180398    3.2134370
| 27>     H    -0.1997548   -6.0875902    1.7555653
| 28>     H    -0.8317145   -4.4613877    1.7182877
| 29>     H     2.0419292   -5.2399942    1.6050479
| 30>     H     1.2051533   -4.2645426    0.5505702
| 31>     H     3.4688478   -3.1919593    4.7837406
| 32>     H     1.6793797   -3.5932654    4.8933172
| 33>     H     2.5540537   -2.9549512    6.1930694
| 34>     H     3.1327480   -0.8125419    6.2384693
| 35>     H     1.5699848    2.1358025    4.0195640
| 36>     H     0.2499827    0.4046662    2.7292106
| 37>     H     3.8299256   -0.6459668    2.5311856
| 38>     H     5.1922501   -0.1915076    0.4837042
| 39>     H     4.3550322    1.4349914   -1.2861026
| 40>     H     1.1887829    2.5872107   -1.1641761
| 41>     H     0.7634213    1.9160160    1.0768713
| 42> *
| 43> 
| 44>                          ****END OF INPUT****
================================================================================

                       ****************************
                       * Single Point Calculation *
                       ****************************

---------------------------------
CARTESIAN COORDINATES (ANGSTROEM)
---------------------------------
  C     -0.011399   -5.069751    2.118490
  C      1.265012   -4.465978    1.627153
  O      1.670660   -3.355486    2.389076
  C      0.967537   -2.216762    2.406032
  O      0.389574   -1.824352    1.395031
  C      1.407706   -1.268210    3.459235
  C      2.135419   -1.554154    4.549049
  C      2.471860   -2.864435    5.103008
  N      2.568659   -0.565505    5.434264
  C      2.254374    0.752336    5.320702
  S      2.767490    1.779070    6.489687
  N      1.621190    1.135973    4.173462
  C      1.269188    0.198207    3.078186
  C      2.152401    0.575696    1.874982
  C      3.406047   -0.018306    1.752870
  C      4.237062    0.302594    0.634977
  C      3.812632    1.206651   -0.373382
  C      2.551132    1.796051   -0.199593
  O      2.159282    2.656889   -1.166771
  C      1.751067    1.498006    0.905934
  H     -0.055537   -5.118040    3.213437
  H     -0.199755   -6.087590    1.755565
  H     -0.831715   -4.461388    1.718288
  H      2.041929   -5.239994    1.605048
  H      1.205153   -4.264543    0.550570
  H      3.468848   -3.191959    4.783741
  H      1.679380   -3.593265    4.893317
  H      2.554054   -2.954951    6.193069
  H      3.132748   -0.812542    6.238469
  H      1.569985    2.135803    4.019564
  H      0.249983    0.404666    2.729211
  H      3.829926   -0.645967    2.531186
  H      5.192250   -0.191508    0.483704
  H      4.355032    1.434991   -1.286103
  H      1.188783    2.587211   -1.164176
  H      0.763421    1.916016    1.076871

----------------------------
CARTESIAN COORDINATES (A.U.)
----------------------------
  NO LB      ZA    FRAG     MASS         X           Y           Z
   0 C     6.0000    0    12.011   -0.021541   -9.580440    4.003366
   1 C     6.0000    0    12.011    2.390526   -8.439476    3.074873
   2 O     8.0000    0    15.999    3.157089   -6.340950    4.514700
   3 C     6.0000    0    12.011    1.828380   -4.189072    4.546742
   4 O     8.0000    0    15.999    0.736188   -3.447526    2.636226
   5 C     6.0000    0    12.011    2.660178   -2.396570    6.537008
   6 C     6.0000    0    12.011    4.035356   -2.936925    8.596457
   7 C     6.0000    0    12.011    4.671138   -5.412997    9.643287
   8 N     7.0000    0    14.007    4.854063   -1.068649   10.269271
   9 C     6.0000    0    12.011    4.260149    1.421710   10.054670
  10 S    16.0000    0    32.060    5.229798    3.361956   12.263731
  11 N     7.0000    0    14.007    3.063605    2.146677    7.886699
  12 C     6.0000    0    12.011    2.398419    0.374558    5.816929
  13 C     6.0000    0    12.011    4.067448    1.087907    3.543203
  14 C     6.0000    0    12.011    6.436496   -0.034593    3.312445
  15 C     6.0000    0    12.011    8.006887    0.571820    1.199933
  16 C     6.0000    0    12.011    7.204830    2.280240   -0.705590
  17 C     6.0000    0    12.011    4.820942    3.394044   -0.377175
  18 O     8.0000    0    15.999    4.080451    5.020793   -2.204878
  19 C     6.0000    0    12.011    3.309038    2.830822    1.711968
  20 H     1.0000    0     1.008   -0.104950   -9.671694    6.072516
  21 H     1.0000    0     1.008   -0.377482  -11.503878    3.317538
  22 H     1.0000    0     1.008   -1.571713   -8.430801    3.247093
  23 H     1.0000    0     1.008    3.858687   -9.902154    3.033101
  24 H     1.0000    0     1.008    2.277410   -8.058818    1.040427
  25 H     1.0000    0     1.008    6.555172   -6.031929    9.039960
  26 H     1.0000    0     1.008    3.173568   -6.790288    9.247029
  27 H     1.0000    0     1.008    4.826462   -5.584049   11.703205
  28 H     1.0000    0     1.008    5.920036   -1.535482   11.788998
  29 H     1.0000    0     1.008    2.966841    4.036082    7.595875
  30 H     1.0000    0     1.008    0.472399    0.764708    5.157461
  31 H     1.0000    0     1.008    7.237510   -1.220700    4.783248
  32 H     1.0000    0     1.008    9.811931   -0.361897    0.914068
  33 H     1.0000    0     1.008    8.229818    2.711741   -2.430382
  34 H     1.0000    0     1.008    2.246474    4.889120   -2.199974
  35 H     1.0000    0     1.008    1.442657    3.620746    2.034992

--------------------------------
INTERNAL COORDINATES (ANGSTROEM)
--------------------------------
 C      0   0   0     0.000000000000     0.00000000     0.00000000
 C      1   0   0     1.495051526492     0.00000000     0.00000000
 O      2   1   0     1.406510066238   112.77123066     0.00000000
 C      3   2   1     1.338417913257   121.80894926   293.55134438
 O      4   3   2     1.228881893937   120.55280220   324.68101998
 C      4   3   2     1.484161660461   113.38736680   168.87322760
 C      6   4   3     1.341276813321   126.95905293   341.31761898
 C      7   6   4     1.461813556953   128.59896407   347.97255052
 N      7   6   4     1.395969194086   122.18369980   175.74769778
 C      9   7   6     1.359550381580   124.17887283     3.07777219
 S     10   9   7     1.638290704558   118.39060357   176.47028242
 N     10   9   7     1.365378922967   116.72708617   351.30110636
 C     12  10   9     1.484229089903   123.53884025     0.15813312
 C     13  12  10     1.539565390268   106.60353892   247.81257757
 C     14  13  12     1.392615448437   118.70984253    88.87107030
 C     15  14  13     1.429422233105   119.74688643   179.16922829
 C     16  15  14     1.419242492968   121.65416534   359.26921177
 C     17  16  15     1.403201736860   116.64255697     1.61546045
 O     18  17  16     1.352783923733   116.04980978   179.92104597
 C     14  13  12     1.396703088819   122.63586422   269.37415193
 H      1   2   3     1.096899399999   112.34548550   318.78622394
 H      1   2   3     1.096900011595   114.36873502   197.35192480
 H      1   2   3     1.096897831263   107.13326392    80.95070363
 H      2   1   3     1.096900125763   109.04770390   124.21519988
 H      2   1   3     1.096899925957   110.49514136   231.47608888
 H      8   7   6     1.096899711100   111.50174065    97.23929902
 H      8   7   6     1.096899967113   110.90664740   329.37987408
 H      8   7   6     1.096897063320   117.89185614   213.82085250
 H      9   7   6     1.012901234101   120.23696362   181.23315612
 H     12  10   9     1.012900015781   115.36958210   192.30114536
 H     13  12  10     1.096900090180   109.64648220   136.06997431
 H     15  14  13     1.086004618095   122.34644963   352.67144285
 H     16  15  14     1.086003565252   121.20700217   183.79093978
 H     17  16  15     1.086000035871   125.57014156   185.17844453
 H     19  18  17     0.973000170934   103.97161342   150.78410754
 H     20  14  13     1.086000071083   113.97181034   359.68187860

---------------------------
INTERNAL COORDINATES (A.U.)
---------------------------
 C      0   0   0     0.000000000000     0.00000000     0.00000000
 C      1   0   0     2.825237941171     0.00000000     0.00000000
 O      2   1   0     2.657918829793   112.77123066     0.00000000
 C      3   2   1     2.529243308790   121.80894926   293.55134438
 O      4   3   2     2.322250230476   120.55280220   324.68101998
 C      4   3   2     2.804659076738   113.38736680   168.87322760
 C      6   4   3     2.534645846955   126.95905293   341.31761898
 C      7   6   4     2.762427281495   128.59896407   347.97255052
 N      7   6   4     2.637999468213   122.18369980   175.74769778
 C      9   7   6     2.569177886454   124.17887283     3.07777219
 S     10   9   7     3.095920759363   118.39060357   176.47028242
 N     10   9   7     2.580192233437   116.72708617   351.30110636
 C     12  10   9     2.804786499916   123.53884025     0.15813312
 C     13  12  10     2.909356952869   106.60353892   247.81257757
 C     14  13  12     2.631661807415   118.70984253    88.87107030
 C     15  14  13     2.701216550306   119.74688643   179.16922829
 C     16  15  14     2.681979629333   121.65416534   359.26921177
 C     17  16  15     2.651666993308   116.64255697     1.61546045
 O     18  17  16     2.556391134227   116.04980978   179.92104597
 C     14  13  12     2.639386328271   122.63586422   269.37415193
 H      1   2   3     2.072839462461   112.34548550   318.78622394
 H      1   2   3     2.072840618209   114.36873502   197.35192480
 H      1   2   3     2.072836497980   107.13326392    80.95070363
 H      2   1   3     2.072840833956   109.04770390   124.21519988
 H      2   1   3     2.072840456377   110.49514136   231.47608888
 H      8   7   6     2.072840050356   111.50174065    97.23929902
 H      8   7   6     2.072840534152   110.90664740   329.37987408
 H      8   7   6     2.072835046777   117.89185614   213.82085250
 H      9   7   6     1.914105933162   120.23696362   181.23315612
 H     12  10   9     1.914103630871   115.36958210   192.30114536
 H     13  12  10     2.072840766714   109.64648220   136.06997431
 H     15  14  13     2.052251308373   122.34644963   352.67144285
 H     16  15  14     2.052249318789   121.20700217   183.79093978
 H     17  16  15     2.052242649225   125.57014156   185.17844453
 H     19  18  17     1.838703851323   103.97161342   150.78410754
 H     20  14  13     2.052242715765   113.97181034   359.68187860

---------------------
BASIS SET INFORMATION
---------------------
There are 5 groups of distinct atoms

 Group   1 Type C   : 18s5p2d1f contracted to 4s3p2d1f pattern {8811/311/11/1}
 Group   2 Type O   : 18s5p2d1f contracted to 4s3p2d1f pattern {8811/311/11/1}
 Group   3 Type N   : 18s5p2d1f contracted to 4s3p2d1f pattern {8811/311/11/1}
 Group   4 Type S   : 41s16p2d1f contracted to 5s4p2d1f pattern {13131311/7711/11/1}
 Group   5 Type H   : 5s2p1d contracted to 3s2p1d pattern {311/11/1}

Atom   0C    basis set group =>   1
Atom   1C    basis set group =>   1
Atom   2O    basis set group =>   2
Atom   3C    basis set group =>   1
Atom   4O    basis set group =>   2
Atom   5C    basis set group =>   1
Atom   6C    basis set group =>   1
Atom   7C    basis set group =>   1
Atom   8N    basis set group =>   3
Atom   9C    basis set group =>   1
Atom  10S    basis set group =>   4
Atom  11N    basis set group =>   3
Atom  12C    basis set group =>   1
Atom  13C    basis set group =>   1
Atom  14C    basis set group =>   1
Atom  15C    basis set group =>   1
Atom  16C    basis set group =>   1
Atom  17C    basis set group =>   1
Atom  18O    basis set group =>   2
Atom  19C    basis set group =>   1
Atom  20H    basis set group =>   5
Atom  21H    basis set group =>   5
Atom  22H    basis set group =>   5
Atom  23H    basis set group =>   5
Atom  24H    basis set group =>   5
Atom  25H    basis set group =>   5
Atom  26H    basis set group =>   5
Atom  27H    basis set group =>   5
Atom  28H    basis set group =>   5
Atom  29H    basis set group =>   5
Atom  30H    basis set group =>   5
Atom  31H    basis set group =>   5
Atom  32H    basis set group =>   5
Atom  33H    basis set group =>   5
Atom  34H    basis set group =>   5
Atom  35H    basis set group =>   5
---------------------------------
AUXILIARY/C BASIS SET INFORMATION
---------------------------------
There are 5 groups of distinct atoms

 Group   1 Type C   : 8s6p5d3f1g contracted to 8s6p5d3f1g pattern {11111111/111111/11111/111/1}
 Group   2 Type O   : 8s6p5d3f1g contracted to 8s6p5d3f1g pattern {11111111/111111/11111/111/1}
 Group   3 Type N   : 8s6p5d3f1g contracted to 8s6p5d3f1g pattern {11111111/111111/11111/111/1}
 Group   4 Type S   : 10s8p7d5f2g contracted to 10s8p7d5f2g pattern {1111111111/11111111/1111111/11111/11}
 Group   5 Type H   : 4s3p2d1f contracted to 4s3p2d1f pattern {1111/111/11/1}

Atom   0C    basis set group =>   1
Atom   1C    basis set group =>   1
Atom   2O    basis set group =>   2
Atom   3C    basis set group =>   1
Atom   4O    basis set group =>   2
Atom   5C    basis set group =>   1
Atom   6C    basis set group =>   1
Atom   7C    basis set group =>   1
Atom   8N    basis set group =>   3
Atom   9C    basis set group =>   1
Atom  10S    basis set group =>   4
Atom  11N    basis set group =>   3
Atom  12C    basis set group =>   1
Atom  13C    basis set group =>   1
Atom  14C    basis set group =>   1
Atom  15C    basis set group =>   1
Atom  16C    basis set group =>   1
Atom  17C    basis set group =>   1
Atom  18O    basis set group =>   2
Atom  19C    basis set group =>   1
Atom  20H    basis set group =>   5
Atom  21H    basis set group =>   5
Atom  22H    basis set group =>   5
Atom  23H    basis set group =>   5
Atom  24H    basis set group =>   5
Atom  25H    basis set group =>   5
Atom  26H    basis set group =>   5
Atom  27H    basis set group =>   5
Atom  28H    basis set group =>   5
Atom  29H    basis set group =>   5
Atom  30H    basis set group =>   5
Atom  31H    basis set group =>   5
Atom  32H    basis set group =>   5
Atom  33H    basis set group =>   5
Atom  34H    basis set group =>   5
Atom  35H    basis set group =>   5
------------------------------------------------------------------------------
                           ORCA GTO INTEGRAL CALCULATION
------------------------------------------------------------------------------
------------------------------------------------------------------------------
                   ___                                                        
                  /   \      - P O W E R E D   B Y -                         
                 /     \                                                     
                 |  |  |   _    _      __       _____    __    __             
                 |  |  |  | |  | |    /  \     |  _  \  |  |  /  |          
                  \  \/   | |  | |   /    \    | | | |  |  | /  /          
                 / \  \   | |__| |  /  /\  \   | |_| |  |  |/  /          
                |  |  |   |  __  | /  /__\  \  |    /   |      \           
                |  |  |   | |  | | |   __   |  |    \   |  |\   \          
                \     /   | |  | | |  |  |  |  | |\  \  |  | \   \       
                 \___/    |_|  |_| |__|  |__|  |_| \__\ |__|  \__/        
                                                                              
                      - O R C A' S   B I G   F R I E N D -                    
                                      &                                       
                       - I N T E G R A L  F E E D E R -                       
                                                                              
 v1 FN, 2020, v2 2021                                                         
------------------------------------------------------------------------------


Reading SHARK input file qm_input.solv.SHARKINP.tmp ... ok
----------------------
SHARK INTEGRAL PACKAGE
----------------------

Number of atoms                             ...     36
Number of basis functions                   ...    828
Number of shells                            ...    298
Maximum angular momentum                    ...      3
Integral batch strategy                     ... SHARK/LIBINT Hybrid
RI-J (if used) integral strategy            ... SPLIT-RIJ (Revised 2003 algorithm where possible)
Printlevel                                  ...      1
Contraction scheme used                     ... SEGMENTED contraction
Coulomb Range Separation                    ... NOT USED
Exchange Range Separation                   ... NOT USED
Finite Nucleus Model                        ... NOT USED
Auxiliary Coulomb fitting basis             ... NOT available
Auxiliary J/K fitting basis                 ... NOT available
Auxiliary Correlation fitting basis         ... AVAILABLE
   # of basis functions in Aux-C            ...   2141
   # of shells in Aux-C                     ...    629
   Maximum angular momentum in Aux-C        ...      4
Auxiliary 'external' fitting basis          ... NOT available
Integral threshold                          ...     2.500000e-11
Primitive cut-off                           ...     2.500000e-12
Primitive pair pre-selection threshold      ...     2.500000e-12

Calculating pre-screening integrals         ... done (  0.5 sec) Dimension = 298
Organizing shell pair data                  ... done (  0.4 sec)
Shell pair information
Total number of shell pairs                 ...     44551
Shell pairs after pre-screening             ...     32510
Total number of primitive shell pairs       ...    234348
Primitive shell pairs kept                  ...     93990
          la=0 lb=0:   6506 shell pairs
          la=1 lb=0:   9045 shell pairs
          la=1 lb=1:   3194 shell pairs
          la=2 lb=0:   5173 shell pairs
          la=2 lb=1:   3556 shell pairs
          la=2 lb=2:    999 shell pairs
          la=3 lb=0:   1883 shell pairs
          la=3 lb=1:   1287 shell pairs
          la=3 lb=2:    723 shell pairs
          la=3 lb=3:    144 shell pairs

Reading point charge file                   ... ok (45232 point charges)
Calculating one electron integrals          ... done (225.5 sec)
Calculating RI/C V-Matrix + Cholesky decomp.... done (  0.3 sec)
Calculating Nuclear repulsion               ... (+Point charges) done (  0.0 sec) ENN=   1288.452949336993 Eh

SHARK setup successfully completed in 227.0 seconds

Maximum memory used throughout the entire GTOINT-calculation: 484.5 MB
ENUC WAS=  0.000000000
ENUC IS =  0.000000000
-------------------------------------------------------------------------------
                                 ORCA SCF
-------------------------------------------------------------------------------

------------
SCF SETTINGS
------------
Hamiltonian:
 Ab initio Hamiltonian  Method          .... Hartree-Fock(GTOs)


General Settings:
 Integral files         IntName         .... qm_input.solv
 Hartree-Fock type      HFTyp           .... RHF
 Total Charge           Charge          ....    0
 Multiplicity           Mult            ....    1
 Number of Electrons    NEL             ....  154
 Basis Dimension        Dim             ....  828
 Nuclear Repulsion      ENuc            ....   1288.4529493370 Eh

Convergence Acceleration:
 DIIS                   CNVDIIS         .... on
   Start iteration      DIISMaxIt       ....    12
   Startup error        DIISStart       ....  0.200000
   # of expansion vecs  DIISMaxEq       ....     5
   Bias factor          DIISBfac        ....   1.050
   Max. coefficient     DIISMaxC        ....  10.000
 Trust-Rad. Augm. Hess. CNVTRAH         .... auto
   Auto Start mean grad. ratio tolernc. ....  1.125000
   Auto Start start iteration           ....    20
   Auto Start num. interpolation iter.  ....    10
   Max. Number of Micro iterations      ....    16
   Max. Number of Macro iterations      .... Maxiter - #DIIS iter
   Number of Davidson start vectors     ....     2
   Converg. threshold I  (grad. norm)   ....   1.000e-05
   Converg. threshold II (energy diff.) ....   1.000e-08
   Grad. Scal. Fac. for Micro threshold ....   0.100
   Minimum threshold for Micro iter.    ....   0.010
   NR start threshold (gradient norm)   ....   0.001
   Initial trust radius                 ....   0.400
   Minimum AH scaling param. (alpha)    ....   1.000
   Maximum AH scaling param. (alpha)    .... 1000.000
   Orbital update algorithm             .... Taylor
   White noise on init. David. guess    .... on
   Maximum white noise                  ....   0.010
   Quad. conv. algorithm                .... NR
 SOSCF                  CNVSOSCF        .... on
   Start iteration      SOSCFMaxIt      ....   150
   Startup grad/error   SOSCFStart      ....  0.003300
 Level Shifting         CNVShift        .... on
   Level shift para.    LevelShift      ....    0.2500
   Turn off err/grad.   ShiftErr        ....    0.0010
 Zerner damping         CNVZerner       .... off
 Static damping         CNVDamp         .... on
   Fraction old density DampFac         ....    0.7000
   Max. Damping (<1)    DampMax         ....    0.9800
   Min. Damping (>=0)   DampMin         ....    0.0000
   Turn off err/grad.   DampErr         ....    0.1000
 Fernandez-Rico         CNVRico         .... off

SCF Procedure:
 Maximum # iterations   MaxIter         ....   125
 SCF integral mode      SCFMode         .... Direct
   Integral package                     .... SHARK and LIBINT hybrid scheme
 Reset frequency        DirectResetFreq ....    20
 Integral Threshold     Thresh          ....  2.500e-11 Eh
 Primitive CutOff       TCut            ....  2.500e-12 Eh

Convergence Tolerance:
 Convergence Check Mode ConvCheckMode   .... Total+1el-Energy
 Convergence forced     ConvForced      .... 1
 Energy Change          TolE            ....  1.000e-08 Eh
 1-El. energy change                    ....  1.000e-05 Eh
 Orbital Gradient       TolG            ....  1.000e-05
 Orbital Rotation angle TolX            ....  1.000e-05
 DIIS Error             TolErr          ....  5.000e-07


Diagonalization of the overlap matrix:
Smallest eigenvalue                        ... 3.618e-05
Time for diagonalization                   ...    0.126 sec
Threshold for overlap eigenvalues          ... 1.000e-08
Number of eigenvalues below threshold      ... 0
Time for construction of square roots      ...    0.054 sec
Total time needed                          ...    0.182 sec

Time for model grid setup =    1.359 sec

------------------------------
INITIAL GUESS: MODEL POTENTIAL
------------------------------
Loading Hartree-Fock densities                     ... done
Calculating cut-offs                               ... done
Initializing the effective Hamiltonian             ... done
Setting up the integral package (SHARK)            ... done
Starting the Coulomb interaction                   ... done (   3.9 sec)
Reading the grid                                   ... done
Mapping shells                                     ... done
Starting the XC term evaluation                    ... done (   1.4 sec)
Transforming the Hamiltonian                       ... done (   0.0 sec)
Diagonalizing the Hamiltonian                      ... done (   0.1 sec)
Back transforming the eigenvectors                 ... done (   0.0 sec)
Now organizing SCF variables                       ... done
                      ------------------
                      INITIAL GUESS DONE (   6.8 sec)
                      ------------------
--------------
SCF ITERATIONS
--------------
ITER       Energy         Delta-E        Max-DP      RMS-DP      [F,P]     Damp
               ***  Starting incremental Fock matrix formation  ***
  0  -1270.0452234235   0.000000000000 0.07846295  0.00052523  0.3559896 0.7000
  1  -1270.3417842331  -0.296560809573 0.07268343  0.00043302  0.2031779 0.7000
                               ***Turning on DIIS***
  2  -1270.5250507069  -0.183266473803 0.04113069  0.00027374  0.1106947 0.7000
  3  -1272.6489376073  -2.123886900438 0.06466932  0.00053058  0.0845925 0.0000
  4  -1270.8679660215   1.780971585813 0.02429554  0.00013383  0.0078541 0.0000
  5  -1270.9266925427  -0.058726521170 0.00724730  0.00006404  0.0048828 0.0000
  6  -1270.9042610565   0.022431486159 0.00311195  0.00003155  0.0033194 0.0000
                      *** Initiating the SOSCF procedure ***
                           *** Shutting down DIIS ***
                      *** Re-Reading the Fockian *** 
                      *** Removing any level shift *** 
ITER      Energy       Delta-E        Grad      Rot      Max-DP    RMS-DP
  7  -1270.91975138  -0.0154903217  0.001125  0.001125  0.001805  0.000017
               *** Restarting incremental Fock matrix formation ***
  8  -1270.92079321  -0.0010418349  0.000599  0.001450  0.000733  0.000009
  9  -1270.92080943  -0.0000162206  0.000294  0.001751  0.001215  0.000012
 10  -1270.92081602  -0.0000065905  0.000079  0.000125  0.000185  0.000002
 11  -1270.92081667  -0.0000006436  0.000040  0.000085  0.000079  0.000001
 12  -1270.92081678  -0.0000001127  0.000014  0.000053  0.000030  0.000000
 13  -1270.92081680  -0.0000000239  0.000009  0.000044  0.000016  0.000000
 14  -1270.92081681  -0.0000000074  0.000003  0.000008  0.000006  0.000000
                  ***Gradient check signals convergence***
              ***Rediagonalizing the Fockian in SOSCF/NRSCF***

               *****************************************************
               *                     SUCCESS                       *
               *           SCF CONVERGED AFTER  15 CYCLES          *
               *****************************************************


----------------
TOTAL SCF ENERGY
----------------

Total Energy       :        -1270.92081681 Eh          -34583.51362 eV

Components:
Nuclear Repulsion  :         1288.45294934 Eh           35060.58720 eV
Electronic Energy  :        -2559.37376614 Eh          -69644.10081 eV
One Electron Energy:        -4705.73604792 Eh         -128049.58778 eV
Two Electron Energy:         2146.36228178 Eh           58405.48696 eV

Virial components:
Potential Energy   :        -2540.33373465 Eh          -69125.99522 eV
Kinetic Energy     :         1269.41291785 Eh           34542.48160 eV
Virial Ratio       :            2.00118787


---------------
SCF CONVERGENCE
---------------

  Last Energy change         ...    4.9431e-09  Tolerance :   1.0000e-08
  Last MAX-Density change    ...    3.3792e-06  Tolerance :   1.0000e-07
  Last RMS-Density change    ...    2.7918e-08  Tolerance :   5.0000e-09
  Last Orbital Gradient      ...    9.7679e-07  Tolerance :   1.0000e-05
  Last Orbital Rotation      ...    2.2740e-06  Tolerance :   1.0000e-05

             **** THE GBW FILE WAS UPDATED (qm_input.solv.gbw) ****
             **** DENSITY qm_input.solv.scfp WAS UPDATED ****
             **** ENERGY FILE WAS UPDATED (qm_input.solv.en.tmp) ****
             **** THE GBW FILE WAS UPDATED (qm_input.solv.gbw) ****
             **** DENSITY qm_input.solv.scfp WAS UPDATED ****
----------------
ORBITAL ENERGIES
----------------

  NO   OCC          E(Eh)            E(eV) 
   0   2.0000     -89.268434     -2429.1176 
   1   2.0000     -17.961178      -488.7485 
   2   2.0000     -17.937952      -488.1165 
   3   2.0000     -17.914372      -487.4748 
   4   2.0000     -12.976234      -353.1013 
   5   2.0000     -12.967333      -352.8591 
   6   2.0000      -8.765123      -238.5111 
   7   2.0000      -8.750390      -238.1102 
   8   2.0000      -8.680318      -236.2035 
   9   2.0000      -8.658159      -235.6005 
  10   2.0000      -8.657748      -235.5893 
  11   2.0000      -8.632043      -234.8898 
  12   2.0000      -8.608361      -234.2454 
  13   2.0000      -8.604519      -234.1409 
  14   2.0000      -8.601844      -234.0681 
  15   2.0000      -8.586457      -233.6494 
  16   2.0000      -8.584322      -233.5913 
  17   2.0000      -8.583854      -233.5785 
  18   2.0000      -8.581216      -233.5068 
  19   2.0000      -8.559711      -232.9216 
  20   2.0000      -6.276047      -170.7799 
  21   2.0000      -3.958154      -107.7069 
  22   2.0000      -3.956024      -107.6489 
  23   2.0000      -3.955601      -107.6374 
  24   2.0000       1.171305        31.8728 
  25   2.0000       1.237795        33.6821 
  26   2.0000       1.274918        34.6923 
  27   2.0000       1.300748        35.3952 
  28   2.0000       1.408791        38.3352 
  29   2.0000       1.490346        40.5544 
  30   2.0000       1.520794        41.3829 
  31   2.0000       1.602483        43.6058 
  32   2.0000       1.609014        43.7835 
  33   2.0000       1.640512        44.6406 
  34   2.0000       1.646281        44.7976 
  35   2.0000       1.653480        44.9935 
  36   2.0000       1.722589        46.8740 
  37   2.0000       1.748451        47.5778 
  38   2.0000       1.798399        48.9369 
  39   2.0000       1.804973        49.1158 
  40   2.0000       1.826468        49.7007 
  41   2.0000       1.844796        50.1995 
  42   2.0000       1.886761        51.3414 
  43   2.0000       1.904904        51.8351 
  44   2.0000       1.919447        52.2308 
  45   2.0000       1.945814        52.9483 
  46   2.0000       1.957470        53.2655 
  47   2.0000       1.965724        53.4901 
  48   2.0000       1.978330        53.8331 
  49   2.0000       1.982690        53.9517 
  50   2.0000       1.986546        54.0567 
  51   2.0000       1.997373        54.3513 
  52   2.0000       2.014255        54.8107 
  53   2.0000       2.035484        55.3883 
  54   2.0000       2.037774        55.4506 
  55   2.0000       2.051854        55.8338 
  56   2.0000       2.061318        56.0913 
  57   2.0000       2.073856        56.4325 
  58   2.0000       2.083275        56.6888 
  59   2.0000       2.089180        56.8495 
  60   2.0000       2.090390        56.8824 
  61   2.0000       2.099201        57.1222 
  62   2.0000       2.113660        57.5156 
  63   2.0000       2.125650        57.8419 
  64   2.0000       2.134565        58.0845 
  65   2.0000       2.138183        58.1829 
  66   2.0000       2.152172        58.5636 
  67   2.0000       2.161188        58.8089 
  68   2.0000       2.162929        58.8563 
  69   2.0000       2.185356        59.4666 
  70   2.0000       2.187932        59.5366 
  71   2.0000       2.191453        59.6325 
  72   2.0000       2.278500        62.0011 
  73   2.0000       2.283987        62.1505 
  74   2.0000       2.301321        62.6221 
  75   2.0000       2.308633        62.8211 
  76   2.0000       2.330287        63.4103 
  77   0.0000       2.714831        73.8743 
  78   0.0000       2.765757        75.2601 
  79   0.0000       2.776660        75.5568 
  80   0.0000       2.796252        76.0899 
  81   0.0000       2.800417        76.2032 
  82   0.0000       2.818741        76.7018 
  83   0.0000       2.824353        76.8545 
  84   0.0000       2.828837        76.9766 
  85   0.0000       2.835218        77.1502 
  86   0.0000       2.840888        77.3045 
  87   0.0000       2.854681        77.6798 
  88   0.0000       2.859149        77.8014 
  89   0.0000       2.867431        78.0268 
  90   0.0000       2.868680        78.0607 
  91   0.0000       2.872756        78.1717 
  92   0.0000       2.880722        78.3884 
  93   0.0000       2.883375        78.4606 
  94   0.0000       2.904067        79.0237 
  95   0.0000       2.907486        79.1167 
  96   0.0000       2.913005        79.2669 
  97   0.0000       2.929098        79.7048 
  98   0.0000       2.934603        79.8546 
  99   0.0000       2.945889        80.1617 
 100   0.0000       2.954335        80.3916 
 101   0.0000       2.969412        80.8018 
 102   0.0000       2.974250        80.9335 
 103   0.0000       2.980172        81.0946 
 104   0.0000       2.982335        81.1535 
 105   0.0000       2.985940        81.2516 
 106   0.0000       3.003327        81.7247 
 107   0.0000       3.009103        81.8818 
 108   0.0000       3.017925        82.1219 
 109   0.0000       3.026825        82.3641 
 110   0.0000       3.028571        82.4116 
 111   0.0000       3.033694        82.5510 
 112   0.0000       3.040527        82.7369 
 113   0.0000       3.052008        83.0494 
 114   0.0000       3.054173        83.1083 
 115   0.0000       3.059787        83.2610 
 116   0.0000       3.061117        83.2972 
 117   0.0000       3.068135        83.4882 
 118   0.0000       3.078910        83.7814 
 119   0.0000       3.083489        83.9060 
 120   0.0000       3.086469        83.9871 
 121   0.0000       3.096576        84.2621 
 122   0.0000       3.105571        84.5069 
 123   0.0000       3.110311        84.6359 
 124   0.0000       3.118585        84.8610 
 125   0.0000       3.122754        84.9745 
 126   0.0000       3.126536        85.0774 
 127   0.0000       3.132270        85.2334 
 128   0.0000       3.137977        85.3887 
 129   0.0000       3.147046        85.6355 
 130   0.0000       3.150667        85.7340 
 131   0.0000       3.160558        86.0032 
 132   0.0000       3.165425        86.1356 
 133   0.0000       3.166618        86.1680 
 134   0.0000       3.168944        86.2314 
 135   0.0000       3.174140        86.3727 
 136   0.0000       3.179736        86.5250 
 137   0.0000       3.191126        86.8350 
 138   0.0000       3.198245        87.0287 
 139   0.0000       3.206289        87.2476 
 140   0.0000       3.214568        87.4728 
 141   0.0000       3.218122        87.5695 
 142   0.0000       3.222965        87.7013 
 143   0.0000       3.227386        87.8216 
 144   0.0000       3.232494        87.9606 
 145   0.0000       3.234679        88.0201 
 146   0.0000       3.238899        88.1349 
 147   0.0000       3.241399        88.2030 
 148   0.0000       3.250826        88.4595 
 149   0.0000       3.256635        88.6175 
 150   0.0000       3.260488        88.7224 
 151   0.0000       3.261528        88.7507 
 152   0.0000       3.269883        88.9780 
 153   0.0000       3.275124        89.1207 
 154   0.0000       3.281335        89.2897 
 155   0.0000       3.286760        89.4373 
 156   0.0000       3.291141        89.5565 
 157   0.0000       3.292545        89.5947 
 158   0.0000       3.299433        89.7821 
 159   0.0000       3.302520        89.8661 
 160   0.0000       3.313202        90.1568 
 161   0.0000       3.316223        90.2390 
 162   0.0000       3.318647        90.3050 
 163   0.0000       3.325790        90.4993 
 164   0.0000       3.329115        90.5898 
 165   0.0000       3.335602        90.7664 
 166   0.0000       3.339097        90.8615 
 167   0.0000       3.340534        90.9005 
 168   0.0000       3.347109        91.0795 
 169   0.0000       3.358087        91.3782 
 170   0.0000       3.359611        91.4197 
 171   0.0000       3.364430        91.5508 
 172   0.0000       3.367249        91.6275 
 173   0.0000       3.370816        91.7246 
 174   0.0000       3.378876        91.9439 
 175   0.0000       3.385098        92.1132 
 176   0.0000       3.387744        92.1852 
 177   0.0000       3.393835        92.3510 
 178   0.0000       3.405689        92.6735 
 179   0.0000       3.409604        92.7800 
 180   0.0000       3.419297        93.0438 
 181   0.0000       3.431963        93.3885 
 182   0.0000       3.435330        93.4801 
 183   0.0000       3.442416        93.6729 
 184   0.0000       3.450497        93.8928 
 185   0.0000       3.455334        94.0244 
 186   0.0000       3.463231        94.2393 
 187   0.0000       3.466413        94.3259 
 188   0.0000       3.475699        94.5786 
 189   0.0000       3.481365        94.7328 
 190   0.0000       3.492089        95.0246 
 191   0.0000       3.501398        95.2779 
 192   0.0000       3.506591        95.4192 
 193   0.0000       3.512185        95.5714 
 194   0.0000       3.518860        95.7530 
 195   0.0000       3.525008        95.9203 
 196   0.0000       3.540120        96.3316 
 197   0.0000       3.549561        96.5885 
 198   0.0000       3.556426        96.7753 
 199   0.0000       3.563092        96.9567 
 200   0.0000       3.568789        97.1117 
 201   0.0000       3.572715        97.2185 
 202   0.0000       3.576651        97.3256 
 203   0.0000       3.585074        97.5548 
 204   0.0000       3.589426        97.6733 
 205   0.0000       3.597367        97.8893 
 206   0.0000       3.614800        98.3637 
 207   0.0000       3.618170        98.4554 
 208   0.0000       3.625036        98.6422 
 209   0.0000       3.629119        98.7534 
 210   0.0000       3.637275        98.9753 
 211   0.0000       3.641646        99.0942 
 212   0.0000       3.649453        99.3067 
 213   0.0000       3.652840        99.3988 
 214   0.0000       3.663166        99.6798 
 215   0.0000       3.671674        99.9113 
 216   0.0000       3.676631       100.0462 
 217   0.0000       3.680745       100.1582 
 218   0.0000       3.689099       100.3855 
 219   0.0000       3.696354       100.5829 
 220   0.0000       3.703120       100.7670 
 221   0.0000       3.718499       101.1855 
 222   0.0000       3.725923       101.3875 
 223   0.0000       3.733703       101.5992 
 224   0.0000       3.734573       101.6229 
 225   0.0000       3.747849       101.9841 
 226   0.0000       3.760635       102.3321 
 227   0.0000       3.765417       102.4622 
 228   0.0000       3.769071       102.5616 
 229   0.0000       3.774112       102.6988 
 230   0.0000       3.781582       102.9021 
 231   0.0000       3.784243       102.9745 
 232   0.0000       3.791765       103.1792 
 233   0.0000       3.804840       103.5350 
 234   0.0000       3.811291       103.7105 
 235   0.0000       3.818219       103.8990 
 236   0.0000       3.822632       104.0191 
 237   0.0000       3.836229       104.3891 
 238   0.0000       3.842539       104.5608 
 239   0.0000       3.849675       104.7550 
 240   0.0000       3.861441       105.0751 
 241   0.0000       3.866419       105.2106 
 242   0.0000       3.875357       105.4538 
 243   0.0000       3.880265       105.5874 
 244   0.0000       3.887491       105.7840 
 245   0.0000       3.895117       105.9915 
 246   0.0000       3.902966       106.2051 
 247   0.0000       3.910988       106.4234 
 248   0.0000       3.912278       106.4585 
 249   0.0000       3.924274       106.7849 
 250   0.0000       3.930602       106.9571 
 251   0.0000       3.937238       107.1377 
 252   0.0000       3.941134       107.2437 
 253   0.0000       3.951003       107.5123 
 254   0.0000       3.955055       107.6225 
 255   0.0000       3.966992       107.9473 
 256   0.0000       3.970995       108.0563 
 257   0.0000       3.975387       108.1758 
 258   0.0000       3.983285       108.3907 
 259   0.0000       3.990396       108.5842 
 260   0.0000       3.996369       108.7467 
 261   0.0000       4.005620       108.9985 
 262   0.0000       4.009352       109.1000 
 263   0.0000       4.016705       109.3001 
 264   0.0000       4.022933       109.4696 
 265   0.0000       4.040006       109.9342 
 266   0.0000       4.046041       110.0984 
 267   0.0000       4.056964       110.3956 
 268   0.0000       4.058808       110.4458 
 269   0.0000       4.073001       110.8320 
 270   0.0000       4.081830       111.0722 
 271   0.0000       4.087738       111.2330 
 272   0.0000       4.093946       111.4019 
 273   0.0000       4.099156       111.5437 
 274   0.0000       4.106566       111.7453 
 275   0.0000       4.120945       112.1366 
 276   0.0000       4.135300       112.5272 
 277   0.0000       4.141182       112.6873 
 278   0.0000       4.145202       112.7967 
 279   0.0000       4.151592       112.9706 
 280   0.0000       4.153883       113.0329 
 281   0.0000       4.161055       113.2281 
 282   0.0000       4.165538       113.3500 
 283   0.0000       4.172189       113.5310 
 284   0.0000       4.177188       113.6671 
 285   0.0000       4.187921       113.9591 
 286   0.0000       4.190858       114.0390 
 287   0.0000       4.198072       114.2354 
 288   0.0000       4.202243       114.3489 
 289   0.0000       4.212799       114.6361 
 290   0.0000       4.213802       114.6634 
 291   0.0000       4.222708       114.9057 
 292   0.0000       4.225504       114.9818 
 293   0.0000       4.231722       115.1510 
 294   0.0000       4.247545       115.5816 
 295   0.0000       4.254300       115.7654 
 296   0.0000       4.262103       115.9777 
 297   0.0000       4.266239       116.0903 
 298   0.0000       4.280290       116.4726 
 299   0.0000       4.282677       116.5376 
 300   0.0000       4.296184       116.9051 
 301   0.0000       4.306753       117.1927 
 302   0.0000       4.314695       117.4088 
 303   0.0000       4.319278       117.5335 
 304   0.0000       4.322499       117.6212 
 305   0.0000       4.337243       118.0224 
 306   0.0000       4.342044       118.1530 
 307   0.0000       4.354596       118.4946 
 308   0.0000       4.360182       118.6466 
 309   0.0000       4.365571       118.7932 
 310   0.0000       4.384741       119.3149 
 311   0.0000       4.387548       119.3912 
 312   0.0000       4.397983       119.6752 
 313   0.0000       4.402455       119.7969 
 314   0.0000       4.405189       119.8713 
 315   0.0000       4.419029       120.2479 
 316   0.0000       4.424253       120.3900 
 317   0.0000       4.434727       120.6751 
 318   0.0000       4.447251       121.0159 
 319   0.0000       4.453687       121.1910 
 320   0.0000       4.474432       121.7555 
 321   0.0000       4.481107       121.9371 
 322   0.0000       4.496654       122.3602 
 323   0.0000       4.499793       122.4456 
 324   0.0000       4.510181       122.7283 
 325   0.0000       4.521986       123.0495 
 326   0.0000       4.526132       123.1623 
 327   0.0000       4.543372       123.6314 
 328   0.0000       4.549691       123.8034 
 329   0.0000       4.559917       124.0816 
 330   0.0000       4.567545       124.2892 
 331   0.0000       4.568030       124.3024 
 332   0.0000       4.585348       124.7737 
 333   0.0000       4.591949       124.9533 
 334   0.0000       4.607520       125.3770 
 335   0.0000       4.617572       125.6505 
 336   0.0000       4.625690       125.8714 
 337   0.0000       4.632871       126.0668 
 338   0.0000       4.638057       126.2079 
 339   0.0000       4.650935       126.5584 
 340   0.0000       4.670286       127.0849 
 341   0.0000       4.673317       127.1674 
 342   0.0000       4.691987       127.6755 
 343   0.0000       4.699215       127.8721 
 344   0.0000       4.735246       128.8526 
 345   0.0000       4.754461       129.3755 
 346   0.0000       4.762305       129.5889 
 347   0.0000       4.777864       130.0123 
 348   0.0000       4.788692       130.3069 
 349   0.0000       4.795736       130.4986 
 350   0.0000       4.830201       131.4364 
 351   0.0000       4.840367       131.7131 
 352   0.0000       4.862746       132.3221 
 353   0.0000       4.875049       132.6568 
 354   0.0000       4.886822       132.9772 
 355   0.0000       4.894969       133.1989 
 356   0.0000       4.901153       133.3672 
 357   0.0000       4.922240       133.9410 
 358   0.0000       4.929705       134.1441 
 359   0.0000       4.935080       134.2904 
 360   0.0000       4.942696       134.4976 
 361   0.0000       4.951949       134.7494 
 362   0.0000       4.971392       135.2785 
 363   0.0000       4.985662       135.6668 
 364   0.0000       4.998425       136.0141 
 365   0.0000       5.005561       136.2082 
 366   0.0000       5.012782       136.4047 
 367   0.0000       5.028136       136.8225 
 368   0.0000       5.042841       137.2227 
 369   0.0000       5.066333       137.8619 
 370   0.0000       5.079391       138.2173 
 371   0.0000       5.094667       138.6329 
 372   0.0000       5.122176       139.3815 
 373   0.0000       5.140554       139.8816 
 374   0.0000       5.152417       140.2044 
 375   0.0000       5.171330       140.7190 
 376   0.0000       5.175698       140.8379 
 377   0.0000       5.189054       141.2014 
 378   0.0000       5.189486       141.2131 
 379   0.0000       5.218377       141.9993 
 380   0.0000       5.227012       142.2342 
 381   0.0000       5.244479       142.7095 
 382   0.0000       5.245553       142.7387 
 383   0.0000       5.254580       142.9844 
 384   0.0000       5.263183       143.2185 
 385   0.0000       5.284598       143.8012 
 386   0.0000       5.290287       143.9560 
 387   0.0000       5.298985       144.1927 
 388   0.0000       5.304747       144.3495 
 389   0.0000       5.321679       144.8102 
 390   0.0000       5.339706       145.3008 
 391   0.0000       5.350232       145.5872 
 392   0.0000       5.353627       145.6796 
 393   0.0000       5.359657       145.8437 
 394   0.0000       5.370405       146.1361 
 395   0.0000       5.386997       146.5876 
 396   0.0000       5.400184       146.9465 
 397   0.0000       5.402677       147.0143 
 398   0.0000       5.407220       147.1379 
 399   0.0000       5.418897       147.4557 
 400   0.0000       5.436518       147.9352 
 401   0.0000       5.441697       148.0761 
 402   0.0000       5.453460       148.3962 
 403   0.0000       5.461575       148.6170 
 404   0.0000       5.470107       148.8492 
 405   0.0000       5.480872       149.1421 
 406   0.0000       5.487030       149.3097 
 407   0.0000       5.500204       149.6682 
 408   0.0000       5.509399       149.9184 
 409   0.0000       5.518618       150.1692 
 410   0.0000       5.531214       150.5120 
 411   0.0000       5.541251       150.7851 
 412   0.0000       5.543441       150.8447 
 413   0.0000       5.559912       151.2929 
 414   0.0000       5.566152       151.4627 
 415   0.0000       5.572342       151.6311 
 416   0.0000       5.576247       151.7374 
 417   0.0000       5.579832       151.8349 
 418   0.0000       5.598677       152.3477 
 419   0.0000       5.602424       152.4497 
 420   0.0000       5.610885       152.6799 
 421   0.0000       5.619940       152.9264 
 422   0.0000       5.634138       153.3127 
 423   0.0000       5.644580       153.5968 
 424   0.0000       5.650750       153.7647 
 425   0.0000       5.662947       154.0966 
 426   0.0000       5.668838       154.2569 
 427   0.0000       5.684347       154.6789 
 428   0.0000       5.699356       155.0874 
 429   0.0000       5.703530       155.2009 
 430   0.0000       5.706315       155.2767 
 431   0.0000       5.717572       155.5830 
 432   0.0000       5.726222       155.8184 
 433   0.0000       5.727810       155.8616 
 434   0.0000       5.730663       155.9393 
 435   0.0000       5.742910       156.2725 
 436   0.0000       5.747009       156.3841 
 437   0.0000       5.750840       156.4883 
 438   0.0000       5.760828       156.7601 
 439   0.0000       5.775959       157.1718 
 440   0.0000       5.783099       157.3661 
 441   0.0000       5.786219       157.4510 
 442   0.0000       5.795902       157.7145 
 443   0.0000       5.798685       157.7902 
 444   0.0000       5.808041       158.0448 
 445   0.0000       5.812716       158.1720 
 446   0.0000       5.823673       158.4702 
 447   0.0000       5.827639       158.5781 
 448   0.0000       5.833828       158.7465 
 449   0.0000       5.838065       158.8618 
 450   0.0000       5.856338       159.3591 
 451   0.0000       5.861376       159.4961 
 452   0.0000       5.863309       159.5488 
 453   0.0000       5.872172       159.7899 
 454   0.0000       5.875679       159.8853 
 455   0.0000       5.895532       160.4256 
 456   0.0000       5.896864       160.4618 
 457   0.0000       5.906783       160.7317 
 458   0.0000       5.916102       160.9853 
 459   0.0000       5.922126       161.1492 
 460   0.0000       5.927165       161.2864 
 461   0.0000       5.930748       161.3839 
 462   0.0000       5.934096       161.4750 
 463   0.0000       5.938133       161.5848 
 464   0.0000       5.946787       161.8203 
 465   0.0000       5.948697       161.8723 
 466   0.0000       5.962910       162.2590 
 467   0.0000       5.974009       162.5611 
 468   0.0000       5.980147       162.7281 
 469   0.0000       5.982118       162.7817 
 470   0.0000       5.987410       162.9257 
 471   0.0000       5.992135       163.0543 
 472   0.0000       5.995880       163.1562 
 473   0.0000       6.006159       163.4359 
 474   0.0000       6.008070       163.4879 
 475   0.0000       6.016277       163.7112 
 476   0.0000       6.027678       164.0215 
 477   0.0000       6.032560       164.1543 
 478   0.0000       6.037108       164.2781 
 479   0.0000       6.049693       164.6205 
 480   0.0000       6.051032       164.6569 
 481   0.0000       6.059368       164.8838 
 482   0.0000       6.066888       165.0884 
 483   0.0000       6.072577       165.2432 
 484   0.0000       6.074697       165.3009 
 485   0.0000       6.083829       165.5494 
 486   0.0000       6.088096       165.6655 
 487   0.0000       6.093239       165.8055 
 488   0.0000       6.098981       165.9617 
 489   0.0000       6.102672       166.0621 
 490   0.0000       6.106528       166.1671 
 491   0.0000       6.117100       166.4548 
 492   0.0000       6.122022       166.5887 
 493   0.0000       6.125126       166.6731 
 494   0.0000       6.129338       166.7878 
 495   0.0000       6.139453       167.0630 
 496   0.0000       6.141297       167.1132 
 497   0.0000       6.149558       167.3380 
 498   0.0000       6.154755       167.4794 
 499   0.0000       6.166982       167.8121 
 500   0.0000       6.174428       168.0147 
 501   0.0000       6.184102       168.2780 
 502   0.0000       6.188374       168.3942 
 503   0.0000       6.193983       168.5468 
 504   0.0000       6.197455       168.6413 
 505   0.0000       6.212456       169.0495 
 506   0.0000       6.221435       169.2939 
 507   0.0000       6.226135       169.4218 
 508   0.0000       6.238335       169.7537 
 509   0.0000       6.239687       169.7905 
 510   0.0000       6.251635       170.1156 
 511   0.0000       6.256760       170.2551 
 512   0.0000       6.264373       170.4623 
 513   0.0000       6.272963       170.6960 
 514   0.0000       6.279283       170.8680 
 515   0.0000       6.281487       170.9280 
 516   0.0000       6.287422       171.0895 
 517   0.0000       6.288692       171.1240 
 518   0.0000       6.307132       171.6258 
 519   0.0000       6.311623       171.7480 
 520   0.0000       6.315772       171.8609 
 521   0.0000       6.320873       171.9997 
 522   0.0000       6.330136       172.2518 
 523   0.0000       6.331614       172.2920 
 524   0.0000       6.339280       172.5006 
 525   0.0000       6.349824       172.7875 
 526   0.0000       6.355014       172.9287 
 527   0.0000       6.357884       173.0068 
 528   0.0000       6.362269       173.1262 
 529   0.0000       6.373288       173.4260 
 530   0.0000       6.375989       173.4995 
 531   0.0000       6.394468       174.0023 
 532   0.0000       6.399255       174.1326 
 533   0.0000       6.402552       174.2223 
 534   0.0000       6.412682       174.4979 
 535   0.0000       6.419370       174.6799 
 536   0.0000       6.420947       174.7229 
 537   0.0000       6.424911       174.8307 
 538   0.0000       6.431595       175.0126 
 539   0.0000       6.435121       175.1085 
 540   0.0000       6.444271       175.3575 
 541   0.0000       6.448120       175.4623 
 542   0.0000       6.456014       175.6771 
 543   0.0000       6.464957       175.9204 
 544   0.0000       6.471464       176.0975 
 545   0.0000       6.477589       176.2642 
 546   0.0000       6.481386       176.3675 
 547   0.0000       6.485746       176.4861 
 548   0.0000       6.501929       176.9265 
 549   0.0000       6.510494       177.1595 
 550   0.0000       6.511555       177.1884 
 551   0.0000       6.527680       177.6272 
 552   0.0000       6.546412       178.1369 
 553   0.0000       6.551655       178.2796 
 554   0.0000       6.556340       178.4071 
 555   0.0000       6.566506       178.6837 
 556   0.0000       6.580688       179.0696 
 557   0.0000       6.583851       179.1557 
 558   0.0000       6.593217       179.4106 
 559   0.0000       6.597990       179.5404 
 560   0.0000       6.602569       179.6650 
 561   0.0000       6.612826       179.9441 
 562   0.0000       6.624085       180.2505 
 563   0.0000       6.628719       180.3766 
 564   0.0000       6.634739       180.5404 
 565   0.0000       6.638521       180.6433 
 566   0.0000       6.652200       181.0156 
 567   0.0000       6.658536       181.1880 
 568   0.0000       6.666968       181.4174 
 569   0.0000       6.677583       181.7063 
 570   0.0000       6.687709       181.9818 
 571   0.0000       6.693861       182.1492 
 572   0.0000       6.704087       182.4275 
 573   0.0000       6.709335       182.5703 
 574   0.0000       6.719457       182.8457 
 575   0.0000       6.720849       182.8836 
 576   0.0000       6.739608       183.3941 
 577   0.0000       6.754190       183.7908 
 578   0.0000       6.763757       184.0512 
 579   0.0000       6.772402       184.2864 
 580   0.0000       6.777325       184.4204 
 581   0.0000       6.784082       184.6043 
 582   0.0000       6.793527       184.8613 
 583   0.0000       6.797607       184.9723 
 584   0.0000       6.802724       185.1115 
 585   0.0000       6.808807       185.2770 
 586   0.0000       6.818104       185.5300 
 587   0.0000       6.826086       185.7472 
 588   0.0000       6.831006       185.8811 
 589   0.0000       6.834302       185.9708 
 590   0.0000       6.842142       186.1841 
 591   0.0000       6.848508       186.3574 
 592   0.0000       6.853563       186.4949 
 593   0.0000       6.861876       186.7211 
 594   0.0000       6.869425       186.9266 
 595   0.0000       6.875419       187.0897 
 596   0.0000       6.880405       187.2253 
 597   0.0000       6.893990       187.5950 
 598   0.0000       6.907190       187.9542 
 599   0.0000       6.910562       188.0460 
 600   0.0000       6.917605       188.2376 
 601   0.0000       6.921864       188.3535 
 602   0.0000       6.930727       188.5947 
 603   0.0000       6.939749       188.8402 
 604   0.0000       6.946592       189.0264 
 605   0.0000       6.950190       189.1243 
 606   0.0000       6.958256       189.3438 
 607   0.0000       6.973837       189.7677 
 608   0.0000       6.983618       190.0339 
 609   0.0000       6.985938       190.0970 
 610   0.0000       6.992634       190.2792 
 611   0.0000       7.007525       190.6844 
 612   0.0000       7.012314       190.8148 
 613   0.0000       7.018771       190.9905 
 614   0.0000       7.022032       191.0792 
 615   0.0000       7.033853       191.4009 
 616   0.0000       7.048023       191.7865 
 617   0.0000       7.060888       192.1365 
 618   0.0000       7.066704       192.2948 
 619   0.0000       7.073648       192.4838 
 620   0.0000       7.084076       192.7675 
 621   0.0000       7.098559       193.1616 
 622   0.0000       7.103091       193.2849 
 623   0.0000       7.107507       193.4051 
 624   0.0000       7.120212       193.7508 
 625   0.0000       7.126737       193.9284 
 626   0.0000       7.131886       194.0685 
 627   0.0000       7.140514       194.3033 
 628   0.0000       7.145229       194.4316 
 629   0.0000       7.153037       194.6440 
 630   0.0000       7.163042       194.9163 
 631   0.0000       7.169826       195.1009 
 632   0.0000       7.188151       195.5995 
 633   0.0000       7.197610       195.8569 
 634   0.0000       7.204637       196.0481 
 635   0.0000       7.211810       196.2433 
 636   0.0000       7.218527       196.4261 
 637   0.0000       7.228042       196.6850 
 638   0.0000       7.236704       196.9207 
 639   0.0000       7.238299       196.9641 
 640   0.0000       7.246134       197.1773 
 641   0.0000       7.251732       197.3297 
 642   0.0000       7.264999       197.6907 
 643   0.0000       7.274188       197.9407 
 644   0.0000       7.284762       198.2285 
 645   0.0000       7.288028       198.3173 
 646   0.0000       7.295661       198.5250 
 647   0.0000       7.302736       198.7176 
 648   0.0000       7.309273       198.8954 
 649   0.0000       7.316278       199.0860 
 650   0.0000       7.325909       199.3481 
 651   0.0000       7.333937       199.5666 
 652   0.0000       7.342029       199.7868 
 653   0.0000       7.345186       199.8727 
 654   0.0000       7.365177       200.4166 
 655   0.0000       7.371575       200.5908 
 656   0.0000       7.393170       201.1784 
 657   0.0000       7.401722       201.4111 
 658   0.0000       7.418541       201.8688 
 659   0.0000       7.421027       201.9364 
 660   0.0000       7.435202       202.3221 
 661   0.0000       7.447792       202.6647 
 662   0.0000       7.465335       203.1421 
 663   0.0000       7.466823       203.1826 
 664   0.0000       7.485956       203.7032 
 665   0.0000       7.494130       203.9256 
 666   0.0000       7.497777       204.0249 
 667   0.0000       7.508586       204.3190 
 668   0.0000       7.543654       205.2733 
 669   0.0000       7.551160       205.4775 
 670   0.0000       7.561111       205.7483 
 671   0.0000       7.588617       206.4968 
 672   0.0000       7.625295       207.4948 
 673   0.0000       7.639431       207.8795 
 674   0.0000       7.646826       208.0807 
 675   0.0000       7.652937       208.2470 
 676   0.0000       7.665615       208.5920 
 677   0.0000       7.681049       209.0120 
 678   0.0000       7.693677       209.3556 
 679   0.0000       7.700817       209.5499 
 680   0.0000       7.725518       210.2220 
 681   0.0000       7.734517       210.4669 
 682   0.0000       7.747336       210.8157 
 683   0.0000       7.757119       211.0820 
 684   0.0000       7.764013       211.2695 
 685   0.0000       7.779104       211.6802 
 686   0.0000       7.782598       211.7753 
 687   0.0000       7.807583       212.4551 
 688   0.0000       7.811191       212.5533 
 689   0.0000       7.821486       212.8335 
 690   0.0000       7.827488       212.9968 
 691   0.0000       7.840910       213.3620 
 692   0.0000       7.856279       213.7802 
 693   0.0000       7.862045       213.9371 
 694   0.0000       7.867956       214.0980 
 695   0.0000       7.871778       214.2020 
 696   0.0000       7.880206       214.4313 
 697   0.0000       7.882582       214.4960 
 698   0.0000       7.902498       215.0379 
 699   0.0000       7.905915       215.1309 
 700   0.0000       7.919929       215.5122 
 701   0.0000       7.927051       215.7060 
 702   0.0000       7.939244       216.0378 
 703   0.0000       7.974563       216.9989 
 704   0.0000       7.980654       217.1646 
 705   0.0000       7.992570       217.4889 
 706   0.0000       8.008916       217.9337 
 707   0.0000       8.018489       218.1942 
 708   0.0000       8.033261       218.5962 
 709   0.0000       8.035787       218.6649 
 710   0.0000       8.047136       218.9737 
 711   0.0000       8.071029       219.6239 
 712   0.0000       8.082912       219.9472 
 713   0.0000       8.105497       220.5618 
 714   0.0000       8.118986       220.9288 
 715   0.0000       8.132871       221.3067 
 716   0.0000       8.150190       221.7779 
 717   0.0000       8.169425       222.3013 
 718   0.0000       8.178334       222.5438 
 719   0.0000       8.193400       222.9537 
 720   0.0000       8.199278       223.1137 
 721   0.0000       8.226949       223.8667 
 722   0.0000       8.234581       224.0743 
 723   0.0000       8.240237       224.2282 
 724   0.0000       8.252278       224.5559 
 725   0.0000       8.260943       224.7917 
 726   0.0000       8.275858       225.1975 
 727   0.0000       8.283061       225.3935 
 728   0.0000       8.298488       225.8133 
 729   0.0000       8.312934       226.2064 
 730   0.0000       8.326013       226.5623 
 731   0.0000       8.332258       226.7323 
 732   0.0000       8.344466       227.0645 
 733   0.0000       8.371783       227.8078 
 734   0.0000       8.381169       228.0632 
 735   0.0000       8.383631       228.1302 
 736   0.0000       8.395015       228.4400 
 737   0.0000       8.405950       228.7375 
 738   0.0000       8.414211       228.9623 
 739   0.0000       8.436832       229.5779 
 740   0.0000       8.447333       229.8636 
 741   0.0000       8.464617       230.3339 
 742   0.0000       8.469483       230.4663 
 743   0.0000       8.483956       230.8602 
 744   0.0000       8.513947       231.6763 
 745   0.0000       8.523113       231.9257 
 746   0.0000       8.529291       232.0938 
 747   0.0000       8.551911       232.7093 
 748   0.0000       8.558118       232.8782 
 749   0.0000       8.584248       233.5893 
 750   0.0000       8.603184       234.1046 
 751   0.0000       8.638334       235.0610 
 752   0.0000       8.649230       235.3575 
 753   0.0000       8.682148       236.2533 
 754   0.0000       8.698682       236.7032 
 755   0.0000       8.702814       236.8156 
 756   0.0000       8.714135       237.1237 
 757   0.0000       8.737703       237.7650 
 758   0.0000       8.746387       238.0013 
 759   0.0000       8.769383       238.6270 
 760   0.0000       8.789368       239.1709 
 761   0.0000       8.851133       240.8516 
 762   0.0000       8.863259       241.1815 
 763   0.0000       8.888822       241.8771 
 764   0.0000       8.902527       242.2501 
 765   0.0000       8.909833       242.4489 
 766   0.0000       8.921510       242.7666 
 767   0.0000       8.980557       244.3734 
 768   0.0000       8.988868       244.5995 
 769   0.0000       9.018355       245.4019 
 770   0.0000       9.055083       246.4013 
 771   0.0000       9.062680       246.6081 
 772   0.0000       9.080537       247.0940 
 773   0.0000       9.097001       247.5420 
 774   0.0000       9.117613       248.1029 
 775   0.0000       9.158949       249.2277 
 776   0.0000       9.185582       249.9524 
 777   0.0000       9.244261       251.5491 
 778   0.0000       9.266667       252.1588 
 779   0.0000       9.287211       252.7179 
 780   0.0000       9.331704       253.9286 
 781   0.0000       9.335822       254.0406 
 782   0.0000       9.397419       255.7168 
 783   0.0000       9.439385       256.8587 
 784   0.0000       9.459632       257.4097 
 785   0.0000       9.529910       259.3220 
 786   0.0000       9.571167       260.4447 
 787   0.0000       9.601484       261.2697 
 788   0.0000       9.626711       261.9561 
 789   0.0000       9.671047       263.1626 
 790   0.0000       9.724245       264.6102 
 791   0.0000       9.756773       265.4953 
 792   0.0000       9.785592       266.2795 
 793   0.0000       9.795118       266.5387 
 794   0.0000       9.866536       268.4821 
 795   0.0000       9.877640       268.7843 
 796   0.0000       9.902624       269.4641 
 797   0.0000       9.925278       270.0805 
 798   0.0000       9.990608       271.8583 
 799   0.0000      10.018323       272.6124 
 800   0.0000      10.053272       273.5634 
 801   0.0000      10.188354       277.2392 
 802   0.0000      10.190630       277.3011 
 803   0.0000      10.223869       278.2056 
 804   0.0000      10.318541       280.7818 
 805   0.0000      10.404974       283.1337 
 806   0.0000      10.493915       285.5540 
 807   0.0000      10.580842       287.9194 
 808   0.0000      10.619817       288.9799 
 809   0.0000      11.984359       326.1110 
 810   0.0000      12.563483       341.8698 
 811   0.0000      13.696931       372.7124 
 812   0.0000      14.227847       387.1594 
 813   0.0000      14.754327       401.4856 
 814   0.0000      15.037867       409.2012 
 815   0.0000      15.454701       420.5438 
 816   0.0000      15.624303       425.1589 
 817   0.0000      15.750150       428.5834 
 818   0.0000      15.911391       432.9710 
 819   0.0000      16.031530       436.2401 
 820   0.0000      16.313641       443.9167 
 821   0.0000      16.395358       446.1404 
 822   0.0000      16.664017       453.4510 
 823   0.0000      16.839891       458.2367 
 824   0.0000      16.944378       461.0800 
 825   0.0000      17.334307       471.6905 
 826   0.0000      17.673954       480.9327 
 827   0.0000      18.558338       504.9981 

                    ********************************
                    * MULLIKEN POPULATION ANALYSIS *
                    ********************************

-----------------------
MULLIKEN ATOMIC CHARGES
-----------------------
   0 C :   -0.307495
   1 C :    0.014324
   2 O :   -0.306586
   3 C :    0.514330
   4 O :   -0.585761
   5 C :   -0.180647
   6 C :    0.181467
   7 C :   -0.316556
   8 N :   -0.129518
   9 C :    0.349955
  10 S :   -0.712319
  11 N :   -0.230440
  12 C :    0.087503
  13 C :    0.042667
  14 C :   -0.318432
  15 C :   -0.181981
  16 C :   -0.262252
  17 C :    0.329161
  18 O :   -0.458253
  19 C :   -0.278058
  20 H :    0.106696
  21 H :    0.120690
  22 H :    0.102188
  23 H :    0.123749
  24 H :    0.106636
  25 H :    0.138377
  26 H :    0.124240
  27 H :    0.134991
  28 H :    0.265484
  29 H :    0.255782
  30 H :    0.165377
  31 H :    0.209578
  32 H :    0.197267
  33 H :    0.193111
  34 H :    0.334465
  35 H :    0.170259
Sum of atomic charges:   -0.0000000

--------------------------------
MULLIKEN REDUCED ORBITAL CHARGES
--------------------------------
  0 C s       :     3.271441  s :     3.271441
      pz      :     1.003466  p :     2.958712
      px      :     0.937557
      py      :     1.017689
      dz2     :     0.022185  d :     0.072601
      dxz     :     0.010387
      dyz     :     0.008088
      dx2y2   :     0.016947
      dxy     :     0.014994
      f0      :     0.001488  f :     0.004741
      f+1     :     0.000426
      f-1     :     0.000139
      f+2     :     0.000206
      f-2     :     0.000563
      f+3     :     0.000656
      f-3     :     0.001264
  1 C s       :     3.156490  s :     3.156490
      pz      :     0.906540  p :     2.662344
      px      :     0.961024
      py      :     0.794780
      dz2     :     0.043890  d :     0.154488
      dxz     :     0.016366
      dyz     :     0.026503
      dx2y2   :     0.027265
      dxy     :     0.040463
      f0      :     0.001548  f :     0.012355
      f+1     :     0.000862
      f-1     :     0.002752
      f+2     :     0.001812
      f-2     :     0.001682
      f+3     :     0.001920
      f-3     :     0.001779
  2 O s       :     3.698299  s :     3.698299
      pz      :     1.696447  p :     4.568625
      px      :     1.602992
      py      :     1.269186
      dz2     :     0.005810  d :     0.037126
      dxz     :     0.003836
      dyz     :     0.008027
      dx2y2   :     0.005589
      dxy     :     0.013865
      f0      :     0.000303  f :     0.002535
      f+1     :     0.000159
[...]
 15 C s       :     2.714691  s :     2.714691
      pz      :     0.955120  p :     2.801025
      px      :     0.949730
      py      :     0.896175
      dz2     :     0.115226  d :     0.406488
      dxz     :     0.081643
      dyz     :     0.080292
      dx2y2   :     0.059210
      dxy     :     0.070118
      f0      :     0.005758  f :     0.038366
      f+1     :     0.006292
      f-1     :     0.006397
      f+2     :     0.006984
      f-2     :     0.006109
      f+3     :     0.002577
      f-3     :     0.004249
 16 C s       :     2.709354  s :     2.709354
      pz      :     0.962838  p :     2.859939
      px      :     0.965066
      py      :     0.932036
      dz2     :     0.079543  d :     0.379488
      dxz     :     0.096079
      dyz     :     0.054285
      dx2y2   :     0.074511
      dxy     :     0.075070
      f0      :     0.005624  f :     0.039158
      f+1     :     0.005479
      f-1     :     0.005691
      f+2     :     0.005247
      f-2     :     0.005590
      f+3     :     0.005813
      f-3     :     0.005714
 17 C s       :     2.702399  s :     2.702399
      pz      :     0.882681  p :     2.687207
      px      :     0.983553
      py      :     0.820974
      dz2     :     0.178116  d :     0.716234
      dxz     :     0.146781
      dyz     :     0.139940
      dx2y2   :     0.136476
      dxy     :     0.114921
      f0      :     0.017761  f :     0.101026
      f+1     :     0.011583
      f-1     :     0.018250
      f+2     :     0.018902
      f-2     :     0.014563
      f+3     :     0.010199
      f-3     :     0.009767
 18 O s       :     3.176804  s :     3.176804
      pz      :     1.511848  p :     4.388069
      px      :     1.334876
      py      :     1.541345
      dz2     :     0.017040  d :     0.072804
      dxz     :     0.011276
      dyz     :     0.015976
      dx2y2   :     0.019675
      dxy     :     0.008837
      f0      :     0.000496  f :     0.005227
      f+1     :     0.000526
      f-1     :     0.001044
      f+2     :     0.001115
      f-2     :     0.000771
      f+3     :     0.000681
      f-3     :     0.000593
 19 C s       :     2.694207  s :     2.694207
      pz      :     0.960139  p :     2.856539
      px      :     0.957520
      py      :     0.938880
      dz2     :     0.105458  d :     0.391096
      dxz     :     0.083638
      dyz     :     0.075247
      dx2y2   :     0.060410
      dxy     :     0.066342
      f0      :     0.006017  f :     0.041471
      f+1     :     0.006814
      f-1     :     0.007416
      f+2     :     0.007647
      f-2     :     0.006560
      f+3     :     0.002854
      f-3     :     0.004164
 20 H s       :     0.844990  s :     0.844990
      pz      :     0.073318  p :     0.149941
      px      :     0.037399
      py      :     0.039224
      dz2     :     0.009034  d :     0.027570
      dxz     :     0.008894
      dyz     :     0.009463
      dx2y2   :     0.000062
      dxy     :     0.000118
 21 H s       :     0.834132  s :     0.834132
      pz      :     0.043228  p :     0.149805
      px      :     0.038762
      py      :     0.067816
      dz2     :     0.004340  d :     0.027433
      dxz     :     0.000908
      dyz     :     0.007561
      dx2y2   :     0.006367
      dxy     :     0.008257
 22 H s       :     0.841800  s :     0.841800
      pz      :     0.042646  p :     0.153884
      px      :     0.060642
      py      :     0.050596
      dz2     :     0.004660  d :     0.027971
      dxz     :     0.005366
      dyz     :     0.003098
      dx2y2   :     0.008624
      dxy     :     0.006224
 23 H s       :     0.837816  s :     0.837816
      pz      :     0.039083  p :     0.148489
      px      :     0.057824
      py      :     0.051582
      dz2     :     0.002604  d :     0.027840
      dxz     :     0.004790
      dyz     :     0.005096
      dx2y2   :     0.007669
      dxy     :     0.007680
 24 H s       :     0.844749  s :     0.844749
      pz      :     0.077365  p :     0.149657
      px      :     0.041439
      py      :     0.030854
      dz2     :     0.010375  d :     0.027945
      dxz     :     0.009509
      dyz     :     0.007052
      dx2y2   :     0.000124
      dxy     :     0.000886
 25 H s       :     0.818875  s :     0.818875
      pz      :     0.045747  p :     0.152956
      px      :     0.066671
      py      :     0.040538
      dz2     :     0.004386  d :     0.027997
      dxz     :     0.007514
      dyz     :     0.001429
      dx2y2   :     0.006886
      dxy     :     0.007782
 26 H s       :     0.823983  s :     0.823983
      pz      :     0.044683  p :     0.152118
      px      :     0.054351
      py      :     0.053084
      dz2     :     0.003765  d :     0.028220
      dxz     :     0.004895
      dyz     :     0.004279
      dx2y2   :     0.008498
      dxy     :     0.006783
 27 H s       :     0.818040  s :     0.818040
      pz      :     0.074706  p :     0.153322
      px      :     0.043450
      py      :     0.035166
      dz2     :     0.008999  d :     0.028407
      dxz     :     0.010179
      dyz     :     0.008893
      dx2y2   :     0.000177
      dxy     :     0.000159
 28 H s       :     0.709877  s :     0.709877
      pz      :     0.108040  p :     0.248285
      px      :     0.096198
      py      :     0.044047
      dz2     :     0.019457  d :     0.060739
      dxz     :     0.015670
      dyz     :     0.011358
      dx2y2   :     0.008575
      dxy     :     0.005679
 29 H s       :     0.719589  s :     0.719589
      pz      :     0.047876  p :     0.252781
      px      :     0.078979
      py      :     0.125926
      dz2     :     0.006173  d :     0.060706
      dxz     :     0.000693
      dyz     :     0.016403
      dx2y2   :     0.015352
      dxy     :     0.022084
 30 H s       :     0.823470  s :     0.823470
      pz      :     0.038045  p :     0.151066
      px      :     0.078631
      py      :     0.034390
      dz2     :     0.003478  d :     0.028705
      dxz     :     0.008599
      dyz     :     0.001596
      dx2y2   :     0.008099
      dxy     :     0.006935
 31 H s       :     0.834698  s :     0.834698
      pz      :     0.062072  p :     0.162151
      px      :     0.041522
      py      :     0.058556
      dz2     :     0.007241  d :     0.027866
      dxz     :     0.005940
      dyz     :     0.006511
      dx2y2   :     0.004018
      dxy     :     0.004156
 32 H s       :     0.835693  s :     0.835693
      pz      :     0.035838  p :     0.154536
      px      :     0.072003
      py      :     0.046695
      dz2     :     0.002908  d :     0.026899
      dxz     :     0.006831
      dyz     :     0.001960
      dx2y2   :     0.007445
      dxy     :     0.007755
 33 H s       :     0.837324  s :     0.837324
      pz      :     0.068798  p :     0.156012
      px      :     0.046126
      py      :     0.041088
      dz2     :     0.008505  d :     0.027358
      dxz     :     0.007746
      dyz     :     0.006076
      dx2y2   :     0.002525
      dxy     :     0.002506
 34 H s       :     0.664194  s :     0.664194
      pz      :     0.083174  p :     0.344246
      px      :     0.171320
      py      :     0.089751
      dz2     :     0.008406  d :     0.099162
      dxz     :     0.032359
      dyz     :     0.000407
      dx2y2   :     0.024413
      dxy     :     0.033577
 35 H s       :     0.827972  s :     0.827972
      pz      :     0.036567  p :     0.159051
      px      :     0.075378
      py      :     0.047106
      dz2     :     0.002889  d :     0.028213
      dxz     :     0.007517
      dyz     :     0.001634
      dx2y2   :     0.008107
      dxy     :     0.008066


                      *****************************
                      * MAYER POPULATION ANALYSIS *
                      *****************************

  NA   - Mulliken gross atomic population
  ZA   - Total nuclear charge
  QA   - Mulliken gross atomic charge
  VA   - Mayer's total valence
  BVA  - Mayer's bonded valence
  FA   - Mayer's free valence

  ATOM       NA         ZA         QA         VA         BVA        FA
  0 C      6.3075     6.0000    -0.3075     3.8660     3.8660     0.0000
  1 C      5.9857     6.0000     0.0143     3.8456     3.8456    -0.0000
  2 O      8.3066     8.0000    -0.3066     2.1022     2.1022     0.0000
  3 C      5.4857     6.0000     0.5143     4.2320     4.2320    -0.0000
  4 O      8.5858     8.0000    -0.5858     1.9594     1.9594    -0.0000
  5 C      6.1806     6.0000    -0.1806     3.6303     3.6303     0.0000
  6 C      5.8185     6.0000     0.1815     3.8356     3.8356    -0.0000
  7 C      6.3166     6.0000    -0.3166     3.8746     3.8746     0.0000
  8 N      7.1295     7.0000    -0.1295     3.3782     3.3782    -0.0000
  9 C      5.6500     6.0000     0.3500     4.0498     4.0498    -0.0000
 10 S     16.7123    16.0000    -0.7123     1.4455     1.4455    -0.0000
 11 N      7.2304     7.0000    -0.2304     3.3461     3.3461    -0.0000
 12 C      5.9125     6.0000     0.0875     3.9174     3.9174    -0.0000
 13 C      5.9573     6.0000     0.0427     3.6197     3.6197    -0.0000
 14 C      6.3184     6.0000    -0.3184     3.8158     3.8158    -0.0000
 15 C      6.1820     6.0000    -0.1820     3.8014     3.8014    -0.0000
 16 C      6.2623     6.0000    -0.2623     3.7796     3.7796    -0.0000
 17 C      5.6708     6.0000     0.3292     3.8372     3.8372    -0.0000
 18 O      8.4583     8.0000    -0.4583     2.0381     2.0381     0.0000
 19 C      6.2781     6.0000    -0.2781     3.8244     3.8244    -0.0000
 20 H      0.8933     1.0000     0.1067     0.9802     0.9802    -0.0000
 21 H      0.8793     1.0000     0.1207     0.9795     0.9795     0.0000
 22 H      0.8978     1.0000     0.1022     0.9848     0.9848     0.0000
 23 H      0.8763     1.0000     0.1237     0.9727     0.9727    -0.0000
 24 H      0.8934     1.0000     0.1066     0.9831     0.9831     0.0000
 25 H      0.8616     1.0000     0.1384     0.9772     0.9772    -0.0000
 26 H      0.8758     1.0000     0.1242     0.9828     0.9828     0.0000
 27 H      0.8650     1.0000     0.1350     0.9774     0.9774     0.0000
 28 H      0.7345     1.0000     0.2655     0.9587     0.9587    -0.0000
 29 H      0.7442     1.0000     0.2558     0.9702     0.9702     0.0000
 30 H      0.8346     1.0000     0.1654     0.9986     0.9986    -0.0000
 31 H      0.7904     1.0000     0.2096     0.9563     0.9563     0.0000
 32 H      0.8027     1.0000     0.1973     0.9634     0.9634    -0.0000
 33 H      0.8069     1.0000     0.1931     0.9777     0.9777    -0.0000
 34 H      0.6655     1.0000     0.3345     0.9305     0.9305     0.0000
 35 H      0.8297     1.0000     0.1703     0.9818     0.9818    -0.0000

  Mayer bond orders larger than 0.100000
B(  0-C ,  1-C ) :   0.9540 B(  0-C , 20-H ) :   0.9743 B(  0-C , 21-H ) :   0.9728 
B(  0-C , 22-H ) :   0.9784 B(  1-C ,  2-O ) :   0.9028 B(  1-C , 23-H ) :   0.9818 
B(  1-C , 24-H ) :   0.9816 B(  2-O ,  3-C ) :   1.2136 B(  3-C ,  4-O ) :   1.8897 
B(  3-C ,  5-C ) :   1.0831 B(  5-C ,  6-C ) :   1.6278 B(  5-C , 12-C ) :   0.9836 
B(  6-C ,  7-C ) :   0.9496 B(  6-C ,  8-N ) :   1.1519 B(  7-C , 25-H ) :   0.9550 
B(  7-C , 26-H ) :   0.9727 B(  7-C , 27-H ) :   0.9799 B(  8-N ,  9-C ) :   1.2642 
B(  8-N , 28-H ) :   0.9192 B(  9-C , 10-S ) :   1.2989 B(  9-C , 11-N ) :   1.4174 
B( 11-N , 12-C ) :   0.9506 B( 11-N , 29-H ) :   0.9220 B( 12-C , 13-C ) :   0.9429 
B( 12-C , 30-H ) :   0.9967 B( 13-C , 14-C ) :   1.3443 B( 13-C , 19-C ) :   1.3076 
B( 14-C , 15-C ) :   1.3858 B( 14-C , 31-H ) :   0.9565 B( 15-C , 16-C ) :   1.3958 
B( 15-C , 32-H ) :   0.9623 B( 16-C , 17-C ) :   1.3259 B( 16-C , 33-H ) :   0.9529 
B( 17-C , 18-O ) :   1.0800 B( 17-C , 19-C ) :   1.3736 B( 18-O , 34-H ) :   0.9139 
B( 19-C , 35-H ) :   0.9615 

-------
TIMINGS
-------

Total SCF time: 0 days 1 hours 50 min 12 sec 

Total time                  ....    6612.379 sec
Sum of individual times     ....    6608.457 sec  ( 99.9%)

Fock matrix formation       ....    6596.351 sec  ( 99.8%)
Diagonalization             ....       1.435 sec  (  0.0%)
Density matrix formation    ....       0.208 sec  (  0.0%)
Population analysis         ....       0.214 sec  (  0.0%)
Initial guess               ....       5.438 sec  (  0.1%)
Orbital Transformation      ....       0.000 sec  (  0.0%)
Orbital Orthonormalization  ....       0.000 sec  (  0.0%)
DIIS solution               ....       1.676 sec  (  0.0%)
SOSCF solution              ....       1.776 sec  (  0.0%)

Maximum memory used throughout the entire SCF-calculation: 726.9 MB

------------------------------------------------------------------------------
                                ORCA  MP2 
------------------------------------------------------------------------------

Freezing NCore=48 chemical core electrons

-------------
RI-MP2 ENERGY
-------------
Dimension of the basis                    ...  828
Memory devoted to MP2                     ...  256 MB   
Data format for buffers                   ... DOUBLE
Compression type for matrix containers    ... UNCOMPRESSED
Overall scaling of the MP2 energy         ...   1.000e+00
Calculating two index integrals           ... done (    0.042 sec)
Cholesky decomposition of V**-1           ... done (    0.516 sec)

-----------------
RI-TRANSFORMATION (AUX index driven)
-----------------

Dimension of the orbital-basis         ... 828
Dimension of the aux-basis             ... 2141
Transformation of internal/external MOs...   24-  76 to   77- 827
Number Format for Storage              ... Double (8 Byte)
Integral mode                          ... Direct

First Phase: integral generation and transformation of MO indices
  Aux angular momentum 0               ... done (    4.819 sec)
  Aux angular momentum 1               ... done (    7.886 sec)
  Aux angular momentum 2               ... done (   10.277 sec)
  Aux angular momentum 3               ... done (    8.188 sec)
  Aux angular momentum 4               ... done (    2.800 sec)
Closing buffer VIA ( 0.63 GB; CompressionRatio= 1.00)
  Phase 1 completed in    34.133 sec
Second Phase: sorting and transformation of aux index

IA-Transformation
Memory available                       ... 158 MB 
Max. # MO pairs treated in a batch     ... 11    
# of internal orbitals                 ... 53
# batches for internal orbitals        ... 5
Closing buffer IAV ( 0.63 GB; CompressionRatio= 1.00)
(ia|v) transformation done in    18.438 sec

  Phase 2 completed in    18.445 sec
RI-Integral transformation completed in    52.627 sec
Opening buffers                              ... done

Starting loop over batches of integrals:

Operator 0  - window                       ... ( 24- 76)x( 77-827)
Operator 0  - Memory available             ...   256 MB
Operator 0  - Memory needed per MO         ...  12.3 MB
Operator 0  - Number of orbitals per batch ... 13
Operator 0  - Number of batches            ... 5

OPERATOR  0   PASS   0:  MOs    24 ...   36
  Reading integrals       ... ok
  Internal MO  26
  Internal MO  29
  Internal MO  32
  Internal MO  35
OPERATOR  0   PASS   1:  MOs    37 ...   49
  Reading integrals       ... ok
  Internal MO  38
  Internal MO  41
  Internal MO  44
  Internal MO  47
OPERATOR  0   PASS   2:  MOs    50 ...   62
  Reading integrals       ... ok
  Internal MO  50
  Internal MO  53
  Internal MO  56
  Internal MO  59
  Internal MO  62
OPERATOR  0   PASS   3:  MOs    63 ...   75
  Reading integrals       ... ok
  Internal MO  65
  Internal MO  68
  Internal MO  71
  Internal MO  74
OPERATOR  0   PASS   4:  MOs    76 ...   76
  Reading integrals       ... ok
Time spent in pair loops =    84.308 sec
Deleting buffer (Ka|jb)[aa] ...done

-----------------------------------------------
 RI-MP2 CORRELATION ENERGY:     -3.523074372 Eh
-----------------------------------------------


-------
TIMINGS
-------

Total time                :  137.587 sec
Integral trafo            :   52.645 sec ( 38.3%)
I/O of integrals          :    0.857 sec (  0.6%)
K(i,j) Operators          :   56.791 sec ( 41.3%)
T(i,j) pair energies      :    8.715 sec (  6.3%)
V-calculation             :    0.042 sec (  0.0%)
V**(-1/2)                 :    0.516 sec (  0.4%)
Gamma(ia|P)               :    0.000 sec (  0.0%)
Gamma-Trafo               :    0.000 sec (  0.0%)
D(virtual)                :    0.000 sec (  0.0%)
D(internal)               :    0.000 sec (  0.0%)
W(virtual)                :    0.000 sec (  0.0%)
W(internal)               :    0.000 sec (  0.0%)
L(virtual)                :    0.000 sec (  0.0%)
L(internal)               :    0.000 sec (  0.0%)
G(D)                      :    0.000 sec (  0.0%)
G(Z)                      :    0.000 sec (  0.0%)
Z-Vector Solution         :    0.000 sec (  0.0%)
3-Index Derivative        :    0.000 sec (  0.0%)
2-Index Derivative        :    0.000 sec (  0.0%)
Separable Gradient        :    0.000 sec (  0.0%)


---------------------------------------
MP2 TOTAL ENERGY:    -1274.443891179 Eh
---------------------------------------

Maximum memory used throughout the entire MP2-calculation: 303.5 MB

-------------------------   --------------------
FINAL SINGLE POINT ENERGY     -1274.443891178505
-------------------------   --------------------


                            ***************************************
                            *     ORCA property calculations      *
                            ***************************************


  WARNING: The energy has been calculated at the MP2 level but the densities
           used in the property calculations are still SCF densities
           MP2 response densities have not been calculated 
           use %mp2 Density relaxed end
           or  %mp2 Density unrelaxed end

                                    ---------------------
                                    Active property flags
                                    ---------------------
   (+) Dipole Moment


------------------------------------------------------------------------------
                       ORCA ELECTRIC PROPERTIES CALCULATION
------------------------------------------------------------------------------

Dipole Moment Calculation                       ... on
Quadrupole Moment Calculation                   ... off
Polarizability Calculation                      ... off
GBWName                                         ... qm_input.solv.gbw
Electron density file                           ... qm_input.solv.scfp
The origin for moment calculation is the CENTER OF MASS  = ( 3.889127, -0.887512  5.246143)

-------------
DIPOLE MOMENT
-------------
                                X             Y             Z
Electronic contribution:      1.92987      15.96187       4.50858
Nuclear contribution   :     -2.66103     -19.37028      -4.93226
                        -----------------------------------------
Total Dipole Moment    :     -0.73116      -3.40841      -0.42367
                        -----------------------------------------
Magnitude (a.u.)       :      3.51160
Magnitude (Debye)      :      8.92577



--------------------
Rotational spectrum 
--------------------
 
Rotational constants in cm-1:     0.010063     0.009428     0.005556 
Rotational constants in MHz :   301.672983   282.632795   166.554823 

 Dipole components along the rotational axes: 
x,y,z [a.u.] :     2.792658     2.108821    -0.291993 
x,y,z [Debye]:     7.098373     5.360196    -0.742186 

 

Timings for individual modules:

Sum of individual times         ...     6977.492 sec (= 116.292 min)
GTO integral calculation        ...      227.048 sec (=   3.784 min)   3.3 %
SCF iterations                  ...     6612.467 sec (= 110.208 min)  94.8 %
MP2 module                      ...      137.976 sec (=   2.300 min)   2.0 %
                             ****ORCA TERMINATED NORMALLY****
TOTAL RUN TIME: 0 days 1 hours 56 minutes 18 seconds 509 msec
