
                                        *****************
                                        * O   R   C   A *
                                        *****************

                                            #,                                       
                                            ###                                      
                                            ####                                     
                                            #####                                    
                                            ######                                   
                                           ########,                                 
                                     ,,################,,,,,                         
                               ,,#################################,,                 
                          ,,##########################################,,             
                       ,#########################################, ''#####,          
                    ,#############################################,,   '####,        
                  ,##################################################,,,,####,       
                ,###########''''           ''''###############################       
              ,#####''   ,,,,##########,,,,          '''####'''          '####       
            ,##' ,,,,###########################,,,                        '##       
           ' ,,###''''                  '''############,,,                           
         ,,##''                                '''############,,,,        ,,,,,,###''
      ,#''                                            '''#######################'''  
     '                                                          ''''####''''         
             ,#######,   #######,   ,#######,      ##                                
            ,#'     '#,  ##    ##  ,#'     '#,    #''#        ######   ,####,        
            ##       ##  ##   ,#'  ##            #'  '#       #        #'  '#        
            ##       ##  #######   ##           ,######,      #####,   #    #        
            '#,     ,#'  ##    ##  '#,     ,#' ,#      #,         ##   #,  ,#        
             '#######'   ##     ##  '#######'  #'      '#     #####' # '####'        



                  #######################################################
                  #                        -***-                        #
                  #          Department of theory and spectroscopy      #
                  #    Directorship and core code : Frank Neese         #
                  #        Max Planck Institute fuer Kohlenforschung    #
                  #                Kaiser Wilhelm Platz 1               #
                  #                 D-45470 Muelheim/Ruhr               #
                  #                      Germany                        #
                  #                                                     #
                  #                  All rights reserved                #
                  #                        -***-                        #
                  #######################################################


                         Program Version 5.0.0 -  RELEASE  -
                                (SVN: $Rev: 19529$)
                ($Date: 2021-06-28 11:36:33 +0200 (Mo, 28 Jun 2021) $)


 With contributions from (in alphabetic order):
   Daniel Aravena         : Magnetic Suceptibility
   Michael Atanasov       : Ab Initio Ligand Field Theory (pilot matlab implementation)
   Alexander A. Auer      : GIAO ZORA, VPT2 properties, NMR spectrum
   Ute Becker             : Parallelization
   Giovanni Bistoni       : ED, misc. LED, open-shell LED, HFLD
   Martin Brehm           : Molecular dynamics
   Dmytro Bykov           : SCF Hessian
   Vijay G. Chilkuri      : MRCI spin determinant printing, contributions to CSF-ICE
   Dipayan Datta          : RHF DLPNO-CCSD density
   Achintya Kumar Dutta   : EOM-CC, STEOM-CC
   Dmitry Ganyushin       : Spin-Orbit,Spin-Spin,Magnetic field MRCI
   Miquel Garcia          : C-PCM Hessian, Gaussian charge scheme
   Yang Guo               : DLPNO-NEVPT2, F12-NEVPT2, CIM, IAO-localization
   Andreas Hansen         : Spin unrestricted coupled pair/coupled cluster methods
   Benjamin Helmich-Paris : MC-RPA, TRAH-SCF, COSX integrals
   Lee Huntington         : MR-EOM, pCC
   Robert Izsak           : Overlap fitted RIJCOSX, COSX-SCS-MP3, EOM
   Marcus Kettner         : VPT2
   Christian Kollmar      : KDIIS, OOCD, Brueckner-CCSD(T), CCSD density, CASPT2, CASPT2-K
   Simone Kossmann        : Meta GGA functionals, TD-DFT gradient, OOMP2, MP2 Hessian
   Martin Krupicka        : Initial AUTO-CI
   Lucas Lang             : DCDCAS
   Marvin Lechner         : AUTO-CI (C++ implementation), FIC-MRCC
   Dagmar Lenk            : GEPOL surface, SMD
   Dimitrios Liakos       : Extrapolation schemes; Compound Job, initial MDCI parallelization
   Dimitrios Manganas     : Further ROCIS development; embedding schemes
   Dimitrios Pantazis     : SARC Basis sets
   Anastasios Papadopoulos: AUTO-CI, single reference methods and gradients
   Taras Petrenko         : DFT Hessian,TD-DFT gradient, ASA, ECA, R-Raman, ABS, FL, XAS/XES, NRVS
   Peter Pinski           : DLPNO-MP2, DLPNO-MP2 Gradient
   Christoph Reimann      : Effective Core Potentials
   Marius Retegan         : Local ZFS, SOC
   Christoph Riplinger    : Optimizer, TS searches, QM/MM, DLPNO-CCSD(T), (RO)-DLPNO pert. Triples
   Tobias Risthaus        : Range-separated hybrids, TD-DFT gradient, RPA, STAB
   Michael Roemelt        : Original ROCIS implementation
   Masaaki Saitow         : Open-shell DLPNO-CCSD energy and density
   Barbara Sandhoefer     : DKH picture change effects
   Avijit Sen             : IP-ROCIS
   Kantharuban Sivalingam : CASSCF convergence, NEVPT2, FIC-MRCI
   Bernardo de Souza      : ESD, SOC TD-DFT
   Georgi Stoychev        : AutoAux, RI-MP2 NMR
   Willem Van den Heuvel  : Paramagnetic NMR
   Boris Wezisla          : Elementary symmetry handling
   Frank Wennmohs         : Technical directorship


 We gratefully acknowledge several colleagues who have allowed us to
 interface, adapt or use parts of their codes:
   Stefan Grimme, W. Hujo, H. Kruse, P. Pracht,  : VdW corrections, initial TS optimization,
                  C. Bannwarth, S. Ehlert          DFT functionals, gCP, sTDA/sTD-DF
   Ed Valeev, F. Pavosevic, A. Kumar             : LibInt (2-el integral package), F12 methods
   Garnet Chan, S. Sharma, J. Yang, R. Olivares  : DMRG
   Ulf Ekstrom                                   : XCFun DFT Library
   Mihaly Kallay                                 : mrcc  (arbitrary order and MRCC methods)
   Jiri Pittner, Ondrej Demel                    : Mk-CCSD
   Frank Weinhold                                : gennbo (NPA and NBO analysis)
   Christopher J. Cramer and Donald G. Truhlar   : smd solvation model
   Lars Goerigk                                  : TD-DFT with DH, B97 family of functionals
   V. Asgeirsson, H. Jonsson                     : NEB implementation
   FAccTs GmbH                                   : IRC, NEB, NEB-TS, DLPNO-Multilevel, CI-OPT
                                                   MM, QMMM, 2- and 3-layer-ONIOM, Crystal-QMMM,
                                                   LR-CPCM, SF, NACMEs, symmetry and pop. for TD-DFT,
                                                   nearIR, NL-DFT gradient (VV10), updates on ESD,
                                                   ML-optimized integration grids
   S Lehtola, MJT Oliveira, MAL Marques          : LibXC Library
   Liviu Ungur et al                             : ANISO software


 Your calculation uses the libint2 library for the computation of 2-el integrals
 For citations please refer to: http://libint.valeyev.net

 Your ORCA version has been built with support for libXC version: 5.1.0
 For citations please refer to: https://tddft.org/programs/libxc/

 This ORCA versions uses:
   CBLAS   interface :  Fast vector & matrix operations
   LAPACKE interface :  Fast linear algebra routines
   SCALAPACK package :  Parallel linear algebra routines
   Shared memory     :  Shared parallel matrices
   BLAS/LAPACK       :  OpenBLAS 0.3.15  USE64BITINT DYNAMIC_ARCH NO_AFFINITY SkylakeX SINGLE_THREADED
        Core in use  :  SkylakeX
   Copyright (c) 2011-2014, The OpenBLAS Project


================================================================================

----- Orbital basis set information -----
Your calculation utilizes the basis: cc-pVTZ 
       H, B-Ne : Obtained from the ccRepo (grant-hill.group.shef.ac.uk/ccrepo) Feb. 2017
                 T. H. Dunning, Jr., J. Chem. Phys. 90, 1007 (1989)
            He : Obtained from the ccRepo (grant-hill.group.shef.ac.uk/ccrepo) Feb. 2017
                 D. E. Woon, T. H. Dunning, Jr., J. Chem. Phys. 100, 2975 (1994)
  Li-Be, Na-Mg : Obtained from the ccRepo (grant-hill.group.shef.ac.uk/ccrepo) Feb. 2017
                 B. P. Prascher, D. E. Woon, K. A. Peterson, T. H. Dunning, Jr., A. K. Wilson, Theor. Chem. Acc. 128, 69 (2011)
         Al-Ar : Obtained from the ccRepo (grant-hill.group.shef.ac.uk/ccrepo) Feb. 2017
                 D. E. Woon, T. H. Dunning, Jr., J. Chem. Phys. 98, 1358 (1993)
            Ca : Obtained from the Peterson Research Group Website (tyr0.chem.wsu.edu/~kipeters) Feb. 2017
                 J. Koput, K. A. Peterson, J. Phys. Chem. 106, 9595 (2002)
         Sc-Zn : Obtained from the ccRepo (grant-hill.group.shef.ac.uk/ccrepo) Feb. 2017
                 N. B. Balabanov, K. A. Peterson, J. Chem. Phys. 123, 064107 (2005)
                 N. B. Balabanov, K. A. Peterson, J. Chem. Phys. 125, 074110 (2006)
         Ga-Kr : Obtained from the ccRepo (grant-hill.group.shef.ac.uk/ccrepo) Feb. 2017
                 A. K. Wilson, D. E. Woon, K. A. Peterson, T. H. Dunning, Jr., J. Chem. Phys. 110, 7667 (1999)
             Y : Obtained from the ccRepo (grant-hill.group.shef.ac.uk/ccrepo) Feb. 2017
                 K. A. Peterson, D. Figgen, M. Dolg, H. Stoll, J. Chem. Phys. 126, 124101 (2007)
        Ag, Au : Obtained from the Peterson Research Group Website (tyr0.chem.wsu.edu/~kipeters) Feb. 2017
                 K. A. Peterson, C. Puzzarini, Theor. Chem. Acc. 114, 283 (2005)

----- AuxC basis set information -----
Your calculation utilizes the auxiliary basis: cc-pVTZ/C 
  Obtained from the EMSL Basis Set Exchange (bse.pnl.gov) Feb. 2017
  H-He, B-F, Al-Ar, Ga-Kr : F. Weigend, A. Kohn, C. Hattig, J. Chem. Phys. 116, 3175 (2002)
             Li-Be, Na-Mg : C. Haettig, Phys. Chem. Chem. Phys. 7, 59 (2005)
                       Ne : C. Haettig, Phys. Chem. Chem. Phys. 7, 59 (2005)
                            F. Weigend, A. Kohn, C. Hattig, J. Chem. Phys. 116, 3175 (2002)
                    Sc-Zn : J. G. Hill, J. A. Platts, J. Chem. Phys. 128, 044104 (2008)

================================================================================
                                        WARNINGS
                       Please study these warnings very carefully!
================================================================================


WARNING: No MP2 level density has been requested!
         To caclulate MP2 level properties use
         %mp2 Density relaxed end
         or
         %mp2 Density unrelaxed end

WARNING: Post HF methods need fully converged wavefunctions
  ===> : Setting SCFConvForced true
         You can overwrite this default with %scf ConvForced false 


INFO   : the flag for use of the SHARK integral package has been found!

================================================================================
                                       INPUT FILE
================================================================================
NAME = qm_input.vacu
|  1> ! RI-MP2 cc-pVTZ cc-pVTZ/c TightSCF KeepDens NoKeepInts
|  2> 
|  3> *xyz  0  1
|  4>     C    -0.0113992   -5.0697507    2.1184903
|  5>     C     1.2650119   -4.4659782    1.6271528
|  6>     O     1.6706597   -3.3554861    2.3890765
|  7>     C     0.9675370   -2.2167616    2.4060321
|  8>     O     0.3895738   -1.8243521    1.3950306
|  9>     C     1.4077057   -1.2682101    3.4592355
| 10>     C     2.1354186   -1.5541537    4.5490491
| 11>     C     2.4718599   -2.8644345    5.1030079
| 12>     N     2.5686594   -0.5655049    5.4342643
| 13>     C     2.2543738    0.7523363    5.3207021
| 14>     S     2.7674898    1.7790703    6.4896870
| 15>     N     1.6211897    1.1359725    4.1734616
| 16>     C     1.2691885    0.1982074    3.0781864
| 17>     C     2.1524009    0.5756956    1.8749823
| 18>     C     3.4060472   -0.0183056    1.7528704
| 19>     C     4.2370623    0.3025941    0.6349772
| 20>     C     3.8126317    1.2066512   -0.3733822
| 21>     C     2.5511324    1.7960507   -0.1995925
| 22>     O     2.1592815    2.6568890   -1.1667712
| 23>     C     1.7510673    1.4980063    0.9059344
| 24>     H    -0.0555374   -5.1180398    3.2134370
| 25>     H    -0.1997548   -6.0875902    1.7555653
| 26>     H    -0.8317145   -4.4613877    1.7182877
| 27>     H     2.0419292   -5.2399942    1.6050479
| 28>     H     1.2051533   -4.2645426    0.5505702
| 29>     H     3.4688478   -3.1919593    4.7837406
| 30>     H     1.6793797   -3.5932654    4.8933172
| 31>     H     2.5540537   -2.9549512    6.1930694
| 32>     H     3.1327480   -0.8125419    6.2384693
| 33>     H     1.5699848    2.1358025    4.0195640
| 34>     H     0.2499827    0.4046662    2.7292106
| 35>     H     3.8299256   -0.6459668    2.5311856
| 36>     H     5.1922501   -0.1915076    0.4837042
| 37>     H     4.3550322    1.4349914   -1.2861026
| 38>     H     1.1887829    2.5872107   -1.1641761
| 39>     H     0.7634213    1.9160160    1.0768713
| 40> *
| 41> 
| 42>                          ****END OF INPUT****
================================================================================

                       ****************************
                       * Single Point Calculation *
                       ****************************

---------------------------------
CARTESIAN COORDINATES (ANGSTROEM)
---------------------------------
  C     -0.011399   -5.069751    2.118490
  C      1.265012   -4.465978    1.627153
  O      1.670660   -3.355486    2.389076
  C      0.967537   -2.216762    2.406032
  O      0.389574   -1.824352    1.395031
  C      1.407706   -1.268210    3.459235
  C      2.135419   -1.554154    4.549049
  C      2.471860   -2.864435    5.103008
  N      2.568659   -0.565505    5.434264
  C      2.254374    0.752336    5.320702
  S      2.767490    1.779070    6.489687
  N      1.621190    1.135973    4.173462
  C      1.269188    0.198207    3.078186
  C      2.152401    0.575696    1.874982
  C      3.406047   -0.018306    1.752870
  C      4.237062    0.302594    0.634977
  C      3.812632    1.206651   -0.373382
  C      2.551132    1.796051   -0.199593
  O      2.159282    2.656889   -1.166771
  C      1.751067    1.498006    0.905934
  H     -0.055537   -5.118040    3.213437
  H     -0.199755   -6.087590    1.755565
  H     -0.831715   -4.461388    1.718288
  H      2.041929   -5.239994    1.605048
  H      1.205153   -4.264543    0.550570
  H      3.468848   -3.191959    4.783741
  H      1.679380   -3.593265    4.893317
  H      2.554054   -2.954951    6.193069
  H      3.132748   -0.812542    6.238469
  H      1.569985    2.135803    4.019564
  H      0.249983    0.404666    2.729211
  H      3.829926   -0.645967    2.531186
  H      5.192250   -0.191508    0.483704
  H      4.355032    1.434991   -1.286103
  H      1.188783    2.587211   -1.164176
  H      0.763421    1.916016    1.076871

----------------------------
CARTESIAN COORDINATES (A.U.)
----------------------------
  NO LB      ZA    FRAG     MASS         X           Y           Z
   0 C     6.0000    0    12.011   -0.021541   -9.580440    4.003366
   1 C     6.0000    0    12.011    2.390526   -8.439476    3.074873
   2 O     8.0000    0    15.999    3.157089   -6.340950    4.514700
   3 C     6.0000    0    12.011    1.828380   -4.189072    4.546742
   4 O     8.0000    0    15.999    0.736188   -3.447526    2.636226
   5 C     6.0000    0    12.011    2.660178   -2.396570    6.537008
   6 C     6.0000    0    12.011    4.035356   -2.936925    8.596457
   7 C     6.0000    0    12.011    4.671138   -5.412997    9.643287
   8 N     7.0000    0    14.007    4.854063   -1.068649   10.269271
   9 C     6.0000    0    12.011    4.260149    1.421710   10.054670
  10 S    16.0000    0    32.060    5.229798    3.361956   12.263731
  11 N     7.0000    0    14.007    3.063605    2.146677    7.886699
  12 C     6.0000    0    12.011    2.398419    0.374558    5.816929
  13 C     6.0000    0    12.011    4.067448    1.087907    3.543203
  14 C     6.0000    0    12.011    6.436496   -0.034593    3.312445
  15 C     6.0000    0    12.011    8.006887    0.571820    1.199933
  16 C     6.0000    0    12.011    7.204830    2.280240   -0.705590
  17 C     6.0000    0    12.011    4.820942    3.394044   -0.377175
  18 O     8.0000    0    15.999    4.080451    5.020793   -2.204878
  19 C     6.0000    0    12.011    3.309038    2.830822    1.711968
  20 H     1.0000    0     1.008   -0.104950   -9.671694    6.072516
  21 H     1.0000    0     1.008   -0.377482  -11.503878    3.317538
  22 H     1.0000    0     1.008   -1.571713   -8.430801    3.247093
  23 H     1.0000    0     1.008    3.858687   -9.902154    3.033101
  24 H     1.0000    0     1.008    2.277410   -8.058818    1.040427
  25 H     1.0000    0     1.008    6.555172   -6.031929    9.039960
  26 H     1.0000    0     1.008    3.173568   -6.790288    9.247029
  27 H     1.0000    0     1.008    4.826462   -5.584049   11.703205
  28 H     1.0000    0     1.008    5.920036   -1.535482   11.788998
  29 H     1.0000    0     1.008    2.966841    4.036082    7.595875
  30 H     1.0000    0     1.008    0.472399    0.764708    5.157461
  31 H     1.0000    0     1.008    7.237510   -1.220700    4.783248
  32 H     1.0000    0     1.008    9.811931   -0.361897    0.914068
  33 H     1.0000    0     1.008    8.229818    2.711741   -2.430382
  34 H     1.0000    0     1.008    2.246474    4.889120   -2.199974
  35 H     1.0000    0     1.008    1.442657    3.620746    2.034992

--------------------------------
INTERNAL COORDINATES (ANGSTROEM)
--------------------------------
 C      0   0   0     0.000000000000     0.00000000     0.00000000
 C      1   0   0     1.495051526492     0.00000000     0.00000000
 O      2   1   0     1.406510066238   112.77123066     0.00000000
 C      3   2   1     1.338417913257   121.80894926   293.55134438
 O      4   3   2     1.228881893937   120.55280220   324.68101998
 C      4   3   2     1.484161660461   113.38736680   168.87322760
 C      6   4   3     1.341276813321   126.95905293   341.31761898
 C      7   6   4     1.461813556953   128.59896407   347.97255052
 N      7   6   4     1.395969194086   122.18369980   175.74769778
 C      9   7   6     1.359550381580   124.17887283     3.07777219
 S     10   9   7     1.638290704558   118.39060357   176.47028242
 N     10   9   7     1.365378922967   116.72708617   351.30110636
 C     12  10   9     1.484229089903   123.53884025     0.15813312
 C     13  12  10     1.539565390268   106.60353892   247.81257757
 C     14  13  12     1.392615448437   118.70984253    88.87107030
 C     15  14  13     1.429422233105   119.74688643   179.16922829
 C     16  15  14     1.419242492968   121.65416534   359.26921177
 C     17  16  15     1.403201736860   116.64255697     1.61546045
 O     18  17  16     1.352783923733   116.04980978   179.92104597
 C     14  13  12     1.396703088819   122.63586422   269.37415193
 H      1   2   3     1.096899399999   112.34548550   318.78622394
 H      1   2   3     1.096900011595   114.36873502   197.35192480
 H      1   2   3     1.096897831263   107.13326392    80.95070363
 H      2   1   3     1.096900125763   109.04770390   124.21519988
 H      2   1   3     1.096899925957   110.49514136   231.47608888
 H      8   7   6     1.096899711100   111.50174065    97.23929902
 H      8   7   6     1.096899967113   110.90664740   329.37987408
 H      8   7   6     1.096897063320   117.89185614   213.82085250
 H      9   7   6     1.012901234101   120.23696362   181.23315612
 H     12  10   9     1.012900015781   115.36958210   192.30114536
 H     13  12  10     1.096900090180   109.64648220   136.06997431
 H     15  14  13     1.086004618095   122.34644963   352.67144285
 H     16  15  14     1.086003565252   121.20700217   183.79093978
 H     17  16  15     1.086000035871   125.57014156   185.17844453
 H     19  18  17     0.973000170934   103.97161342   150.78410754
 H     20  14  13     1.086000071083   113.97181034   359.68187860

---------------------------
INTERNAL COORDINATES (A.U.)
---------------------------
 C      0   0   0     0.000000000000     0.00000000     0.00000000
 C      1   0   0     2.825237941171     0.00000000     0.00000000
 O      2   1   0     2.657918829793   112.77123066     0.00000000
 C      3   2   1     2.529243308790   121.80894926   293.55134438
 O      4   3   2     2.322250230476   120.55280220   324.68101998
 C      4   3   2     2.804659076738   113.38736680   168.87322760
 C      6   4   3     2.534645846955   126.95905293   341.31761898
 C      7   6   4     2.762427281495   128.59896407   347.97255052
 N      7   6   4     2.637999468213   122.18369980   175.74769778
 C      9   7   6     2.569177886454   124.17887283     3.07777219
 S     10   9   7     3.095920759363   118.39060357   176.47028242
 N     10   9   7     2.580192233437   116.72708617   351.30110636
 C     12  10   9     2.804786499916   123.53884025     0.15813312
 C     13  12  10     2.909356952869   106.60353892   247.81257757
 C     14  13  12     2.631661807415   118.70984253    88.87107030
 C     15  14  13     2.701216550306   119.74688643   179.16922829
 C     16  15  14     2.681979629333   121.65416534   359.26921177
 C     17  16  15     2.651666993308   116.64255697     1.61546045
 O     18  17  16     2.556391134227   116.04980978   179.92104597
 C     14  13  12     2.639386328271   122.63586422   269.37415193
 H      1   2   3     2.072839462461   112.34548550   318.78622394
 H      1   2   3     2.072840618209   114.36873502   197.35192480
 H      1   2   3     2.072836497980   107.13326392    80.95070363
 H      2   1   3     2.072840833956   109.04770390   124.21519988
 H      2   1   3     2.072840456377   110.49514136   231.47608888
 H      8   7   6     2.072840050356   111.50174065    97.23929902
 H      8   7   6     2.072840534152   110.90664740   329.37987408
 H      8   7   6     2.072835046777   117.89185614   213.82085250
 H      9   7   6     1.914105933162   120.23696362   181.23315612
 H     12  10   9     1.914103630871   115.36958210   192.30114536
 H     13  12  10     2.072840766714   109.64648220   136.06997431
 H     15  14  13     2.052251308373   122.34644963   352.67144285
 H     16  15  14     2.052249318789   121.20700217   183.79093978
 H     17  16  15     2.052242649225   125.57014156   185.17844453
 H     19  18  17     1.838703851323   103.97161342   150.78410754
 H     20  14  13     2.052242715765   113.97181034   359.68187860

---------------------
BASIS SET INFORMATION
---------------------
There are 5 groups of distinct atoms

 Group   1 Type C   : 18s5p2d1f contracted to 4s3p2d1f pattern {8811/311/11/1}
 Group   2 Type O   : 18s5p2d1f contracted to 4s3p2d1f pattern {8811/311/11/1}
 Group   3 Type N   : 18s5p2d1f contracted to 4s3p2d1f pattern {8811/311/11/1}
 Group   4 Type S   : 41s16p2d1f contracted to 5s4p2d1f pattern {13131311/7711/11/1}
 Group   5 Type H   : 5s2p1d contracted to 3s2p1d pattern {311/11/1}

Atom   0C    basis set group =>   1
Atom   1C    basis set group =>   1
Atom   2O    basis set group =>   2
Atom   3C    basis set group =>   1
Atom   4O    basis set group =>   2
Atom   5C    basis set group =>   1
Atom   6C    basis set group =>   1
Atom   7C    basis set group =>   1
Atom   8N    basis set group =>   3
Atom   9C    basis set group =>   1
Atom  10S    basis set group =>   4
Atom  11N    basis set group =>   3
Atom  12C    basis set group =>   1
Atom  13C    basis set group =>   1
Atom  14C    basis set group =>   1
Atom  15C    basis set group =>   1
Atom  16C    basis set group =>   1
Atom  17C    basis set group =>   1
Atom  18O    basis set group =>   2
Atom  19C    basis set group =>   1
Atom  20H    basis set group =>   5
Atom  21H    basis set group =>   5
Atom  22H    basis set group =>   5
Atom  23H    basis set group =>   5
Atom  24H    basis set group =>   5
Atom  25H    basis set group =>   5
Atom  26H    basis set group =>   5
Atom  27H    basis set group =>   5
Atom  28H    basis set group =>   5
Atom  29H    basis set group =>   5
Atom  30H    basis set group =>   5
Atom  31H    basis set group =>   5
Atom  32H    basis set group =>   5
Atom  33H    basis set group =>   5
Atom  34H    basis set group =>   5
Atom  35H    basis set group =>   5
---------------------------------
AUXILIARY/C BASIS SET INFORMATION
---------------------------------
There are 5 groups of distinct atoms

 Group   1 Type C   : 8s6p5d3f1g contracted to 8s6p5d3f1g pattern {11111111/111111/11111/111/1}
 Group   2 Type O   : 8s6p5d3f1g contracted to 8s6p5d3f1g pattern {11111111/111111/11111/111/1}
 Group   3 Type N   : 8s6p5d3f1g contracted to 8s6p5d3f1g pattern {11111111/111111/11111/111/1}
 Group   4 Type S   : 10s8p7d5f2g contracted to 10s8p7d5f2g pattern {1111111111/11111111/1111111/11111/11}
 Group   5 Type H   : 4s3p2d1f contracted to 4s3p2d1f pattern {1111/111/11/1}

Atom   0C    basis set group =>   1
Atom   1C    basis set group =>   1
Atom   2O    basis set group =>   2
Atom   3C    basis set group =>   1
Atom   4O    basis set group =>   2
Atom   5C    basis set group =>   1
Atom   6C    basis set group =>   1
Atom   7C    basis set group =>   1
Atom   8N    basis set group =>   3
Atom   9C    basis set group =>   1
Atom  10S    basis set group =>   4
Atom  11N    basis set group =>   3
Atom  12C    basis set group =>   1
Atom  13C    basis set group =>   1
Atom  14C    basis set group =>   1
Atom  15C    basis set group =>   1
Atom  16C    basis set group =>   1
Atom  17C    basis set group =>   1
Atom  18O    basis set group =>   2
Atom  19C    basis set group =>   1
Atom  20H    basis set group =>   5
Atom  21H    basis set group =>   5
Atom  22H    basis set group =>   5
Atom  23H    basis set group =>   5
Atom  24H    basis set group =>   5
Atom  25H    basis set group =>   5
Atom  26H    basis set group =>   5
Atom  27H    basis set group =>   5
Atom  28H    basis set group =>   5
Atom  29H    basis set group =>   5
Atom  30H    basis set group =>   5
Atom  31H    basis set group =>   5
Atom  32H    basis set group =>   5
Atom  33H    basis set group =>   5
Atom  34H    basis set group =>   5
Atom  35H    basis set group =>   5
------------------------------------------------------------------------------
                           ORCA GTO INTEGRAL CALCULATION
------------------------------------------------------------------------------
------------------------------------------------------------------------------
                   ___                                                        
                  /   \      - P O W E R E D   B Y -                         
                 /     \                                                     
                 |  |  |   _    _      __       _____    __    __             
                 |  |  |  | |  | |    /  \     |  _  \  |  |  /  |          
                  \  \/   | |  | |   /    \    | | | |  |  | /  /          
                 / \  \   | |__| |  /  /\  \   | |_| |  |  |/  /          
                |  |  |   |  __  | /  /__\  \  |    /   |      \           
                |  |  |   | |  | | |   __   |  |    \   |  |\   \          
                \     /   | |  | | |  |  |  |  | |\  \  |  | \   \       
                 \___/    |_|  |_| |__|  |__|  |_| \__\ |__|  \__/        
                                                                              
                      - O R C A' S   B I G   F R I E N D -                    
                                      &                                       
                       - I N T E G R A L  F E E D E R -                       
                                                                              
 v1 FN, 2020, v2 2021                                                         
------------------------------------------------------------------------------


Reading SHARK input file qm_input.vacu.SHARKINP.tmp ... ok
----------------------
SHARK INTEGRAL PACKAGE
----------------------

Number of atoms                             ...     36
Number of basis functions                   ...    828
Number of shells                            ...    298
Maximum angular momentum                    ...      3
Integral batch strategy                     ... SHARK/LIBINT Hybrid
RI-J (if used) integral strategy            ... SPLIT-RIJ (Revised 2003 algorithm where possible)
Printlevel                                  ...      1
Contraction scheme used                     ... SEGMENTED contraction
Coulomb Range Separation                    ... NOT USED
Exchange Range Separation                   ... NOT USED
Finite Nucleus Model                        ... NOT USED
Auxiliary Coulomb fitting basis             ... NOT available
Auxiliary J/K fitting basis                 ... NOT available
Auxiliary Correlation fitting basis         ... AVAILABLE
   # of basis functions in Aux-C            ...   2141
   # of shells in Aux-C                     ...    629
   Maximum angular momentum in Aux-C        ...      4
Auxiliary 'external' fitting basis          ... NOT available
Integral threshold                          ...     2.500000e-11
Primitive cut-off                           ...     2.500000e-12
Primitive pair pre-selection threshold      ...     2.500000e-12

Calculating pre-screening integrals         ... done (  0.5 sec) Dimension = 298
Organizing shell pair data                  ... done (  0.4 sec)
Shell pair information
Total number of shell pairs                 ...     44551
Shell pairs after pre-screening             ...     32510
Total number of primitive shell pairs       ...    234348
Primitive shell pairs kept                  ...     93990
          la=0 lb=0:   6506 shell pairs
          la=1 lb=0:   9045 shell pairs
          la=1 lb=1:   3194 shell pairs
          la=2 lb=0:   5173 shell pairs
          la=2 lb=1:   3556 shell pairs
          la=2 lb=2:    999 shell pairs
          la=3 lb=0:   1883 shell pairs
          la=3 lb=1:   1287 shell pairs
          la=3 lb=2:    723 shell pairs
          la=3 lb=3:    144 shell pairs

Calculating one electron integrals          ... done (  0.3 sec)
Calculating RI/C V-Matrix + Cholesky decomp.... done (  0.3 sec)
Calculating Nuclear repulsion               ... done (  0.0 sec) ENN=   1696.264124860361 Eh

SHARK setup successfully completed in   1.7 seconds

Maximum memory used throughout the entire GTOINT-calculation: 484.5 MB
-------------------------------------------------------------------------------
                                 ORCA SCF
-------------------------------------------------------------------------------

------------
SCF SETTINGS
------------
Hamiltonian:
 Ab initio Hamiltonian  Method          .... Hartree-Fock(GTOs)


General Settings:
 Integral files         IntName         .... qm_input.vacu
 Hartree-Fock type      HFTyp           .... RHF
 Total Charge           Charge          ....    0
 Multiplicity           Mult            ....    1
 Number of Electrons    NEL             ....  154
 Basis Dimension        Dim             ....  828
 Nuclear Repulsion      ENuc            ....   1696.2641248604 Eh

Convergence Acceleration:
 DIIS                   CNVDIIS         .... on
   Start iteration      DIISMaxIt       ....    12
   Startup error        DIISStart       ....  0.200000
   # of expansion vecs  DIISMaxEq       ....     5
   Bias factor          DIISBfac        ....   1.050
   Max. coefficient     DIISMaxC        ....  10.000
 Trust-Rad. Augm. Hess. CNVTRAH         .... auto
   Auto Start mean grad. ratio tolernc. ....  1.125000
   Auto Start start iteration           ....    20
   Auto Start num. interpolation iter.  ....    10
   Max. Number of Micro iterations      ....    16
   Max. Number of Macro iterations      .... Maxiter - #DIIS iter
   Number of Davidson start vectors     ....     2
   Converg. threshold I  (grad. norm)   ....   1.000e-05
   Converg. threshold II (energy diff.) ....   1.000e-08
   Grad. Scal. Fac. for Micro threshold ....   0.100
   Minimum threshold for Micro iter.    ....   0.010
   NR start threshold (gradient norm)   ....   0.001
   Initial trust radius                 ....   0.400
   Minimum AH scaling param. (alpha)    ....   1.000
   Maximum AH scaling param. (alpha)    .... 1000.000
   Orbital update algorithm             .... Taylor
   White noise on init. David. guess    .... on
   Maximum white noise                  ....   0.010
   Quad. conv. algorithm                .... NR
 SOSCF                  CNVSOSCF        .... on
   Start iteration      SOSCFMaxIt      ....   150
   Startup grad/error   SOSCFStart      ....  0.003300
 Level Shifting         CNVShift        .... on
   Level shift para.    LevelShift      ....    0.2500
   Turn off err/grad.   ShiftErr        ....    0.0010
 Zerner damping         CNVZerner       .... off
 Static damping         CNVDamp         .... on
   Fraction old density DampFac         ....    0.7000
   Max. Damping (<1)    DampMax         ....    0.9800
   Min. Damping (>=0)   DampMin         ....    0.0000
   Turn off err/grad.   DampErr         ....    0.1000
 Fernandez-Rico         CNVRico         .... off

SCF Procedure:
 Maximum # iterations   MaxIter         ....   125
 SCF integral mode      SCFMode         .... Direct
   Integral package                     .... SHARK and LIBINT hybrid scheme
 Reset frequency        DirectResetFreq ....    20
 Integral Threshold     Thresh          ....  2.500e-11 Eh
 Primitive CutOff       TCut            ....  2.500e-12 Eh

Convergence Tolerance:
 Convergence Check Mode ConvCheckMode   .... Total+1el-Energy
 Convergence forced     ConvForced      .... 1
 Energy Change          TolE            ....  1.000e-08 Eh
 1-El. energy change                    ....  1.000e-05 Eh
 Orbital Gradient       TolG            ....  1.000e-05
 Orbital Rotation angle TolX            ....  1.000e-05
 DIIS Error             TolErr          ....  5.000e-07


Diagonalization of the overlap matrix:
Smallest eigenvalue                        ... 3.618e-05
Time for diagonalization                   ...    0.124 sec
Threshold for overlap eigenvalues          ... 1.000e-08
Number of eigenvalues below threshold      ... 0
Time for construction of square roots      ...    0.057 sec
Total time needed                          ...    0.183 sec

Time for model grid setup =    1.368 sec

------------------------------
INITIAL GUESS: MODEL POTENTIAL
------------------------------
Loading Hartree-Fock densities                     ... done
Calculating cut-offs                               ... done
Initializing the effective Hamiltonian             ... done
Setting up the integral package (SHARK)            ... done
Starting the Coulomb interaction                   ... done (   3.8 sec)
Reading the grid                                   ... done
Mapping shells                                     ... done
Starting the XC term evaluation                    ... done (   1.4 sec)
Transforming the Hamiltonian                       ... done (   0.0 sec)
Diagonalizing the Hamiltonian                      ... done (   0.1 sec)
Back transforming the eigenvectors                 ... done (   0.0 sec)
Now organizing SCF variables                       ... done
                      ------------------
                      INITIAL GUESS DONE (   6.8 sec)
                      ------------------
--------------
SCF ITERATIONS
--------------
ITER       Energy         Delta-E        Max-DP      RMS-DP      [F,P]     Damp
               ***  Starting incremental Fock matrix formation  ***
  0  -1269.9652334552   0.000000000000 0.06772956  0.00047424  0.3043171 0.7000
  1  -1270.2393287089  -0.274095253763 0.06272673  0.00038898  0.1778792 0.7000
                               ***Turning on DIIS***
  2  -1270.4098060389  -0.170477329982 0.03602339  0.00025186  0.1098999 0.7000
  3  -1272.6105950712  -2.200789032344 0.06317224  0.00051310  0.0831114 0.0000
  4  -1270.7166824352   1.893912636031 0.02069260  0.00012410  0.0072815 0.0000
  5  -1270.7903335107  -0.073651075506 0.00640266  0.00006050  0.0045824 0.0000
                      *** Initiating the SOSCF procedure ***
                           *** Shutting down DIIS ***
                      *** Re-Reading the Fockian *** 
                      *** Removing any level shift *** 
ITER      Energy       Delta-E        Grad      Rot      Max-DP    RMS-DP
  6  -1270.76571047   0.0246230421  0.001631  0.001631  0.002515  0.000030
               *** Restarting incremental Fock matrix formation ***
  7  -1270.77926308  -0.0135526142  0.000868  0.002189  0.002117  0.000019
  8  -1270.77931240  -0.0000493144  0.000404  0.002577  0.001731  0.000020
  9  -1270.77933151  -0.0000191161  0.000156  0.000352  0.000378  0.000005
 10  -1270.77933395  -0.0000024381  0.000051  0.000140  0.000128  0.000002
 11  -1270.77933421  -0.0000002607  0.000019  0.000115  0.000085  0.000001
 12  -1270.77933428  -0.0000000702  0.000010  0.000028  0.000029  0.000000
 13  -1270.77933428  -0.0000000009  0.000003  0.000006  0.000009  0.000000
                  ***Gradient check signals convergence***
              ***Rediagonalizing the Fockian in SOSCF/NRSCF***

               *****************************************************
               *                     SUCCESS                       *
               *           SCF CONVERGED AFTER  14 CYCLES          *
               *****************************************************


----------------
TOTAL SCF ENERGY
----------------

Total Energy       :        -1270.77933427 Eh          -34579.66368 eV

Components:
Nuclear Repulsion  :         1696.26412486 Eh           46157.69345 eV
Electronic Energy  :        -2967.04345913 Eh          -80737.35713 eV
One Electron Energy:        -5113.50901362 Eh         -139145.65429 eV
Two Electron Energy:         2146.46555449 Eh           58408.29716 eV

Virial components:
Potential Energy   :        -2540.18937607 Eh          -69122.06702 eV
Kinetic Energy     :         1269.41004179 Eh           34542.40334 eV
Virial Ratio       :            2.00107868


---------------
SCF CONVERGENCE
---------------

  Last Energy change         ...    9.5924e-09  Tolerance :   1.0000e-08
  Last MAX-Density change    ...    2.4828e-06  Tolerance :   1.0000e-07
  Last RMS-Density change    ...    3.5391e-08  Tolerance :   5.0000e-09
  Last Orbital Gradient      ...    1.2501e-06  Tolerance :   1.0000e-05
  Last Orbital Rotation      ...    4.8169e-06  Tolerance :   1.0000e-05

             **** THE GBW FILE WAS UPDATED (qm_input.vacu.gbw) ****
             **** DENSITY qm_input.vacu.scfp WAS UPDATED ****
             **** ENERGY FILE WAS UPDATED (qm_input.vacu.en.tmp) ****
             **** THE GBW FILE WAS UPDATED (qm_input.vacu.gbw) ****
             **** DENSITY qm_input.vacu.scfp WAS UPDATED ****
----------------
ORBITAL ENERGIES
----------------

  NO   OCC          E(Eh)            E(eV) 
   0   2.0000     -91.887126     -2500.3758 
   1   2.0000     -20.609869      -560.8230 
   2   2.0000     -20.590031      -560.2832 
   3   2.0000     -20.546401      -559.0960 
   4   2.0000     -15.626641      -425.2225 
   5   2.0000     -15.609887      -424.7666 
   6   2.0000     -11.398422      -310.1668 
   7   2.0000     -11.379647      -309.6559 
   8   2.0000     -11.333561      -308.4019 
   9   2.0000     -11.308252      -307.7132 
  10   2.0000     -11.305686      -307.6434 
  11   2.0000     -11.297065      -307.4088 
  12   2.0000     -11.261456      -306.4398 
  13   2.0000     -11.256423      -306.3028 
  14   2.0000     -11.252366      -306.1924 
  15   2.0000     -11.250550      -306.1430 
  16   2.0000     -11.234590      -305.7087 
  17   2.0000     -11.232744      -305.6585 
  18   2.0000     -11.231758      -305.6317 
  19   2.0000     -11.230750      -305.6042 
  20   2.0000      -8.892989      -241.9905 
  21   2.0000      -6.574640      -178.9050 
  22   2.0000      -6.572561      -178.8485 
  23   2.0000      -6.571966      -178.8323 
  24   2.0000      -1.472680       -40.0737 
  25   2.0000      -1.412561       -38.4377 
  26   2.0000      -1.359222       -36.9863 
  27   2.0000      -1.345961       -36.6255 
  28   2.0000      -1.240126       -33.7455 
  29   2.0000      -1.156172       -31.4610 
  30   2.0000      -1.127568       -30.6827 
  31   2.0000      -1.056317       -28.7438 
  32   2.0000      -1.044212       -28.4144 
  33   2.0000      -1.012950       -27.5638 
  34   2.0000      -0.998197       -27.1623 
  35   2.0000      -0.989585       -26.9280 
  36   2.0000      -0.926206       -25.2033 
  37   2.0000      -0.909196       -24.7405 
  38   2.0000      -0.848928       -23.1005 
  39   2.0000      -0.844645       -22.9840 
  40   2.0000      -0.826934       -22.5020 
  41   2.0000      -0.803962       -21.8769 
  42   2.0000      -0.762326       -20.7439 
  43   2.0000      -0.743099       -20.2207 
  44   2.0000      -0.731194       -19.8968 
  45   2.0000      -0.698947       -19.0193 
  46   2.0000      -0.692023       -18.8309 
  47   2.0000      -0.682609       -18.5747 
  48   2.0000      -0.672033       -18.2870 
  49   2.0000      -0.668137       -18.1809 
  50   2.0000      -0.659293       -17.9403 
  51   2.0000      -0.656155       -17.8549 
  52   2.0000      -0.640066       -17.4171 
  53   2.0000      -0.619199       -16.8493 
  54   2.0000      -0.608768       -16.5654 
  55   2.0000      -0.607428       -16.5290 
  56   2.0000      -0.591229       -16.0881 
  57   2.0000      -0.579079       -15.7575 
  58   2.0000      -0.569488       -15.4966 
  59   2.0000      -0.566249       -15.4084 
  60   2.0000      -0.558348       -15.1934 
  61   2.0000      -0.548886       -14.9359 
  62   2.0000      -0.540243       -14.7008 
  63   2.0000      -0.534124       -14.5343 
  64   2.0000      -0.512827       -13.9547 
  65   2.0000      -0.507234       -13.8025 
  66   2.0000      -0.498772       -13.5723 
  67   2.0000      -0.487618       -13.2688 
  68   2.0000      -0.482962       -13.1421 
  69   2.0000      -0.463000       -12.5989 
  70   2.0000      -0.458083       -12.4651 
  71   2.0000      -0.454746       -12.3743 
  72   2.0000      -0.359406        -9.7799 
  73   2.0000      -0.341255        -9.2860 
  74   2.0000      -0.327583        -8.9140 
  75   2.0000      -0.324927        -8.8417 
  76   2.0000      -0.310794        -8.4571 
  77   0.0000       0.072433         1.9710 
  78   0.0000       0.114782         3.1234 
  79   0.0000       0.119537         3.2528 
  80   0.0000       0.129422         3.5218 
  81   0.0000       0.135320         3.6823 
  82   0.0000       0.140458         3.8221 
  83   0.0000       0.153901         4.1879 
  84   0.0000       0.157903         4.2968 
  85   0.0000       0.159792         4.3482 
  86   0.0000       0.165956         4.5159 
  87   0.0000       0.172996         4.7075 
  88   0.0000       0.185811         5.0562 
  89   0.0000       0.192710         5.2439 
  90   0.0000       0.198529         5.4023 
  91   0.0000       0.201643         5.4870 
  92   0.0000       0.206243         5.6122 
  93   0.0000       0.215635         5.8677 
  94   0.0000       0.230721         6.2782 
  95   0.0000       0.232959         6.3391 
  96   0.0000       0.249318         6.7843 
  97   0.0000       0.256712         6.9855 
  98   0.0000       0.267209         7.2711 
  99   0.0000       0.278406         7.5758 
 100   0.0000       0.295249         8.0341 
 101   0.0000       0.306853         8.3499 
 102   0.0000       0.315947         8.5973 
 103   0.0000       0.321391         8.7455 
 104   0.0000       0.327056         8.8997 
 105   0.0000       0.336953         9.1690 
 106   0.0000       0.339415         9.2360 
 107   0.0000       0.351660         9.5692 
 108   0.0000       0.360978         9.8227 
 109   0.0000       0.364292         9.9129 
 110   0.0000       0.370802        10.0900 
 111   0.0000       0.374553        10.1921 
 112   0.0000       0.386600        10.5199 
 113   0.0000       0.393116        10.6972 
 114   0.0000       0.398209        10.8358 
 115   0.0000       0.404767        11.0143 
 116   0.0000       0.414112        11.2686 
 117   0.0000       0.422985        11.5100 
 118   0.0000       0.429213        11.6795 
 119   0.0000       0.432756        11.7759 
 120   0.0000       0.440134        11.9766 
 121   0.0000       0.450346        12.2545 
 122   0.0000       0.458994        12.4899 
 123   0.0000       0.463385        12.6094 
 124   0.0000       0.472564        12.8591 
 125   0.0000       0.474206        12.9038 
 126   0.0000       0.481995        13.1157 
 127   0.0000       0.483664        13.1612 
 128   0.0000       0.490266        13.3408 
 129   0.0000       0.496664        13.5149 
 130   0.0000       0.499962        13.6047 
 131   0.0000       0.504919        13.7396 
 132   0.0000       0.516069        14.0429 
 133   0.0000       0.520628        14.1670 
 134   0.0000       0.525348        14.2954 
 135   0.0000       0.526981        14.3399 
 136   0.0000       0.535175        14.5629 
 137   0.0000       0.543411        14.7870 
 138   0.0000       0.548433        14.9236 
 139   0.0000       0.552487        15.0339 
 140   0.0000       0.560771        15.2593 
 141   0.0000       0.564551        15.3622 
 142   0.0000       0.564942        15.3729 
 143   0.0000       0.568840        15.4789 
 144   0.0000       0.575671        15.6648 
 145   0.0000       0.581422        15.8213 
 146   0.0000       0.586049        15.9472 
 147   0.0000       0.586982        15.9726 
 148   0.0000       0.594782        16.1848 
 149   0.0000       0.595996        16.2179 
 150   0.0000       0.605009        16.4631 
 151   0.0000       0.612000        16.6534 
 152   0.0000       0.617340        16.7987 
 153   0.0000       0.620555        16.8862 
 154   0.0000       0.624485        16.9931 
 155   0.0000       0.628219        17.0947 
 156   0.0000       0.630065        17.1449 
 157   0.0000       0.633204        17.2304 
 158   0.0000       0.635714        17.2987 
 159   0.0000       0.643735        17.5169 
 160   0.0000       0.645627        17.5684 
 161   0.0000       0.649623        17.6771 
 162   0.0000       0.653648        17.7867 
 163   0.0000       0.661676        18.0051 
 164   0.0000       0.663062        18.0428 
 165   0.0000       0.671662        18.2769 
 166   0.0000       0.678034        18.4502 
 167   0.0000       0.681291        18.5389 
 168   0.0000       0.687231        18.7005 
 169   0.0000       0.693554        18.8726 
 170   0.0000       0.698952        19.0194 
 171   0.0000       0.704102        19.1596 
 172   0.0000       0.710895        19.3444 
 173   0.0000       0.719835        19.5877 
 174   0.0000       0.722919        19.6716 
 175   0.0000       0.730729        19.8842 
 176   0.0000       0.734423        19.9847 
 177   0.0000       0.741107        20.1665 
 178   0.0000       0.752044        20.4641 
 179   0.0000       0.760854        20.7039 
 180   0.0000       0.767273        20.8786 
 181   0.0000       0.777770        21.1642 
 182   0.0000       0.780752        21.2453 
 183   0.0000       0.788669        21.4608 
 184   0.0000       0.800296        21.7772 
 185   0.0000       0.802886        21.8476 
 186   0.0000       0.809726        22.0338 
 187   0.0000       0.821115        22.3437 
 188   0.0000       0.822881        22.3917 
 189   0.0000       0.830569        22.6009 
 190   0.0000       0.839836        22.8531 
 191   0.0000       0.844612        22.9831 
 192   0.0000       0.853357        23.2210 
 193   0.0000       0.866820        23.5874 
 194   0.0000       0.868354        23.6291 
 195   0.0000       0.871563        23.7164 
 196   0.0000       0.890919        24.2432 
 197   0.0000       0.898731        24.4557 
 198   0.0000       0.907904        24.7053 
 199   0.0000       0.912103        24.8196 
 200   0.0000       0.913731        24.8639 
 201   0.0000       0.923327        25.1250 
 202   0.0000       0.925452        25.1828 
 203   0.0000       0.929044        25.2806 
 204   0.0000       0.943031        25.6612 
 205   0.0000       0.957032        26.0422 
 206   0.0000       0.964122        26.2351 
 207   0.0000       0.966303        26.2944 
 208   0.0000       0.973894        26.5010 
 209   0.0000       0.976655        26.5761 
 210   0.0000       0.983058        26.7504 
 211   0.0000       0.988826        26.9073 
 212   0.0000       0.993284        27.0286 
 213   0.0000       1.003677        27.3114 
 214   0.0000       1.010462        27.4961 
 215   0.0000       1.017754        27.6945 
 216   0.0000       1.022662        27.8280 
 217   0.0000       1.027501        27.9597 
 218   0.0000       1.034884        28.1606 
 219   0.0000       1.045427        28.4475 
 220   0.0000       1.046448        28.4753 
 221   0.0000       1.062173        28.9032 
 222   0.0000       1.070200        29.1216 
 223   0.0000       1.079143        29.3650 
 224   0.0000       1.088176        29.6108 
 225   0.0000       1.090265        29.6676 
 226   0.0000       1.104791        30.0629 
 227   0.0000       1.107883        30.1470 
 228   0.0000       1.119045        30.4508 
 229   0.0000       1.127422        30.6787 
 230   0.0000       1.129761        30.7424 
 231   0.0000       1.135044        30.8861 
 232   0.0000       1.138715        30.9860 
 233   0.0000       1.151958        31.3464 
 234   0.0000       1.158359        31.5206 
 235   0.0000       1.162400        31.6305 
 236   0.0000       1.166113        31.7316 
 237   0.0000       1.177587        32.0438 
 238   0.0000       1.186307        32.2811 
 239   0.0000       1.190719        32.4011 
 240   0.0000       1.199180        32.6314 
 241   0.0000       1.206541        32.8317 
 242   0.0000       1.218210        33.1492 
 243   0.0000       1.221447        33.2373 
 244   0.0000       1.225592        33.3501 
 245   0.0000       1.239078        33.7170 
 246   0.0000       1.245686        33.8968 
 247   0.0000       1.252398        34.0795 
 248   0.0000       1.254795        34.1447 
 249   0.0000       1.266474        34.4625 
 250   0.0000       1.275887        34.7186 
 251   0.0000       1.278805        34.7980 
 252   0.0000       1.281524        34.8720 
 253   0.0000       1.294164        35.2160 
 254   0.0000       1.301274        35.4095 
 255   0.0000       1.311061        35.6758 
 256   0.0000       1.315284        35.7907 
 257   0.0000       1.318571        35.8801 
 258   0.0000       1.323204        36.0062 
 259   0.0000       1.329019        36.1644 
 260   0.0000       1.334135        36.3037 
 261   0.0000       1.345646        36.6169 
 262   0.0000       1.350352        36.7449 
 263   0.0000       1.355376        36.8817 
 264   0.0000       1.367679        37.2164 
 265   0.0000       1.380426        37.5633 
 266   0.0000       1.386049        37.7163 
 267   0.0000       1.394451        37.9449 
 268   0.0000       1.400527        38.1103 
 269   0.0000       1.413437        38.4616 
 270   0.0000       1.424757        38.7696 
 271   0.0000       1.430104        38.9151 
 272   0.0000       1.430305        38.9206 
 273   0.0000       1.445360        39.3302 
 274   0.0000       1.449000        39.4293 
 275   0.0000       1.457733        39.6669 
 276   0.0000       1.469893        39.9978 
 277   0.0000       1.480304        40.2811 
 278   0.0000       1.486413        40.4473 
 279   0.0000       1.489317        40.5264 
 280   0.0000       1.493474        40.6395 
 281   0.0000       1.499305        40.7982 
 282   0.0000       1.504284        40.9336 
 283   0.0000       1.507737        41.0276 
 284   0.0000       1.515605        41.2417 
 285   0.0000       1.527886        41.5759 
 286   0.0000       1.530576        41.6491 
 287   0.0000       1.532714        41.7073 
 288   0.0000       1.538970        41.8775 
 289   0.0000       1.551647        42.2225 
 290   0.0000       1.556390        42.3515 
 291   0.0000       1.565126        42.5893 
 292   0.0000       1.568713        42.6868 
 293   0.0000       1.572328        42.7852 
 294   0.0000       1.588165        43.2162 
 295   0.0000       1.595420        43.4136 
 296   0.0000       1.599317        43.5196 
 297   0.0000       1.609669        43.8013 
 298   0.0000       1.624283        44.1990 
 299   0.0000       1.628972        44.3266 
 300   0.0000       1.637083        44.5473 
 301   0.0000       1.645696        44.7817 
 302   0.0000       1.653987        45.0073 
 303   0.0000       1.663242        45.2591 
 304   0.0000       1.668499        45.4022 
 305   0.0000       1.679813        45.7100 
 306   0.0000       1.686792        45.8999 
 307   0.0000       1.696750        46.1709 
 308   0.0000       1.708308        46.4854 
 309   0.0000       1.711105        46.5615 
 310   0.0000       1.725383        46.9500 
 311   0.0000       1.733403        47.1683 
 312   0.0000       1.738295        47.3014 
 313   0.0000       1.741514        47.3890 
 314   0.0000       1.755121        47.7593 
 315   0.0000       1.759373        47.8750 
 316   0.0000       1.770372        48.1743 
 317   0.0000       1.778040        48.3829 
 318   0.0000       1.789026        48.6819 
 319   0.0000       1.802884        49.0590 
 320   0.0000       1.817882        49.4671 
 321   0.0000       1.830796        49.8185 
 322   0.0000       1.849012        50.3142 
 323   0.0000       1.852375        50.4057 
 324   0.0000       1.859635        50.6032 
 325   0.0000       1.878352        51.1125 
 326   0.0000       1.885149        51.2975 
 327   0.0000       1.901282        51.7365 
 328   0.0000       1.909507        51.9603 
 329   0.0000       1.922460        52.3128 
 330   0.0000       1.925542        52.3966 
 331   0.0000       1.935886        52.6781 
 332   0.0000       1.942334        52.8536 
 333   0.0000       1.951111        53.0924 
 334   0.0000       1.966623        53.5145 
 335   0.0000       1.978035        53.8251 
 336   0.0000       1.990070        54.1526 
 337   0.0000       1.993927        54.2575 
 338   0.0000       2.009078        54.6698 
 339   0.0000       2.019527        54.9541 
 340   0.0000       2.031259        55.2734 
 341   0.0000       2.037404        55.4406 
 342   0.0000       2.051953        55.8365 
 343   0.0000       2.057214        55.9796 
 344   0.0000       2.092374        56.9364 
 345   0.0000       2.107301        57.3426 
 346   0.0000       2.122889        57.7668 
 347   0.0000       2.131413        57.9987 
 348   0.0000       2.142408        58.2979 
 349   0.0000       2.150166        58.5090 
 350   0.0000       2.185019        59.4574 
 351   0.0000       2.194119        59.7050 
 352   0.0000       2.215870        60.2969 
 353   0.0000       2.231168        60.7132 
 354   0.0000       2.245858        61.1129 
 355   0.0000       2.256293        61.3968 
 356   0.0000       2.278888        62.0117 
 357   0.0000       2.281251        62.0760 
 358   0.0000       2.284008        62.1510 
 359   0.0000       2.295820        62.4724 
 360   0.0000       2.308111        62.8069 
 361   0.0000       2.318516        63.0900 
 362   0.0000       2.334640        63.5288 
 363   0.0000       2.344427        63.7951 
 364   0.0000       2.354819        64.0779 
 365   0.0000       2.371529        64.5326 
 366   0.0000       2.372745        64.5657 
 367   0.0000       2.388655        64.9986 
 368   0.0000       2.398789        65.2744 
 369   0.0000       2.418208        65.8028 
 370   0.0000       2.442624        66.4672 
 371   0.0000       2.446766        66.5799 
 372   0.0000       2.472927        67.2918 
 373   0.0000       2.486388        67.6580 
 374   0.0000       2.505524        68.1788 
 375   0.0000       2.516917        68.4888 
 376   0.0000       2.532006        68.8994 
 377   0.0000       2.535904        69.0055 
 378   0.0000       2.538791        69.0840 
 379   0.0000       2.567121        69.8549 
 380   0.0000       2.570371        69.9433 
 381   0.0000       2.587653        70.4136 
 382   0.0000       2.595455        70.6259 
 383   0.0000       2.603504        70.8449 
 384   0.0000       2.617899        71.2367 
 385   0.0000       2.631718        71.6127 
 386   0.0000       2.636264        71.7364 
 387   0.0000       2.648018        72.0562 
 388   0.0000       2.658088        72.3303 
 389   0.0000       2.675398        72.8013 
 390   0.0000       2.689585        73.1873 
 391   0.0000       2.698815        73.4385 
 392   0.0000       2.702526        73.5395 
 393   0.0000       2.705229        73.6130 
 394   0.0000       2.719015        73.9882 
 395   0.0000       2.730101        74.2898 
 396   0.0000       2.743129        74.6443 
 397   0.0000       2.751711        74.8779 
 398   0.0000       2.758446        75.0611 
 399   0.0000       2.769622        75.3653 
 400   0.0000       2.787120        75.8414 
 401   0.0000       2.791828        75.9695 
 402   0.0000       2.796564        76.0984 
 403   0.0000       2.807306        76.3907 
 404   0.0000       2.823113        76.8208 
 405   0.0000       2.825575        76.8878 
 406   0.0000       2.834800        77.1388 
 407   0.0000       2.850621        77.5693 
 408   0.0000       2.854012        77.6616 
 409   0.0000       2.861689        77.8705 
 410   0.0000       2.876131        78.2635 
 411   0.0000       2.890481        78.6540 
 412   0.0000       2.892680        78.7138 
 413   0.0000       2.897880        78.8553 
 414   0.0000       2.909628        79.1750 
 415   0.0000       2.914870        79.3176 
 416   0.0000       2.923266        79.5461 
 417   0.0000       2.929669        79.7204 
 418   0.0000       2.941377        80.0389 
 419   0.0000       2.952807        80.3500 
 420   0.0000       2.956746        80.4572 
 421   0.0000       2.964810        80.6766 
 422   0.0000       2.984211        81.2045 
 423   0.0000       2.991929        81.4145 
 424   0.0000       2.999159        81.6113 
 425   0.0000       3.013360        81.9977 
 426   0.0000       3.020137        82.1821 
 427   0.0000       3.034230        82.5656 
 428   0.0000       3.043059        82.8058 
 429   0.0000       3.051012        83.0222 
 430   0.0000       3.054821        83.1259 
 431   0.0000       3.060614        83.2836 
 432   0.0000       3.069715        83.5312 
 433   0.0000       3.076052        83.7036 
 434   0.0000       3.079168        83.7884 
 435   0.0000       3.090793        84.1048 
 436   0.0000       3.092847        84.1607 
 437   0.0000       3.098968        84.3272 
 438   0.0000       3.105944        84.5170 
 439   0.0000       3.116148        84.7947 
 440   0.0000       3.125888        85.0597 
 441   0.0000       3.129140        85.1482 
 442   0.0000       3.140785        85.4651 
 443   0.0000       3.143703        85.5445 
 444   0.0000       3.150031        85.7167 
 445   0.0000       3.158785        85.9549 
 446   0.0000       3.163533        86.0841 
 447   0.0000       3.173941        86.3673 
 448   0.0000       3.179416        86.5163 
 449   0.0000       3.184676        86.6594 
 450   0.0000       3.200974        87.1029 
 451   0.0000       3.206927        87.2649 
 452   0.0000       3.209997        87.3485 
 453   0.0000       3.217448        87.5512 
 454   0.0000       3.221955        87.6738 
 455   0.0000       3.238671        88.1287 
 456   0.0000       3.241762        88.2128 
 457   0.0000       3.252036        88.4924 
 458   0.0000       3.256093        88.6028 
 459   0.0000       3.266880        88.8963 
 460   0.0000       3.273098        89.0655 
 461   0.0000       3.278408        89.2100 
 462   0.0000       3.282466        89.3205 
 463   0.0000       3.283574        89.3506 
 464   0.0000       3.290127        89.5289 
 465   0.0000       3.301157        89.8291 
 466   0.0000       3.308916        90.0402 
 467   0.0000       3.318906        90.3120 
 468   0.0000       3.323161        90.4278 
 469   0.0000       3.329411        90.5979 
 470   0.0000       3.336802        90.7990 
 471   0.0000       3.338994        90.8587 
 472   0.0000       3.343132        90.9713 
 473   0.0000       3.352044        91.2138 
 474   0.0000       3.353571        91.2553 
 475   0.0000       3.360490        91.4436 
 476   0.0000       3.374559        91.8264 
 477   0.0000       3.376062        91.8673 
 478   0.0000       3.383240        92.0626 
 479   0.0000       3.390943        92.2723 
 480   0.0000       3.399115        92.4946 
 481   0.0000       3.408192        92.7416 
 482   0.0000       3.409169        92.7682 
 483   0.0000       3.416133        92.9577 
 484   0.0000       3.422488        93.1306 
 485   0.0000       3.426096        93.2288 
 486   0.0000       3.430075        93.3371 
 487   0.0000       3.440450        93.6194 
 488   0.0000       3.443638        93.7062 
 489   0.0000       3.450218        93.8852 
 490   0.0000       3.453067        93.9627 
 491   0.0000       3.463064        94.2348 
 492   0.0000       3.469290        94.4042 
 493   0.0000       3.472159        94.4822 
 494   0.0000       3.477604        94.6304 
 495   0.0000       3.483843        94.8002 
 496   0.0000       3.490126        94.9711 
 497   0.0000       3.495645        95.1213 
 498   0.0000       3.502081        95.2965 
 499   0.0000       3.515522        95.6622 
 500   0.0000       3.519179        95.7617 
 501   0.0000       3.528600        96.0181 
 502   0.0000       3.536555        96.2346 
 503   0.0000       3.542878        96.4066 
 504   0.0000       3.544726        96.4569 
 505   0.0000       3.559543        96.8601 
 506   0.0000       3.563658        96.9721 
 507   0.0000       3.573114        97.2294 
 508   0.0000       3.583158        97.5027 
 509   0.0000       3.589372        97.6718 
 510   0.0000       3.601923        98.0133 
 511   0.0000       3.605494        98.1105 
 512   0.0000       3.615318        98.3778 
 513   0.0000       3.623578        98.6026 
 514   0.0000       3.625989        98.6682 
 515   0.0000       3.631677        98.8230 
 516   0.0000       3.632754        98.8523 
 517   0.0000       3.638168        98.9996 
 518   0.0000       3.649054        99.2958 
 519   0.0000       3.658392        99.5499 
 520   0.0000       3.660074        99.5957 
 521   0.0000       3.668855        99.8346 
 522   0.0000       3.676698       100.0481 
 523   0.0000       3.677027       100.0570 
 524   0.0000       3.678112       100.0865 
 525   0.0000       3.692472       100.4773 
 526   0.0000       3.702391       100.7472 
 527   0.0000       3.706695       100.8643 
 528   0.0000       3.707919       100.8976 
 529   0.0000       3.717230       101.1510 
 530   0.0000       3.723297       101.3161 
 531   0.0000       3.732848       101.5760 
 532   0.0000       3.746500       101.9474 
 533   0.0000       3.749043       102.0167 
 534   0.0000       3.757287       102.2410 
 535   0.0000       3.760600       102.3311 
 536   0.0000       3.766334       102.4872 
 537   0.0000       3.768575       102.5481 
 538   0.0000       3.772609       102.6579 
 539   0.0000       3.776748       102.7705 
 540   0.0000       3.782003       102.9135 
 541   0.0000       3.792611       103.2022 
 542   0.0000       3.799642       103.3935 
 543   0.0000       3.808533       103.6355 
 544   0.0000       3.813960       103.7831 
 545   0.0000       3.821169       103.9793 
 546   0.0000       3.825971       104.1100 
 547   0.0000       3.829213       104.1982 
 548   0.0000       3.845074       104.6298 
 549   0.0000       3.849194       104.7419 
 550   0.0000       3.855128       104.9034 
 551   0.0000       3.867447       105.2386 
 552   0.0000       3.889899       105.8495 
 553   0.0000       3.895491       106.0017 
 554   0.0000       3.899790       106.1187 
 555   0.0000       3.905630       106.2776 
 556   0.0000       3.924682       106.7960 
 557   0.0000       3.927392       106.8698 
 558   0.0000       3.935812       107.0989 
 559   0.0000       3.939518       107.1997 
 560   0.0000       3.946731       107.3960 
 561   0.0000       3.955347       107.6305 
 562   0.0000       3.965172       107.8978 
 563   0.0000       3.971817       108.0786 
 564   0.0000       3.974891       108.1623 
 565   0.0000       3.984279       108.4178 
 566   0.0000       3.994175       108.6870 
 567   0.0000       3.998385       108.8016 
 568   0.0000       4.009928       109.1157 
 569   0.0000       4.019773       109.3836 
 570   0.0000       4.028072       109.6094 
 571   0.0000       4.038308       109.8880 
 572   0.0000       4.047770       110.1454 
 573   0.0000       4.052518       110.2746 
 574   0.0000       4.063179       110.5647 
 575   0.0000       4.067487       110.6820 
 576   0.0000       4.085251       111.1653 
 577   0.0000       4.092946       111.3747 
 578   0.0000       4.105660       111.7207 
 579   0.0000       4.111699       111.8850 
 580   0.0000       4.115739       111.9950 
 581   0.0000       4.125849       112.2701 
 582   0.0000       4.137109       112.5765 
 583   0.0000       4.139168       112.6325 
 584   0.0000       4.145255       112.7981 
 585   0.0000       4.151776       112.9756 
 586   0.0000       4.157731       113.1376 
 587   0.0000       4.164024       113.3089 
 588   0.0000       4.169712       113.4636 
 589   0.0000       4.172364       113.5358 
 590   0.0000       4.178696       113.7081 
 591   0.0000       4.190905       114.0403 
 592   0.0000       4.193378       114.1076 
 593   0.0000       4.199557       114.2757 
 594   0.0000       4.209221       114.5387 
 595   0.0000       4.215334       114.7051 
 596   0.0000       4.220960       114.8582 
 597   0.0000       4.231368       115.1414 
 598   0.0000       4.245677       115.5307 
 599   0.0000       4.248452       115.6063 
 600   0.0000       4.255955       115.8104 
 601   0.0000       4.262183       115.9799 
 602   0.0000       4.271039       116.2209 
 603   0.0000       4.278510       116.4242 
 604   0.0000       4.288817       116.7047 
 605   0.0000       4.292225       116.7974 
 606   0.0000       4.303543       117.1054 
 607   0.0000       4.315136       117.4208 
 608   0.0000       4.325086       117.6916 
 609   0.0000       4.327618       117.7605 
 610   0.0000       4.335883       117.9854 
 611   0.0000       4.347584       118.3038 
 612   0.0000       4.350076       118.3716 
 613   0.0000       4.358053       118.5887 
 614   0.0000       4.361540       118.6835 
 615   0.0000       4.372765       118.9890 
 616   0.0000       4.384137       119.2984 
 617   0.0000       4.399699       119.7219 
 618   0.0000       4.406740       119.9135 
 619   0.0000       4.411500       120.0430 
 620   0.0000       4.420285       120.2821 
 621   0.0000       4.436079       120.7118 
 622   0.0000       4.441897       120.8702 
 623   0.0000       4.452753       121.1656 
 624   0.0000       4.462717       121.4367 
 625   0.0000       4.471653       121.6799 
 626   0.0000       4.472883       121.7133 
 627   0.0000       4.479560       121.8950 
 628   0.0000       4.484093       122.0184 
 629   0.0000       4.495244       122.3218 
 630   0.0000       4.502321       122.5144 
 631   0.0000       4.516570       122.9021 
 632   0.0000       4.533064       123.3509 
 633   0.0000       4.542153       123.5983 
 634   0.0000       4.546306       123.7113 
 635   0.0000       4.554936       123.9461 
 636   0.0000       4.559618       124.0735 
 637   0.0000       4.567105       124.2772 
 638   0.0000       4.576105       124.5221 
 639   0.0000       4.579684       124.6195 
 640   0.0000       4.586999       124.8186 
 641   0.0000       4.594597       125.0253 
 642   0.0000       4.610250       125.4513 
 643   0.0000       4.618925       125.6874 
 644   0.0000       4.630141       125.9925 
 645   0.0000       4.634284       126.1053 
 646   0.0000       4.638469       126.2191 
 647   0.0000       4.646346       126.4335 
 648   0.0000       4.656740       126.7163 
 649   0.0000       4.663368       126.8967 
 650   0.0000       4.669990       127.0769 
 651   0.0000       4.683137       127.4346 
 652   0.0000       4.685407       127.4964 
 653   0.0000       4.692190       127.6810 
 654   0.0000       4.713372       128.2574 
 655   0.0000       4.716280       128.3365 
 656   0.0000       4.737419       128.9117 
 657   0.0000       4.745960       129.1441 
 658   0.0000       4.759049       129.5003 
 659   0.0000       4.761219       129.5593 
 660   0.0000       4.780880       130.0944 
 661   0.0000       4.791292       130.3777 
 662   0.0000       4.804924       130.7486 
 663   0.0000       4.813906       130.9930 
 664   0.0000       4.828098       131.3792 
 665   0.0000       4.839372       131.6860 
 666   0.0000       4.841101       131.7331 
 667   0.0000       4.854083       132.0863 
 668   0.0000       4.885642       132.9451 
 669   0.0000       4.892680       133.1366 
 670   0.0000       4.904913       133.4695 
 671   0.0000       4.932964       134.2328 
 672   0.0000       4.968302       135.1944 
 673   0.0000       4.982622       135.5840 
 674   0.0000       4.991781       135.8333 
 675   0.0000       4.994594       135.9098 
 676   0.0000       5.005684       136.2116 
 677   0.0000       5.023387       136.6933 
 678   0.0000       5.037125       137.0671 
 679   0.0000       5.045236       137.2878 
 680   0.0000       5.072038       138.0172 
 681   0.0000       5.080477       138.2468 
 682   0.0000       5.090104       138.5088 
 683   0.0000       5.102407       138.8435 
 684   0.0000       5.113503       139.1455 
 685   0.0000       5.125833       139.4810 
 686   0.0000       5.127604       139.5292 
 687   0.0000       5.148091       140.0867 
 688   0.0000       5.153205       140.2258 
 689   0.0000       5.159730       140.4034 
 690   0.0000       5.168198       140.6338 
 691   0.0000       5.180402       140.9659 
 692   0.0000       5.195431       141.3749 
 693   0.0000       5.200444       141.5113 
 694   0.0000       5.205899       141.6597 
 695   0.0000       5.213729       141.8728 
 696   0.0000       5.220797       142.0651 
 697   0.0000       5.228448       142.2733 
 698   0.0000       5.249044       142.8338 
 699   0.0000       5.252302       142.9224 
 700   0.0000       5.262388       143.1969 
 701   0.0000       5.274136       143.5165 
 702   0.0000       5.281199       143.7087 
 703   0.0000       5.320802       144.7864 
 704   0.0000       5.324593       144.8896 
 705   0.0000       5.338563       145.2697 
 706   0.0000       5.344705       145.4368 
 707   0.0000       5.358485       145.8118 
 708   0.0000       5.377623       146.3326 
 709   0.0000       5.381324       146.4333 
 710   0.0000       5.390635       146.6866 
 711   0.0000       5.414858       147.3458 
 712   0.0000       5.420848       147.5088 
 713   0.0000       5.449923       148.3000 
 714   0.0000       5.465689       148.7290 
 715   0.0000       5.476694       149.0284 
 716   0.0000       5.487408       149.3200 
 717   0.0000       5.511946       149.9877 
 718   0.0000       5.519808       150.2016 
 719   0.0000       5.530695       150.4979 
 720   0.0000       5.543622       150.8496 
 721   0.0000       5.569647       151.5578 
 722   0.0000       5.580213       151.8453 
 723   0.0000       5.589135       152.0881 
 724   0.0000       5.596601       152.2912 
 725   0.0000       5.611446       152.6952 
 726   0.0000       5.626852       153.1144 
 727   0.0000       5.636752       153.3838 
 728   0.0000       5.648882       153.7139 
 729   0.0000       5.661593       154.0598 
 730   0.0000       5.664663       154.1433 
 731   0.0000       5.668908       154.2588 
 732   0.0000       5.684201       154.6750 
 733   0.0000       5.710967       155.4033 
 734   0.0000       5.718428       155.6063 
 735   0.0000       5.730826       155.9437 
 736   0.0000       5.741752       156.2410 
 737   0.0000       5.749813       156.4604 
 738   0.0000       5.763345       156.8286 
 739   0.0000       5.786131       157.4486 
 740   0.0000       5.794197       157.6681 
 741   0.0000       5.806209       157.9950 
 742   0.0000       5.808950       158.0696 
 743   0.0000       5.827820       158.5830 
 744   0.0000       5.863081       159.5425 
 745   0.0000       5.871278       159.7656 
 746   0.0000       5.874199       159.8451 
 747   0.0000       5.898246       160.4994 
 748   0.0000       5.904797       160.6777 
 749   0.0000       5.926012       161.2550 
 750   0.0000       5.946764       161.8197 
 751   0.0000       5.994224       163.1111 
 752   0.0000       5.999458       163.2535 
 753   0.0000       6.035276       164.2282 
 754   0.0000       6.046590       164.5361 
 755   0.0000       6.058280       164.8542 
 756   0.0000       6.064703       165.0290 
 757   0.0000       6.084530       165.5685 
 758   0.0000       6.096053       165.8820 
 759   0.0000       6.115525       166.4119 
 760   0.0000       6.138458       167.0359 
 761   0.0000       6.196504       168.6154 
 762   0.0000       6.211429       169.0216 
 763   0.0000       6.222477       169.3222 
 764   0.0000       6.234963       169.6620 
 765   0.0000       6.256843       170.2574 
 766   0.0000       6.271228       170.6488 
 767   0.0000       6.318106       171.9244 
 768   0.0000       6.336755       172.4319 
 769   0.0000       6.366025       173.2283 
 770   0.0000       6.393524       173.9766 
 771   0.0000       6.411977       174.4788 
 772   0.0000       6.427347       174.8970 
 773   0.0000       6.431188       175.0015 
 774   0.0000       6.463355       175.8768 
 775   0.0000       6.507806       177.0864 
 776   0.0000       6.532543       177.7595 
 777   0.0000       6.600530       179.6096 
 778   0.0000       6.620052       180.1408 
 779   0.0000       6.637488       180.6152 
 780   0.0000       6.680016       181.7725 
 781   0.0000       6.690700       182.0632 
 782   0.0000       6.756514       183.8541 
 783   0.0000       6.797033       184.9567 
 784   0.0000       6.809503       185.2960 
 785   0.0000       6.881256       187.2485 
 786   0.0000       6.940913       188.8719 
 787   0.0000       6.947217       189.0434 
 788   0.0000       6.981416       189.9740 
 789   0.0000       7.040409       191.5793 
 790   0.0000       7.073430       192.4778 
 791   0.0000       7.105790       193.3584 
 792   0.0000       7.130457       194.0296 
 793   0.0000       7.142430       194.3554 
 794   0.0000       7.218017       196.4122 
 795   0.0000       7.233244       196.8266 
 796   0.0000       7.255568       197.4341 
 797   0.0000       7.278263       198.0516 
 798   0.0000       7.365791       200.4334 
 799   0.0000       7.370925       200.5731 
 800   0.0000       7.412036       201.6918 
 801   0.0000       7.541273       205.2085 
 802   0.0000       7.553561       205.5428 
 803   0.0000       7.591108       206.5646 
 804   0.0000       7.692627       209.3270 
 805   0.0000       7.755223       211.0303 
 806   0.0000       7.845371       213.4834 
 807   0.0000       7.925509       215.6641 
 808   0.0000       7.970005       216.8749 
 809   0.0000       9.334497       254.0046 
 810   0.0000       9.912921       269.7443 
 811   0.0000      11.054202       300.8001 
 812   0.0000      11.583960       315.2156 
 813   0.0000      12.107221       329.4542 
 814   0.0000      12.389280       337.1294 
 815   0.0000      12.804470       348.4273 
 816   0.0000      12.960245       352.6662 
 817   0.0000      13.097657       356.4054 
 818   0.0000      13.261831       360.8728 
 819   0.0000      13.384375       364.2074 
 820   0.0000      13.667033       371.8989 
 821   0.0000      13.749440       374.1413 
 822   0.0000      14.012428       381.2975 
 823   0.0000      14.185277       386.0010 
 824   0.0000      14.277360       388.5067 
 825   0.0000      14.670362       399.2008 
 826   0.0000      15.017320       408.6421 
 827   0.0000      15.910267       432.9404 

                    ********************************
                    * MULLIKEN POPULATION ANALYSIS *
                    ********************************

-----------------------
MULLIKEN ATOMIC CHARGES
-----------------------
   0 C :   -0.313429
   1 C :    0.026748
   2 O :   -0.313984
   3 C :    0.451729
   4 O :   -0.433897
   5 C :   -0.200416
   6 C :    0.175001
   7 C :   -0.320427
   8 N :   -0.114227
   9 C :    0.215734
  10 S :   -0.446410
  11 N :   -0.213435
  12 C :    0.061504
  13 C :    0.098805
  14 C :   -0.247390
  15 C :   -0.125016
  16 C :   -0.233823
  17 C :    0.313362
  18 O :   -0.361616
  19 C :   -0.292900
  20 H :    0.092777
  21 H :    0.108221
  22 H :    0.113110
  23 H :    0.101162
  24 H :    0.106115
  25 H :    0.126745
  26 H :    0.116517
  27 H :    0.112786
  28 H :    0.200111
  29 H :    0.196553
  30 H :    0.145279
  31 H :    0.158692
  32 H :    0.153808
  33 H :    0.169028
  34 H :    0.243009
  35 H :    0.130174
Sum of atomic charges:   -0.0000000

--------------------------------
MULLIKEN REDUCED ORBITAL CHARGES
--------------------------------
  0 C s       :     3.269087  s :     3.269087
      pz      :     0.997346  p :     2.965915
      px      :     0.954732
      py      :     1.013837
      dz2     :     0.022517  d :     0.073657
      dxz     :     0.010518
      dyz     :     0.008009
      dx2y2   :     0.017048
      dxy     :     0.015565
      f0      :     0.001493  f :     0.004770
      f+1     :     0.000430
      f-1     :     0.000141
      f+2     :     0.000204
      f-2     :     0.000577
      f+3     :     0.000658
      f-3     :     0.001267
  1 C s       :     3.152295  s :     3.152295
      pz      :     0.916810  p :     2.653092
      px      :     0.936837
      py      :     0.799445
      dz2     :     0.044549  d :     0.155456
      dxz     :     0.016584
      dyz     :     0.025996
      dx2y2   :     0.026737
      dxy     :     0.041589
      f0      :     0.001521  f :     0.012410
      f+1     :     0.000852
      f-1     :     0.002837
      f+2     :     0.001809
      f-2     :     0.001700
      f+3     :     0.001909
      f-3     :     0.001782
  2 O s       :     3.698265  s :     3.698265
      pz      :     1.694778  p :     4.576668
      px      :     1.611368
      py      :     1.270522
      dz2     :     0.005559  d :     0.036522
      dxz     :     0.003785
      dyz     :     0.007926
      dx2y2   :     0.005605
      dxy     :     0.013645
      f0      :     0.000302  f :     0.002528
      f+1     :     0.000153
      f-1     :     0.000460
      f+2     :     0.000312
      f-2     :     0.000364
      f+3     :     0.000535
      f-3     :     0.000403
  3 C s       :     3.084208  s :     3.084208
      pz      :     0.783143  p :     2.137985
      px      :     0.655835
[...]
 15 C s       :     2.713271  s :     2.713271
      pz      :     0.953916  p :     2.787464
      px      :     0.943109
      py      :     0.890440
      dz2     :     0.115185  d :     0.405490
      dxz     :     0.080938
      dyz     :     0.080022
      dx2y2   :     0.058819
      dxy     :     0.070526
      f0      :     0.005845  f :     0.038576
      f+1     :     0.006299
      f-1     :     0.006413
      f+2     :     0.007039
      f-2     :     0.006150
      f+3     :     0.002535
      f-3     :     0.004295
 16 C s       :     2.707693  s :     2.707693
      pz      :     0.959587  p :     2.852744
      px      :     0.963637
      py      :     0.929520
      dz2     :     0.078825  d :     0.376668
      dxz     :     0.095868
      dyz     :     0.053994
      dx2y2   :     0.073564
      dxy     :     0.074417
      f0      :     0.005545  f :     0.039152
      f+1     :     0.005477
      f-1     :     0.005724
      f+2     :     0.005246
      f-2     :     0.005575
      f+3     :     0.005839
      f-3     :     0.005746
 17 C s       :     2.701899  s :     2.701899
      pz      :     0.879977  p :     2.680064
      px      :     0.983882
      py      :     0.816206
      dz2     :     0.177745  d :     0.715416
      dxz     :     0.146569
      dyz     :     0.139932
      dx2y2   :     0.136015
      dxy     :     0.115155
      f0      :     0.017776  f :     0.100962
      f+1     :     0.011656
      f-1     :     0.018232
      f+2     :     0.018896
      f-2     :     0.014425
      f+3     :     0.010170
      f-3     :     0.009807
 18 O s       :     3.183017  s :     3.183017
      pz      :     1.506920  p :     4.342960
      px      :     1.300958
      py      :     1.535082
      dz2     :     0.017927  d :     0.075684
      dxz     :     0.010647
      dyz     :     0.016538
      dx2y2   :     0.022177
      dxy     :     0.008394
      f0      :     0.000497  f :     0.005374
      f+1     :     0.000587
      f-1     :     0.001043
      f+2     :     0.001098
      f-2     :     0.000785
      f+3     :     0.000787
      f-3     :     0.000577
 19 C s       :     2.692795  s :     2.692795
      pz      :     0.967860  p :     2.868787
      px      :     0.953351
      py      :     0.947576
      dz2     :     0.107326  d :     0.392953
      dxz     :     0.082783
      dyz     :     0.075211
      dx2y2   :     0.060186
      dxy     :     0.067446
      f0      :     0.006034  f :     0.041632
      f+1     :     0.006824
      f-1     :     0.007426
      f+2     :     0.007688
      f-2     :     0.006555
      f+3     :     0.002859
      f-3     :     0.004247
 20 H s       :     0.850574  s :     0.850574
      pz      :     0.072622  p :     0.150009
      px      :     0.038094
      py      :     0.039293
      dz2     :     0.008983  d :     0.027576
      dxz     :     0.008988
      dyz     :     0.009426
      dx2y2   :     0.000063
      dxy     :     0.000117
 21 H s       :     0.840342  s :     0.840342
      pz      :     0.043297  p :     0.150319
      px      :     0.039640
      py      :     0.067381
      dz2     :     0.004335  d :     0.027433
      dxz     :     0.000917
      dyz     :     0.007523
      dx2y2   :     0.006323
      dxy     :     0.008334
 22 H s       :     0.838782  s :     0.838782
      pz      :     0.042408  p :     0.153951
      px      :     0.060687
      py      :     0.050857
      dz2     :     0.004642  d :     0.027945
      dxz     :     0.005316
      dyz     :     0.003112
      dx2y2   :     0.008665
      dxy     :     0.006211
 23 H s       :     0.846243  s :     0.846243
      pz      :     0.039940  p :     0.148365
      px      :     0.057732
      py      :     0.050694
      dz2     :     0.002565  d :     0.027830
      dxz     :     0.004842
      dyz     :     0.005104
      dx2y2   :     0.007696
      dxy     :     0.007622
 24 H s       :     0.844187  s :     0.844187
      pz      :     0.077087  p :     0.148718
      px      :     0.040786
      py      :     0.030845
      dz2     :     0.010462  d :     0.027930
      dxz     :     0.009351
      dyz     :     0.007080
      dx2y2   :     0.000130
      dxy     :     0.000907
 25 H s       :     0.826509  s :     0.826509
      pz      :     0.045551  p :     0.152552
      px      :     0.065820
      py      :     0.041181
      dz2     :     0.004425  d :     0.027940
      dxz     :     0.007404
      dyz     :     0.001421
      dx2y2   :     0.006850
      dxy     :     0.007840
 26 H s       :     0.828239  s :     0.828239
      pz      :     0.044576  p :     0.152019
      px      :     0.054098
      py      :     0.053346
      dz2     :     0.003814  d :     0.028194
      dxz     :     0.004858
      dyz     :     0.004199
      dx2y2   :     0.008550
      dxy     :     0.006774
 27 H s       :     0.830012  s :     0.830012
      pz      :     0.073594  p :     0.153874
      px      :     0.044132
      py      :     0.036148
      dz2     :     0.008869  d :     0.028367
      dxz     :     0.010159
      dyz     :     0.009003
      dx2y2   :     0.000175
      dxy     :     0.000162
 28 H s       :     0.739023  s :     0.739023
      pz      :     0.107146  p :     0.250073
      px      :     0.098121
      py      :     0.044807
      dz2     :     0.019646  d :     0.061008
      dxz     :     0.015523
      dyz     :     0.011494
      dx2y2   :     0.008648
      dxy     :     0.005697
 29 H s       :     0.747758  s :     0.747758
      pz      :     0.049401  p :     0.253230
      px      :     0.083556
      py      :     0.120273
      dz2     :     0.006100  d :     0.061071
      dxz     :     0.000675
      dyz     :     0.016574
      dx2y2   :     0.015072
      dxy     :     0.022650
 30 H s       :     0.830273  s :     0.830273
      pz      :     0.038955  p :     0.151510
      px      :     0.077918
      py      :     0.034637
      dz2     :     0.003521  d :     0.028732
      dxz     :     0.008578
      dyz     :     0.001628
      dx2y2   :     0.008048
      dxy     :     0.006957
 31 H s       :     0.843572  s :     0.843572
      pz      :     0.061793  p :     0.161846
      px      :     0.041367
      py      :     0.058686
      dz2     :     0.007251  d :     0.027899
      dxz     :     0.005953
      dyz     :     0.006490
      dx2y2   :     0.004045
      dxy     :     0.004161
 32 H s       :     0.846801  s :     0.846801
      pz      :     0.036551  p :     0.154144
      px      :     0.070605
      py      :     0.046988
      dz2     :     0.002876  d :     0.026863
      dxz     :     0.006866
      dyz     :     0.001967
      dx2y2   :     0.007448
      dxy     :     0.007706
 33 H s       :     0.842655  s :     0.842655
      pz      :     0.068281  p :     0.155700
      px      :     0.045733
      py      :     0.041686
      dz2     :     0.008519  d :     0.027388
      dxz     :     0.007744
      dyz     :     0.006087
      dx2y2   :     0.002522
      dxy     :     0.002516
 34 H s       :     0.702105  s :     0.702105
      pz      :     0.087754  p :     0.348742
      px      :     0.166230
      py      :     0.094758
      dz2     :     0.008285  d :     0.098686
      dxz     :     0.032337
      dyz     :     0.000416
      dx2y2   :     0.024010
      dxy     :     0.033638
 35 H s       :     0.843778  s :     0.843778
      pz      :     0.038572  p :     0.161276
      px      :     0.073744
      py      :     0.048960
      dz2     :     0.002826  d :     0.028320
      dxz     :     0.007581
      dyz     :     0.001655
      dx2y2   :     0.008140
      dxy     :     0.008119


                      *****************************
                      * MAYER POPULATION ANALYSIS *
                      *****************************

  NA   - Mulliken gross atomic population
  ZA   - Total nuclear charge
  QA   - Mulliken gross atomic charge
  VA   - Mayer's total valence
  BVA  - Mayer's bonded valence
  FA   - Mayer's free valence

  ATOM       NA         ZA         QA         VA         BVA        FA
  0 C      6.3134     6.0000    -0.3134     3.8644     3.8644     0.0000
  1 C      5.9733     6.0000     0.0267     3.8805     3.8805     0.0000
  2 O      8.3140     8.0000    -0.3140     2.0849     2.0849     0.0000
  3 C      5.5483     6.0000     0.4517     4.2166     4.2166     0.0000
  4 O      8.4339     8.0000    -0.4339     2.0856     2.0856     0.0000
  5 C      6.2004     6.0000    -0.2004     3.6216     3.6216    -0.0000
  6 C      5.8250     6.0000     0.1750     3.8328     3.8328    -0.0000
  7 C      6.3204     6.0000    -0.3204     3.8850     3.8850     0.0000
  8 N      7.1142     7.0000    -0.1142     3.2792     3.2792    -0.0000
  9 C      5.7843     6.0000     0.2157     4.1557     4.1557    -0.0000
 10 S     16.4464    16.0000    -0.4464     1.7584     1.7584    -0.0000
 11 N      7.2134     7.0000    -0.2134     3.2406     3.2406    -0.0000
 12 C      5.9385     6.0000     0.0615     3.9754     3.9754    -0.0000
 13 C      5.9012     6.0000     0.0988     3.6787     3.6787     0.0000
 14 C      6.2474     6.0000    -0.2474     3.8773     3.8773    -0.0000
 15 C      6.1250     6.0000    -0.1250     3.8277     3.8277    -0.0000
 16 C      6.2338     6.0000    -0.2338     3.8254     3.8254    -0.0000
 17 C      5.6866     6.0000     0.3134     3.8518     3.8518    -0.0000
 18 O      8.3616     8.0000    -0.3616     2.1006     2.1006     0.0000
 19 C      6.2929     6.0000    -0.2929     3.8478     3.8478    -0.0000
 20 H      0.9072     1.0000     0.0928     0.9819     0.9819    -0.0000
 21 H      0.8918     1.0000     0.1082     0.9814     0.9814    -0.0000
 22 H      0.8869     1.0000     0.1131     0.9836     0.9836     0.0000
 23 H      0.8988     1.0000     0.1012     0.9731     0.9731    -0.0000
 24 H      0.8939     1.0000     0.1061     0.9813     0.9813     0.0000
 25 H      0.8733     1.0000     0.1267     0.9763     0.9763    -0.0000
 26 H      0.8835     1.0000     0.1165     0.9875     0.9875     0.0000
 27 H      0.8872     1.0000     0.1128     0.9777     0.9777     0.0000
 28 H      0.7999     1.0000     0.2001     1.0222     1.0222    -0.0000
 29 H      0.8034     1.0000     0.1966     1.0175     1.0175     0.0000
 30 H      0.8547     1.0000     0.1453     0.9963     0.9963    -0.0000
 31 H      0.8413     1.0000     0.1587     0.9764     0.9764    -0.0000
 32 H      0.8462     1.0000     0.1538     0.9780     0.9780    -0.0000
 33 H      0.8310     1.0000     0.1690     0.9857     0.9857    -0.0000
 34 H      0.7570     1.0000     0.2430     1.0057     1.0057     0.0000
 35 H      0.8698     1.0000     0.1302     0.9939     0.9939    -0.0000

  Mayer bond orders larger than 0.100000
B(  0-C ,  1-C ) :   0.9534 B(  0-C , 20-H ) :   0.9773 B(  0-C , 21-H ) :   0.9765 
B(  0-C , 22-H ) :   0.9763 B(  1-C ,  2-O ) :   0.9269 B(  1-C , 23-H ) :   0.9865 
B(  1-C , 24-H ) :   0.9814 B(  2-O ,  3-C ) :   1.1640 B(  3-C ,  4-O ) :   1.9845 
B(  3-C ,  5-C ) :   1.0415 B(  5-C ,  6-C ) :   1.6456 B(  5-C , 12-C ) :   0.9925 
B(  6-C ,  7-C ) :   0.9442 B(  6-C ,  8-N ) :   1.1590 B(  7-C , 25-H ) :   0.9614 
B(  7-C , 26-H ) :   0.9747 B(  7-C , 27-H ) :   0.9878 B(  8-N ,  9-C ) :   1.1777 
B(  8-N , 28-H ) :   0.9443 B(  9-C , 10-S ) :   1.6060 B(  9-C , 11-N ) :   1.3184 
B( 11-N , 12-C ) :   0.9585 B( 11-N , 29-H ) :   0.9511 B( 12-C , 13-C ) :   0.9505 
B( 12-C , 30-H ) :   0.9967 B( 13-C , 14-C ) :   1.3851 B( 13-C , 19-C ) :   1.3132 
B( 14-C , 15-C ) :   1.3817 B( 14-C , 31-H ) :   0.9706 B( 15-C , 16-C ) :   1.3957 
B( 15-C , 32-H ) :   0.9768 B( 16-C , 17-C ) :   1.3551 B( 16-C , 33-H ) :   0.9617 
B( 17-C , 18-O ) :   1.0719 B( 17-C , 19-C ) :   1.3699 B( 18-O , 34-H ) :   0.9788 
B( 19-C , 35-H ) :   0.9691 

-------
TIMINGS
-------

Total SCF time: 0 days 1 hours 45 min 41 sec 

Total time                  ....    6341.668 sec
Sum of individual times     ....    6337.921 sec  ( 99.9%)

Fock matrix formation       ....    6326.250 sec  ( 99.8%)
Diagonalization             ....       1.270 sec  (  0.0%)
Density matrix formation    ....       0.189 sec  (  0.0%)
Population analysis         ....       0.180 sec  (  0.0%)
Initial guess               ....       5.429 sec  (  0.1%)
Orbital Transformation      ....       0.000 sec  (  0.0%)
Orbital Orthonormalization  ....       0.000 sec  (  0.0%)
DIIS solution               ....       1.300 sec  (  0.0%)
SOSCF solution              ....       1.934 sec  (  0.0%)

Maximum memory used throughout the entire SCF-calculation: 726.9 MB

------------------------------------------------------------------------------
                                ORCA  MP2 
------------------------------------------------------------------------------

Freezing NCore=48 chemical core electrons

-------------
RI-MP2 ENERGY
-------------
Dimension of the basis                    ...  828
Memory devoted to MP2                     ...  256 MB   
Data format for buffers                   ... DOUBLE
Compression type for matrix containers    ... UNCOMPRESSED
Overall scaling of the MP2 energy         ...   1.000e+00
Calculating two index integrals           ... done (    0.042 sec)
Cholesky decomposition of V**-1           ... done (    0.511 sec)

-----------------
RI-TRANSFORMATION (AUX index driven)
-----------------

Dimension of the orbital-basis         ... 828
Dimension of the aux-basis             ... 2141
Transformation of internal/external MOs...   24-  76 to   77- 827
Number Format for Storage              ... Double (8 Byte)
Integral mode                          ... Direct

First Phase: integral generation and transformation of MO indices
  Aux angular momentum 0               ... done (    4.549 sec)
  Aux angular momentum 1               ... done (    7.703 sec)
  Aux angular momentum 2               ... done (   10.151 sec)
  Aux angular momentum 3               ... done (    8.048 sec)
  Aux angular momentum 4               ... done (    2.783 sec)
Closing buffer VIA ( 0.63 GB; CompressionRatio= 1.00)
  Phase 1 completed in    33.398 sec
Second Phase: sorting and transformation of aux index

IA-Transformation
Memory available                       ... 158 MB 
Max. # MO pairs treated in a batch     ... 11    
# of internal orbitals                 ... 53
# batches for internal orbitals        ... 5
Closing buffer IAV ( 0.63 GB; CompressionRatio= 1.00)
(ia|v) transformation done in    18.338 sec

  Phase 2 completed in    18.345 sec
RI-Integral transformation completed in    51.748 sec
Opening buffers                              ... done

Starting loop over batches of integrals:

Operator 0  - window                       ... ( 24- 76)x( 77-827)
Operator 0  - Memory available             ...   256 MB
Operator 0  - Memory needed per MO         ...  12.3 MB
Operator 0  - Number of orbitals per batch ... 13
Operator 0  - Number of batches            ... 5

OPERATOR  0   PASS   0:  MOs    24 ...   36
  Reading integrals       ... ok
  Internal MO  26
  Internal MO  29
  Internal MO  32
  Internal MO  35
OPERATOR  0   PASS   1:  MOs    37 ...   49
  Reading integrals       ... ok
  Internal MO  38
  Internal MO  41
  Internal MO  44
  Internal MO  47
OPERATOR  0   PASS   2:  MOs    50 ...   62
  Reading integrals       ... ok
  Internal MO  50
  Internal MO  53
  Internal MO  56
  Internal MO  59
  Internal MO  62
OPERATOR  0   PASS   3:  MOs    63 ...   75
  Reading integrals       ... ok
  Internal MO  65
  Internal MO  68
  Internal MO  71
  Internal MO  74
OPERATOR  0   PASS   4:  MOs    76 ...   76
  Reading integrals       ... ok
Time spent in pair loops =    84.004 sec
Deleting buffer (Ka|jb)[aa] ...done

-----------------------------------------------
 RI-MP2 CORRELATION ENERGY:     -3.534522405 Eh
-----------------------------------------------


-------
TIMINGS
-------

Total time                :  136.402 sec
Integral trafo            :   51.766 sec ( 38.0%)
I/O of integrals          :    1.140 sec (  0.8%)
K(i,j) Operators          :   56.739 sec ( 41.6%)
T(i,j) pair energies      :    8.207 sec (  6.0%)
V-calculation             :    0.042 sec (  0.0%)
V**(-1/2)                 :    0.511 sec (  0.4%)
Gamma(ia|P)               :    0.000 sec (  0.0%)
Gamma-Trafo               :    0.000 sec (  0.0%)
D(virtual)                :    0.000 sec (  0.0%)
D(internal)               :    0.000 sec (  0.0%)
W(virtual)                :    0.000 sec (  0.0%)
W(internal)               :    0.000 sec (  0.0%)
L(virtual)                :    0.000 sec (  0.0%)
L(internal)               :    0.000 sec (  0.0%)
G(D)                      :    0.000 sec (  0.0%)
G(Z)                      :    0.000 sec (  0.0%)
Z-Vector Solution         :    0.000 sec (  0.0%)
3-Index Derivative        :    0.000 sec (  0.0%)
2-Index Derivative        :    0.000 sec (  0.0%)
Separable Gradient        :    0.000 sec (  0.0%)


---------------------------------------
MP2 TOTAL ENERGY:    -1274.313856679 Eh
---------------------------------------

Maximum memory used throughout the entire MP2-calculation: 303.5 MB

-------------------------   --------------------
FINAL SINGLE POINT ENERGY     -1274.313856678524
-------------------------   --------------------


                            ***************************************
                            *     ORCA property calculations      *
                            ***************************************


  WARNING: The energy has been calculated at the MP2 level but the densities
           used in the property calculations are still SCF densities
           MP2 response densities have not been calculated 
           use %mp2 Density relaxed end
           or  %mp2 Density unrelaxed end

                                    ---------------------
                                    Active property flags
                                    ---------------------
   (+) Dipole Moment


------------------------------------------------------------------------------
                       ORCA ELECTRIC PROPERTIES CALCULATION
------------------------------------------------------------------------------

Dipole Moment Calculation                       ... on
Quadrupole Moment Calculation                   ... off
Polarizability Calculation                      ... off
GBWName                                         ... qm_input.vacu.gbw
Electron density file                           ... qm_input.vacu.scfp
The origin for moment calculation is the CENTER OF MASS  = ( 3.889127, -0.887512  5.246143)

-------------
DIPOLE MOMENT
-------------
                                X             Y             Z
Electronic contribution:      2.29347      17.06715       4.54986
Nuclear contribution   :     -2.66103     -19.37028      -4.93226
                        -----------------------------------------
Total Dipole Moment    :     -0.36756      -2.30312      -0.38239
                        -----------------------------------------
Magnitude (a.u.)       :      2.36341
Magnitude (Debye)      :      6.00731



--------------------
Rotational spectrum 
--------------------
 
Rotational constants in cm-1:     0.010063     0.009428     0.005556 
Rotational constants in MHz :   301.672983   282.632795   166.554823 

 Dipole components along the rotational axes: 
x,y,z [a.u.] :     1.809067     1.486527    -0.321268 
x,y,z [Debye]:     4.598283     3.778452    -0.816598 

 

Timings for individual modules:

Sum of individual times         ...     6480.442 sec (= 108.007 min)
GTO integral calculation        ...        1.801 sec (=   0.030 min)   0.0 %
SCF iterations                  ...     6341.760 sec (= 105.696 min)  97.9 %
MP2 module                      ...      136.881 sec (=   2.281 min)   2.1 %
                             ****ORCA TERMINATED NORMALLY****
TOTAL RUN TIME: 0 days 1 hours 48 minutes 1 seconds 309 msec
