
                                        *****************
                                        * O   R   C   A *
                                        *****************

                                            #,                                       
                                            ###                                      
                                            ####                                     
                                            #####                                    
                                            ######                                   
                                           ########,                                 
                                     ,,################,,,,,                         
                               ,,#################################,,                 
                          ,,##########################################,,             
                       ,#########################################, ''#####,          
                    ,#############################################,,   '####,        
                  ,##################################################,,,,####,       
                ,###########''''           ''''###############################       
              ,#####''   ,,,,##########,,,,          '''####'''          '####       
            ,##' ,,,,###########################,,,                        '##       
           ' ,,###''''                  '''############,,,                           
         ,,##''                                '''############,,,,        ,,,,,,###''
      ,#''                                            '''#######################'''  
     '                                                          ''''####''''         
             ,#######,   #######,   ,#######,      ##                                
            ,#'     '#,  ##    ##  ,#'     '#,    #''#        ######   ,####,        
            ##       ##  ##   ,#'  ##            #'  '#       #        #'  '#        
            ##       ##  #######   ##           ,######,      #####,   #    #        
            '#,     ,#'  ##    ##  '#,     ,#' ,#      #,         ##   #,  ,#        
             '#######'   ##     ##  '#######'  #'      '#     #####' # '####'        



                  #######################################################
                  #                        -***-                        #
                  #          Department of theory and spectroscopy      #
                  #    Directorship and core code : Frank Neese         #
                  #        Max Planck Institute fuer Kohlenforschung    #
                  #                Kaiser Wilhelm Platz 1               #
                  #                 D-45470 Muelheim/Ruhr               #
                  #                      Germany                        #
                  #                                                     #
                  #                  All rights reserved                #
                  #                        -***-                        #
                  #######################################################


                         Program Version 5.0.0 -  RELEASE  -
                                (SVN: $Rev: 19529$)
                ($Date: 2021-06-28 11:36:33 +0200 (Mo, 28 Jun 2021) $)


 With contributions from (in alphabetic order):
   Daniel Aravena         : Magnetic Suceptibility
   Michael Atanasov       : Ab Initio Ligand Field Theory (pilot matlab implementation)
   Alexander A. Auer      : GIAO ZORA, VPT2 properties, NMR spectrum
   Ute Becker             : Parallelization
   Giovanni Bistoni       : ED, misc. LED, open-shell LED, HFLD
   Martin Brehm           : Molecular dynamics
   Dmytro Bykov           : SCF Hessian
   Vijay G. Chilkuri      : MRCI spin determinant printing, contributions to CSF-ICE
   Dipayan Datta          : RHF DLPNO-CCSD density
   Achintya Kumar Dutta   : EOM-CC, STEOM-CC
   Dmitry Ganyushin       : Spin-Orbit,Spin-Spin,Magnetic field MRCI
   Miquel Garcia          : C-PCM Hessian, Gaussian charge scheme
   Yang Guo               : DLPNO-NEVPT2, F12-NEVPT2, CIM, IAO-localization
   Andreas Hansen         : Spin unrestricted coupled pair/coupled cluster methods
   Benjamin Helmich-Paris : MC-RPA, TRAH-SCF, COSX integrals
   Lee Huntington         : MR-EOM, pCC
   Robert Izsak           : Overlap fitted RIJCOSX, COSX-SCS-MP3, EOM
   Marcus Kettner         : VPT2
   Christian Kollmar      : KDIIS, OOCD, Brueckner-CCSD(T), CCSD density, CASPT2, CASPT2-K
   Simone Kossmann        : Meta GGA functionals, TD-DFT gradient, OOMP2, MP2 Hessian
   Martin Krupicka        : Initial AUTO-CI
   Lucas Lang             : DCDCAS
   Marvin Lechner         : AUTO-CI (C++ implementation), FIC-MRCC
   Dagmar Lenk            : GEPOL surface, SMD
   Dimitrios Liakos       : Extrapolation schemes; Compound Job, initial MDCI parallelization
   Dimitrios Manganas     : Further ROCIS development; embedding schemes
   Dimitrios Pantazis     : SARC Basis sets
   Anastasios Papadopoulos: AUTO-CI, single reference methods and gradients
   Taras Petrenko         : DFT Hessian,TD-DFT gradient, ASA, ECA, R-Raman, ABS, FL, XAS/XES, NRVS
   Peter Pinski           : DLPNO-MP2, DLPNO-MP2 Gradient
   Christoph Reimann      : Effective Core Potentials
   Marius Retegan         : Local ZFS, SOC
   Christoph Riplinger    : Optimizer, TS searches, QM/MM, DLPNO-CCSD(T), (RO)-DLPNO pert. Triples
   Tobias Risthaus        : Range-separated hybrids, TD-DFT gradient, RPA, STAB
   Michael Roemelt        : Original ROCIS implementation
   Masaaki Saitow         : Open-shell DLPNO-CCSD energy and density
   Barbara Sandhoefer     : DKH picture change effects
   Avijit Sen             : IP-ROCIS
   Kantharuban Sivalingam : CASSCF convergence, NEVPT2, FIC-MRCI
   Bernardo de Souza      : ESD, SOC TD-DFT
   Georgi Stoychev        : AutoAux, RI-MP2 NMR
   Willem Van den Heuvel  : Paramagnetic NMR
   Boris Wezisla          : Elementary symmetry handling
   Frank Wennmohs         : Technical directorship


 We gratefully acknowledge several colleagues who have allowed us to
 interface, adapt or use parts of their codes:
   Stefan Grimme, W. Hujo, H. Kruse, P. Pracht,  : VdW corrections, initial TS optimization,
                  C. Bannwarth, S. Ehlert          DFT functionals, gCP, sTDA/sTD-DF
   Ed Valeev, F. Pavosevic, A. Kumar             : LibInt (2-el integral package), F12 methods
   Garnet Chan, S. Sharma, J. Yang, R. Olivares  : DMRG
   Ulf Ekstrom                                   : XCFun DFT Library
   Mihaly Kallay                                 : mrcc  (arbitrary order and MRCC methods)
   Jiri Pittner, Ondrej Demel                    : Mk-CCSD
   Frank Weinhold                                : gennbo (NPA and NBO analysis)
   Christopher J. Cramer and Donald G. Truhlar   : smd solvation model
   Lars Goerigk                                  : TD-DFT with DH, B97 family of functionals
   V. Asgeirsson, H. Jonsson                     : NEB implementation
   FAccTs GmbH                                   : IRC, NEB, NEB-TS, DLPNO-Multilevel, CI-OPT
                                                   MM, QMMM, 2- and 3-layer-ONIOM, Crystal-QMMM,
                                                   LR-CPCM, SF, NACMEs, symmetry and pop. for TD-DFT,
                                                   nearIR, NL-DFT gradient (VV10), updates on ESD,
                                                   ML-optimized integration grids
   S Lehtola, MJT Oliveira, MAL Marques          : LibXC Library
   Liviu Ungur et al                             : ANISO software


 Your calculation uses the libint2 library for the computation of 2-el integrals
 For citations please refer to: http://libint.valeyev.net

 Your ORCA version has been built with support for libXC version: 5.1.0
 For citations please refer to: https://tddft.org/programs/libxc/

 This ORCA versions uses:
   CBLAS   interface :  Fast vector & matrix operations
   LAPACKE interface :  Fast linear algebra routines
   SCALAPACK package :  Parallel linear algebra routines
   Shared memory     :  Shared parallel matrices
   BLAS/LAPACK       :  OpenBLAS 0.3.15  USE64BITINT DYNAMIC_ARCH NO_AFFINITY SkylakeX SINGLE_THREADED
        Core in use  :  SkylakeX
   Copyright (c) 2011-2014, The OpenBLAS Project


================================================================================

----- Orbital basis set information -----
Your calculation utilizes the basis: cc-pVTZ 
       H, B-Ne : Obtained from the ccRepo (grant-hill.group.shef.ac.uk/ccrepo) Feb. 2017
                 T. H. Dunning, Jr., J. Chem. Phys. 90, 1007 (1989)
            He : Obtained from the ccRepo (grant-hill.group.shef.ac.uk/ccrepo) Feb. 2017
                 D. E. Woon, T. H. Dunning, Jr., J. Chem. Phys. 100, 2975 (1994)
  Li-Be, Na-Mg : Obtained from the ccRepo (grant-hill.group.shef.ac.uk/ccrepo) Feb. 2017
                 B. P. Prascher, D. E. Woon, K. A. Peterson, T. H. Dunning, Jr., A. K. Wilson, Theor. Chem. Acc. 128, 69 (2011)
         Al-Ar : Obtained from the ccRepo (grant-hill.group.shef.ac.uk/ccrepo) Feb. 2017
                 D. E. Woon, T. H. Dunning, Jr., J. Chem. Phys. 98, 1358 (1993)
            Ca : Obtained from the Peterson Research Group Website (tyr0.chem.wsu.edu/~kipeters) Feb. 2017
                 J. Koput, K. A. Peterson, J. Phys. Chem. 106, 9595 (2002)
         Sc-Zn : Obtained from the ccRepo (grant-hill.group.shef.ac.uk/ccrepo) Feb. 2017
                 N. B. Balabanov, K. A. Peterson, J. Chem. Phys. 123, 064107 (2005)
                 N. B. Balabanov, K. A. Peterson, J. Chem. Phys. 125, 074110 (2006)
         Ga-Kr : Obtained from the ccRepo (grant-hill.group.shef.ac.uk/ccrepo) Feb. 2017
                 A. K. Wilson, D. E. Woon, K. A. Peterson, T. H. Dunning, Jr., J. Chem. Phys. 110, 7667 (1999)
             Y : Obtained from the ccRepo (grant-hill.group.shef.ac.uk/ccrepo) Feb. 2017
                 K. A. Peterson, D. Figgen, M. Dolg, H. Stoll, J. Chem. Phys. 126, 124101 (2007)
        Ag, Au : Obtained from the Peterson Research Group Website (tyr0.chem.wsu.edu/~kipeters) Feb. 2017
                 K. A. Peterson, C. Puzzarini, Theor. Chem. Acc. 114, 283 (2005)

----- AuxC basis set information -----
Your calculation utilizes the auxiliary basis: cc-pVTZ/C 
  Obtained from the EMSL Basis Set Exchange (bse.pnl.gov) Feb. 2017
  H-He, B-F, Al-Ar, Ga-Kr : F. Weigend, A. Kohn, C. Hattig, J. Chem. Phys. 116, 3175 (2002)
             Li-Be, Na-Mg : C. Haettig, Phys. Chem. Chem. Phys. 7, 59 (2005)
                       Ne : C. Haettig, Phys. Chem. Chem. Phys. 7, 59 (2005)
                            F. Weigend, A. Kohn, C. Hattig, J. Chem. Phys. 116, 3175 (2002)
                    Sc-Zn : J. G. Hill, J. A. Platts, J. Chem. Phys. 128, 044104 (2008)

================================================================================
                                        WARNINGS
                       Please study these warnings very carefully!
================================================================================


WARNING: No MP2 level density has been requested!
         To caclulate MP2 level properties use
         %mp2 Density relaxed end
         or
         %mp2 Density unrelaxed end

WARNING: Post HF methods need fully converged wavefunctions
  ===> : Setting SCFConvForced true
         You can overwrite this default with %scf ConvForced false 


INFO   : the flag for use of the SHARK integral package has been found!

================================================================================
                                       INPUT FILE
================================================================================
NAME = qm_input.vacu
|  1> ! RI-MP2 cc-pVTZ cc-pVTZ/c TightSCF KeepDens NoKeepInts
|  2> 
|  3> *xyz  0  1
|  4>     C   -11.2244410   15.3354997    6.6097332
|  5>     C   -10.4123471   14.0873831    6.9705889
|  6>     O    -9.3028236   13.9580809    6.0750255
|  7>     C    -8.3967893   12.8799373    6.0808734
|  8>     O    -8.3300391   12.2284466    7.0931721
|  9>     C    -7.3078532   12.9881623    5.0635985
| 10>     C    -7.4453705   13.4901007    3.8548862
| 11>     C    -8.6741129   13.8328211    3.1050135
| 12>     N    -6.3556046   13.5456357    3.0180625
| 13>     C    -5.2500264   12.8188497    3.1986459
| 14>     S    -3.9698056   12.6911229    2.1187318
| 15>     N    -5.1049394   12.3378668    4.5159409
| 16>     C    -6.0465859   12.4737290    5.5721951
| 17>     C    -5.3481247   13.4493366    6.4748082
| 18>     C    -5.0102252   13.0547111    7.7957517
| 19>     C    -4.3595932   14.0140439    8.6457522
| 20>     C    -3.9660317   15.2993476    8.1581400
| 21>     C    -4.3146124   15.6690209    6.8519567
| 22>     O    -4.0445999   16.8607612    6.3105717
| 23>     C    -5.0252388   14.7857657    6.0243235
| 24>     H   -10.5730649   16.2157497    6.5460197
| 25>     H   -11.9863169   15.5325573    7.3738686
| 26>     H   -11.7342533   15.1021642    5.6669499
| 27>     H    -9.9785816   14.0836791    7.9780726
| 28>     H   -10.9197874   13.1192168    6.8792172
| 29>     H    -8.7647292   13.0345220    2.3582269
| 30>     H    -8.6169543   14.8296758    2.6509174
| 31>     H    -9.5584405   13.8482069    3.7538036
| 32>     H    -6.5865188   13.8829924    2.0913268
| 33>     H    -4.2007652   11.9811588    4.8008930
| 34>     H    -6.2041392   11.5012526    6.0545396
| 35>     H    -5.4108855   12.1156113    8.1658312
| 36>     H    -4.1310069   13.7968871    9.6849766
| 37>     H    -3.3832801   15.9797573    8.7720153
| 38>     H    -4.3694192   16.7863935    5.3964102
| 39>     H    -5.4594080   15.1219593    5.0873779
| 40> *
| 41> 
| 42>                          ****END OF INPUT****
================================================================================

                       ****************************
                       * Single Point Calculation *
                       ****************************

---------------------------------
CARTESIAN COORDINATES (ANGSTROEM)
---------------------------------
  C    -11.224441   15.335500    6.609733
  C    -10.412347   14.087383    6.970589
  O     -9.302824   13.958081    6.075025
  C     -8.396789   12.879937    6.080873
  O     -8.330039   12.228447    7.093172
  C     -7.307853   12.988162    5.063599
  C     -7.445371   13.490101    3.854886
  C     -8.674113   13.832821    3.105014
  N     -6.355605   13.545636    3.018063
  C     -5.250026   12.818850    3.198646
  S     -3.969806   12.691123    2.118732
  N     -5.104939   12.337867    4.515941
  C     -6.046586   12.473729    5.572195
  C     -5.348125   13.449337    6.474808
  C     -5.010225   13.054711    7.795752
  C     -4.359593   14.014044    8.645752
  C     -3.966032   15.299348    8.158140
  C     -4.314612   15.669021    6.851957
  O     -4.044600   16.860761    6.310572
  C     -5.025239   14.785766    6.024323
  H    -10.573065   16.215750    6.546020
  H    -11.986317   15.532557    7.373869
  H    -11.734253   15.102164    5.666950
  H     -9.978582   14.083679    7.978073
  H    -10.919787   13.119217    6.879217
  H     -8.764729   13.034522    2.358227
  H     -8.616954   14.829676    2.650917
  H     -9.558440   13.848207    3.753804
  H     -6.586519   13.882992    2.091327
  H     -4.200765   11.981159    4.800893
  H     -6.204139   11.501253    6.054540
  H     -5.410886   12.115611    8.165831
  H     -4.131007   13.796887    9.684977
  H     -3.383280   15.979757    8.772015
  H     -4.369419   16.786393    5.396410
  H     -5.459408   15.121959    5.087378

----------------------------
CARTESIAN COORDINATES (A.U.)
----------------------------
  NO LB      ZA    FRAG     MASS         X           Y           Z
   0 C     6.0000    0    12.011  -21.211119   28.979895   12.490586
   1 C     6.0000    0    12.011  -19.676484   26.621296   13.172504
   2 O     8.0000    0    15.999  -17.579789   26.376950   11.480134
   3 C     6.0000    0    12.011  -15.867632   24.339554   11.491185
   4 O     8.0000    0    15.999  -15.741493   23.108415   13.404153
   5 C     6.0000    0    12.011  -13.809841   24.544070    9.568814
   6 C     6.0000    0    12.011  -14.069711   25.492596    7.284679
   7 C     6.0000    0    12.011  -16.391698   26.140244    5.867625
   8 N     7.0000    0    14.007  -12.010352   25.597542    5.703312
   9 C     6.0000    0    12.011   -9.921112   24.224115    6.044565
  10 S    16.0000    0    32.060   -7.501845   23.982747    4.003823
  11 N     7.0000    0    14.007   -9.646937   23.315189    8.533892
  12 C     6.0000    0    12.011  -11.426391   23.571932   10.529923
  13 C     6.0000    0    12.011  -10.106491   25.415563   12.235614
  14 C     6.0000    0    12.011   -9.467953   24.669829   14.731836
  15 C     6.0000    0    12.011   -8.238437   26.482705   16.338104
  16 C     6.0000    0    12.011   -7.494714   28.911577   15.416650
  17 C     6.0000    0    12.011   -8.153436   29.610158   12.948322
  18 O     8.0000    0    15.999   -7.643186   31.862221   11.925252
  19 C     6.0000    0    12.011   -9.496325   27.941048   11.384322
  20 H     1.0000    0     1.008  -19.980197   30.643326   12.370185
  21 H     1.0000    0     1.008  -22.650856   29.352279   13.934592
  22 H     1.0000    0     1.008  -22.174525   28.538954   10.708983
  23 H     1.0000    0     1.008  -18.856786   26.614296   15.076372
  24 H     1.0000    0     1.008  -20.635408   24.791727   12.999837
  25 H     1.0000    0     1.008  -16.562938   24.631677    4.456403
  26 H     1.0000    0     1.008  -16.283684   28.024026    5.009508
  27 H     1.0000    0     1.008  -18.062835   26.169318    7.093661
  28 H     1.0000    0     1.008  -12.446717   26.235054    3.952035
  29 H     1.0000    0     1.008   -7.938296   22.641109    9.072373
  30 H     1.0000    0     1.008  -11.724124   21.734218   11.441422
  31 H     1.0000    0     1.008  -10.225092   22.895187   15.431185
  32 H     1.0000    0     1.008   -7.806472   26.072338   18.301953
  33 H     1.0000    0     1.008   -6.393473   30.197365   16.576707
  34 H     1.0000    0     1.008   -8.257006   31.721686   10.197737
  35 H     1.0000    0     1.008  -10.316786   28.576362    9.613751

--------------------------------
INTERNAL COORDINATES (ANGSTROEM)
--------------------------------
 C      0   0   0     0.000000000000     0.00000000     0.00000000
 C      1   0   0     1.532158081216     0.00000000     0.00000000
 O      2   1   0     1.431710606022   109.69439099     0.00000000
 C      3   2   1     1.408306065077   124.41033421   183.66249413
 O      4   3   2     1.205671754421   116.92212292   339.57724156
 C      4   3   2     1.494102641279   114.24303580   181.08833918
 C      6   4   3     1.315993385001   125.22744080   323.64883005
 C      7   6   4     1.479720995438   129.83411820   347.70412385
 N      7   6   4     1.375117361504   119.44110664   179.25796474
 C      9   7   6     1.335339436423   123.49436734    18.28616919
 S     10   9   7     1.679730304415   125.83571393   171.75202515
 N     10   9   7     1.409844283844   113.40595074   340.19329368
 C     12  10   9     1.421558863842   126.40405080     5.08278670
 C     13  12  10     1.501455508956   101.57400419   250.06635844
 C     14  13  12     1.419435481994   119.31016358   241.39466500
 C     15  14  13     1.437408178139   118.19759399   180.89509665
 C     16  15  14     1.429916750411   121.52279393   355.32838422
 C     17  16  15     1.401528332337   119.10706278     4.96500109
 O     18  17  16     1.336506420121   124.22641304   177.35675867
 C     18  17  16     1.403604767179   120.62887897   359.17467551
 H      1   2   3     1.096900312806   110.64931078   308.04059516
 H      1   2   3     1.096899947238   110.51295954   188.48347236
 H      1   2   3     1.096902177749   105.99115310    71.34522914
 H      2   1   3     1.096900011109   115.38335036   118.98823066
 H      2   1   3     1.096900373817   117.01284077   243.08051184
 H      8   7   6     1.096896983689   104.18495482   254.46524482
 H      8   7   6     1.096900025755   112.14845754   132.43551135
 H      8   7   6     1.096905019052   111.89894988    13.58020102
 H      9   7   6     1.012901756564   112.92734786   175.61932315
 H     12  10   9     1.012901416972   118.35043869   194.99356748
 H     13  12  10     1.096899998896   109.70311567   131.13485761
 H     15  14  13     1.085999975450   118.01558808   350.20744664
 H     16  15  14     1.086000057960   121.84967000   176.09074369
 H     17  16  15     1.086001690195   121.20468504   186.49864618
 H     19  18  17     0.973000195549   104.18083033   177.22814026
 H     20  18  17     1.086000040639   121.08574407   168.48799236

---------------------------
INTERNAL COORDINATES (A.U.)
---------------------------
 C      0   0   0     0.000000000000     0.00000000     0.00000000
 C      1   0   0     2.895359167372     0.00000000     0.00000000
 O      2   1   0     2.705540948413   109.69439099     0.00000000
 C      3   2   1     2.661312775735   124.41033421   183.66249413
 O      4   3   2     2.278389423260   116.92212292   339.57724156
 C      4   3   2     2.823444807987   114.24303580   181.08833918
 C      6   4   3     2.486867091703   125.22744080   323.64883005
 C      7   6   4     2.796267435991   129.83411820   347.70412385
 N      7   6   4     2.598595215243   119.44110664   179.25796474
 C      9   7   6     2.523425830664   123.49436734    18.28616919
 S     10   9   7     3.174230254192   125.83571393   171.75202515
 N     10   9   7     2.664219587939   113.40595074   340.19329368
 C     12  10   9     2.686356935910   126.40405080     5.08278670
 C     13  12  10     2.837339714194   101.57400419   250.06635844
 C     14  13  12     2.682344325739   119.31016358   241.39466500
 C     15  14  13     2.716307799341   118.19759399   180.89509665
 C     16  15  14     2.702151052583   121.52279393   355.32838422
 C     17  16  15     2.648504717049   119.10706278     4.96500109
 O     18  17  16     2.525631110257   124.22641304   177.35675867
 C     18  17  16     2.652428610234   120.62887897   359.17467551
 H      1   2   3     2.072841187416   110.64931078   308.04059516
 H      1   2   3     2.072840496593   110.51295954   188.48347236
 H      1   2   3     2.072844711647   105.99115310    71.34522914
 H      2   1   3     2.072840617292   115.38335036   118.98823066
 H      2   1   3     2.072841302711   117.01284077   243.08051184
 H      8   7   6     2.072834896297   104.18495482   254.46524482
 H      8   7   6     2.072840644968   112.14845754   132.43551135
 H      8   7   6     2.072850080932   111.89894988    13.58020102
 H      9   7   6     1.914106920474   112.92734786   175.61932315
 H     12  10   9     1.914106278738   118.35043869   194.99356748
 H     13  12  10     2.072840594212   109.70311567   131.13485761
 H     15  14  13     2.052242535045   118.01558808   350.20744664
 H     16  15  14     2.052242690967   121.84967000   176.09074369
 H     17  16  15     2.052245775444   121.20468504   186.49864618
 H     19  18  17     1.838703897839   104.18083033   177.22814026
 H     20  18  17     2.052242658236   121.08574407   168.48799236

---------------------
BASIS SET INFORMATION
---------------------
There are 5 groups of distinct atoms

 Group   1 Type C   : 18s5p2d1f contracted to 4s3p2d1f pattern {8811/311/11/1}
 Group   2 Type O   : 18s5p2d1f contracted to 4s3p2d1f pattern {8811/311/11/1}
 Group   3 Type N   : 18s5p2d1f contracted to 4s3p2d1f pattern {8811/311/11/1}
 Group   4 Type S   : 41s16p2d1f contracted to 5s4p2d1f pattern {13131311/7711/11/1}
 Group   5 Type H   : 5s2p1d contracted to 3s2p1d pattern {311/11/1}

Atom   0C    basis set group =>   1
Atom   1C    basis set group =>   1
Atom   2O    basis set group =>   2
Atom   3C    basis set group =>   1
Atom   4O    basis set group =>   2
Atom   5C    basis set group =>   1
Atom   6C    basis set group =>   1
Atom   7C    basis set group =>   1
Atom   8N    basis set group =>   3
Atom   9C    basis set group =>   1
Atom  10S    basis set group =>   4
Atom  11N    basis set group =>   3
Atom  12C    basis set group =>   1
Atom  13C    basis set group =>   1
Atom  14C    basis set group =>   1
Atom  15C    basis set group =>   1
Atom  16C    basis set group =>   1
Atom  17C    basis set group =>   1
Atom  18O    basis set group =>   2
Atom  19C    basis set group =>   1
Atom  20H    basis set group =>   5
Atom  21H    basis set group =>   5
Atom  22H    basis set group =>   5
Atom  23H    basis set group =>   5
Atom  24H    basis set group =>   5
Atom  25H    basis set group =>   5
Atom  26H    basis set group =>   5
Atom  27H    basis set group =>   5
Atom  28H    basis set group =>   5
Atom  29H    basis set group =>   5
Atom  30H    basis set group =>   5
Atom  31H    basis set group =>   5
Atom  32H    basis set group =>   5
Atom  33H    basis set group =>   5
Atom  34H    basis set group =>   5
Atom  35H    basis set group =>   5
---------------------------------
AUXILIARY/C BASIS SET INFORMATION
---------------------------------
There are 5 groups of distinct atoms

 Group   1 Type C   : 8s6p5d3f1g contracted to 8s6p5d3f1g pattern {11111111/111111/11111/111/1}
 Group   2 Type O   : 8s6p5d3f1g contracted to 8s6p5d3f1g pattern {11111111/111111/11111/111/1}
 Group   3 Type N   : 8s6p5d3f1g contracted to 8s6p5d3f1g pattern {11111111/111111/11111/111/1}
 Group   4 Type S   : 10s8p7d5f2g contracted to 10s8p7d5f2g pattern {1111111111/11111111/1111111/11111/11}
 Group   5 Type H   : 4s3p2d1f contracted to 4s3p2d1f pattern {1111/111/11/1}

Atom   0C    basis set group =>   1
Atom   1C    basis set group =>   1
Atom   2O    basis set group =>   2
Atom   3C    basis set group =>   1
Atom   4O    basis set group =>   2
Atom   5C    basis set group =>   1
Atom   6C    basis set group =>   1
Atom   7C    basis set group =>   1
Atom   8N    basis set group =>   3
Atom   9C    basis set group =>   1
Atom  10S    basis set group =>   4
Atom  11N    basis set group =>   3
Atom  12C    basis set group =>   1
Atom  13C    basis set group =>   1
Atom  14C    basis set group =>   1
Atom  15C    basis set group =>   1
Atom  16C    basis set group =>   1
Atom  17C    basis set group =>   1
Atom  18O    basis set group =>   2
Atom  19C    basis set group =>   1
Atom  20H    basis set group =>   5
Atom  21H    basis set group =>   5
Atom  22H    basis set group =>   5
Atom  23H    basis set group =>   5
Atom  24H    basis set group =>   5
Atom  25H    basis set group =>   5
Atom  26H    basis set group =>   5
Atom  27H    basis set group =>   5
Atom  28H    basis set group =>   5
Atom  29H    basis set group =>   5
Atom  30H    basis set group =>   5
Atom  31H    basis set group =>   5
Atom  32H    basis set group =>   5
Atom  33H    basis set group =>   5
Atom  34H    basis set group =>   5
Atom  35H    basis set group =>   5
------------------------------------------------------------------------------
                           ORCA GTO INTEGRAL CALCULATION
------------------------------------------------------------------------------
------------------------------------------------------------------------------
                   ___                                                        
                  /   \      - P O W E R E D   B Y -                         
                 /     \                                                     
                 |  |  |   _    _      __       _____    __    __             
                 |  |  |  | |  | |    /  \     |  _  \  |  |  /  |          
                  \  \/   | |  | |   /    \    | | | |  |  | /  /          
                 / \  \   | |__| |  /  /\  \   | |_| |  |  |/  /          
                |  |  |   |  __  | /  /__\  \  |    /   |      \           
                |  |  |   | |  | | |   __   |  |    \   |  |\   \          
                \     /   | |  | | |  |  |  |  | |\  \  |  | \   \       
                 \___/    |_|  |_| |__|  |__|  |_| \__\ |__|  \__/        
                                                                              
                      - O R C A' S   B I G   F R I E N D -                    
                                      &                                       
                       - I N T E G R A L  F E E D E R -                       
                                                                              
 v1 FN, 2020, v2 2021                                                         
------------------------------------------------------------------------------


Reading SHARK input file qm_input.vacu.SHARKINP.tmp ... ok
----------------------
SHARK INTEGRAL PACKAGE
----------------------

Number of atoms                             ...     36
Number of basis functions                   ...    828
Number of shells                            ...    298
Maximum angular momentum                    ...      3
Integral batch strategy                     ... SHARK/LIBINT Hybrid
RI-J (if used) integral strategy            ... SPLIT-RIJ (Revised 2003 algorithm where possible)
Printlevel                                  ...      1
Contraction scheme used                     ... SEGMENTED contraction
Coulomb Range Separation                    ... NOT USED
Exchange Range Separation                   ... NOT USED
Finite Nucleus Model                        ... NOT USED
Auxiliary Coulomb fitting basis             ... NOT available
Auxiliary J/K fitting basis                 ... NOT available
Auxiliary Correlation fitting basis         ... AVAILABLE
   # of basis functions in Aux-C            ...   2141
   # of shells in Aux-C                     ...    629
   Maximum angular momentum in Aux-C        ...      4
Auxiliary 'external' fitting basis          ... NOT available
Integral threshold                          ...     2.500000e-11
Primitive cut-off                           ...     2.500000e-12
Primitive pair pre-selection threshold      ...     2.500000e-12

Calculating pre-screening integrals         ... done (  0.6 sec) Dimension = 298
Organizing shell pair data                  ... done (  0.4 sec)
Shell pair information
Total number of shell pairs                 ...     44551
Shell pairs after pre-screening             ...     32735
Total number of primitive shell pairs       ...    234348
Primitive shell pairs kept                  ...     94613
          la=0 lb=0:   6553 shell pairs
          la=1 lb=0:   9110 shell pairs
          la=1 lb=1:   3219 shell pairs
          la=2 lb=0:   5227 shell pairs
          la=2 lb=1:   3582 shell pairs
          la=2 lb=2:   1011 shell pairs
          la=3 lb=0:   1884 shell pairs
          la=3 lb=1:   1284 shell pairs
          la=3 lb=2:    721 shell pairs
          la=3 lb=3:    144 shell pairs

Calculating one electron integrals          ... done (  0.4 sec)
Calculating RI/C V-Matrix + Cholesky decomp.... done (  0.4 sec)
Calculating Nuclear repulsion               ... done (  0.0 sec) ENN=   1703.024383871445 Eh

SHARK setup successfully completed in   1.9 seconds

Maximum memory used throughout the entire GTOINT-calculation: 485.1 MB
-------------------------------------------------------------------------------
                                 ORCA SCF
-------------------------------------------------------------------------------

------------
SCF SETTINGS
------------
Hamiltonian:
 Ab initio Hamiltonian  Method          .... Hartree-Fock(GTOs)


General Settings:
 Integral files         IntName         .... qm_input.vacu
 Hartree-Fock type      HFTyp           .... RHF
 Total Charge           Charge          ....    0
 Multiplicity           Mult            ....    1
 Number of Electrons    NEL             ....  154
 Basis Dimension        Dim             ....  828
 Nuclear Repulsion      ENuc            ....   1703.0243838714 Eh

Convergence Acceleration:
 DIIS                   CNVDIIS         .... on
   Start iteration      DIISMaxIt       ....    12
   Startup error        DIISStart       ....  0.200000
   # of expansion vecs  DIISMaxEq       ....     5
   Bias factor          DIISBfac        ....   1.050
   Max. coefficient     DIISMaxC        ....  10.000
 Trust-Rad. Augm. Hess. CNVTRAH         .... auto
   Auto Start mean grad. ratio tolernc. ....  1.125000
   Auto Start start iteration           ....    20
   Auto Start num. interpolation iter.  ....    10
   Max. Number of Micro iterations      ....    16
   Max. Number of Macro iterations      .... Maxiter - #DIIS iter
   Number of Davidson start vectors     ....     2
   Converg. threshold I  (grad. norm)   ....   1.000e-05
   Converg. threshold II (energy diff.) ....   1.000e-08
   Grad. Scal. Fac. for Micro threshold ....   0.100
   Minimum threshold for Micro iter.    ....   0.010
   NR start threshold (gradient norm)   ....   0.001
   Initial trust radius                 ....   0.400
   Minimum AH scaling param. (alpha)    ....   1.000
   Maximum AH scaling param. (alpha)    .... 1000.000
   Orbital update algorithm             .... Taylor
   White noise on init. David. guess    .... on
   Maximum white noise                  ....   0.010
   Quad. conv. algorithm                .... NR
 SOSCF                  CNVSOSCF        .... on
   Start iteration      SOSCFMaxIt      ....   150
   Startup grad/error   SOSCFStart      ....  0.003300
 Level Shifting         CNVShift        .... on
   Level shift para.    LevelShift      ....    0.2500
   Turn off err/grad.   ShiftErr        ....    0.0010
 Zerner damping         CNVZerner       .... off
 Static damping         CNVDamp         .... on
   Fraction old density DampFac         ....    0.7000
   Max. Damping (<1)    DampMax         ....    0.9800
   Min. Damping (>=0)   DampMin         ....    0.0000
   Turn off err/grad.   DampErr         ....    0.1000
 Fernandez-Rico         CNVRico         .... off

SCF Procedure:
 Maximum # iterations   MaxIter         ....   125
 SCF integral mode      SCFMode         .... Direct
   Integral package                     .... SHARK and LIBINT hybrid scheme
 Reset frequency        DirectResetFreq ....    20
 Integral Threshold     Thresh          ....  2.500e-11 Eh
 Primitive CutOff       TCut            ....  2.500e-12 Eh

Convergence Tolerance:
 Convergence Check Mode ConvCheckMode   .... Total+1el-Energy
 Convergence forced     ConvForced      .... 1
 Energy Change          TolE            ....  1.000e-08 Eh
 1-El. energy change                    ....  1.000e-05 Eh
 Orbital Gradient       TolG            ....  1.000e-05
 Orbital Rotation angle TolX            ....  1.000e-05
 DIIS Error             TolErr          ....  5.000e-07


Diagonalization of the overlap matrix:
Smallest eigenvalue                        ... 3.995e-05
Time for diagonalization                   ...    0.151 sec
Threshold for overlap eigenvalues          ... 1.000e-08
Number of eigenvalues below threshold      ... 0
Time for construction of square roots      ...    0.061 sec
Total time needed                          ...    0.214 sec

Time for model grid setup =    1.551 sec

------------------------------
INITIAL GUESS: MODEL POTENTIAL
------------------------------
Loading Hartree-Fock densities                     ... done
Calculating cut-offs                               ... done
Initializing the effective Hamiltonian             ... done
Setting up the integral package (SHARK)            ... done
Starting the Coulomb interaction                   ... done (   4.4 sec)
Reading the grid                                   ... done
Mapping shells                                     ... done
Starting the XC term evaluation                    ... done (   1.6 sec)
Transforming the Hamiltonian                       ... done (   0.1 sec)
Diagonalizing the Hamiltonian                      ... done (   0.2 sec)
Back transforming the eigenvectors                 ... done (   0.0 sec)
Now organizing SCF variables                       ... done
                      ------------------
                      INITIAL GUESS DONE (   7.9 sec)
                      ------------------
--------------
SCF ITERATIONS
--------------
ITER       Energy         Delta-E        Max-DP      RMS-DP      [F,P]     Damp
               ***  Starting incremental Fock matrix formation  ***
  0  -1269.9626297365   0.000000000000 0.05294574  0.00046475  0.2989665 0.7000
  1  -1270.2319623390  -0.269332602483 0.04665883  0.00037922  0.1730245 0.7000
                               ***Turning on DIIS***
  2  -1270.3998022109  -0.167839871865 0.02652171  0.00025315  0.1095093 0.7000
  3  -1272.5363045847  -2.136502373835 0.06293298  0.00053977  0.0827233 0.0000
  4  -1270.7123255134   1.823979071287 0.01597628  0.00010734  0.0072614 0.0000
  5  -1270.7711949303  -0.058869416903 0.00470252  0.00005517  0.0039799 0.0000
                      *** Initiating the SOSCF procedure ***
                           *** Shutting down DIIS ***
                      *** Re-Reading the Fockian *** 
                      *** Removing any level shift *** 
ITER      Energy       Delta-E        Grad      Rot      Max-DP    RMS-DP
  6  -1270.75123498   0.0199599470  0.001953  0.001953  0.002129  0.000028
               *** Restarting incremental Fock matrix formation ***
  7  -1270.76476223  -0.0135272495  0.001029  0.002509  0.001397  0.000017
  8  -1270.76481475  -0.0000525140  0.000481  0.003080  0.001617  0.000019
  9  -1270.76483593  -0.0000211805  0.000170  0.000371  0.000401  0.000005
 10  -1270.76483861  -0.0000026847  0.000051  0.000135  0.000142  0.000002
 11  -1270.76483889  -0.0000002824  0.000030  0.000137  0.000067  0.000001
 12  -1270.76483898  -0.0000000825  0.000013  0.000038  0.000034  0.000000
 13  -1270.76483898  -0.0000000036  0.000004  0.000013  0.000010  0.000000
                  ***Gradient check signals convergence***
              ***Rediagonalizing the Fockian in SOSCF/NRSCF***

               *****************************************************
               *                     SUCCESS                       *
               *           SCF CONVERGED AFTER  14 CYCLES          *
               *****************************************************


----------------
TOTAL SCF ENERGY
----------------

Total Energy       :        -1270.76483897 Eh          -34579.26924 eV

Components:
Nuclear Repulsion  :         1703.02438387 Eh           46341.64945 eV
Electronic Energy  :        -2973.78922285 Eh          -80920.91869 eV
One Electron Energy:        -5126.76763653 Eh         -139506.43976 eV
Two Electron Energy:         2152.97841369 Eh           58585.52107 eV

Virial components:
Potential Energy   :        -2540.11833383 Eh          -69120.13386 eV
Kinetic Energy     :         1269.35349485 Eh           34540.86462 eV
Virial Ratio       :            2.00111186


---------------
SCF CONVERGENCE
---------------

  Last Energy change         ...    6.3537e-09  Tolerance :   1.0000e-08
  Last MAX-Density change    ...    3.1946e-06  Tolerance :   1.0000e-07
  Last RMS-Density change    ...    4.8653e-08  Tolerance :   5.0000e-09
  Last Orbital Gradient      ...    1.6361e-06  Tolerance :   1.0000e-05
  Last Orbital Rotation      ...    8.3281e-06  Tolerance :   1.0000e-05

             **** THE GBW FILE WAS UPDATED (qm_input.vacu.gbw) ****
             **** DENSITY qm_input.vacu.scfp WAS UPDATED ****
             **** ENERGY FILE WAS UPDATED (qm_input.vacu.en.tmp) ****
             **** THE GBW FILE WAS UPDATED (qm_input.vacu.gbw) ****
             **** DENSITY qm_input.vacu.scfp WAS UPDATED ****
----------------
ORBITAL ENERGIES
----------------

  NO   OCC          E(Eh)            E(eV) 
   0   2.0000     -91.894466     -2500.5755 
   1   2.0000     -20.593121      -560.3673 
   2   2.0000     -20.588130      -560.2315 
   3   2.0000     -20.557361      -559.3942 
   4   2.0000     -15.635059      -425.4516 
   5   2.0000     -15.600482      -424.5107 
   6   2.0000     -11.400472      -310.2226 
   7   2.0000     -11.392500      -310.0057 
   8   2.0000     -11.327174      -308.2281 
   9   2.0000     -11.310351      -307.7703 
  10   2.0000     -11.295350      -307.3621 
  11   2.0000     -11.294260      -307.3324 
  12   2.0000     -11.264339      -306.5183 
  13   2.0000     -11.260535      -306.4147 
  14   2.0000     -11.260298      -306.4083 
  15   2.0000     -11.257493      -306.3320 
  16   2.0000     -11.240195      -305.8613 
  17   2.0000     -11.237663      -305.7924 
  18   2.0000     -11.237589      -305.7903 
  19   2.0000     -11.237237      -305.7808 
  20   2.0000      -8.898309      -242.1353 
  21   2.0000      -6.579756      -179.0443 
  22   2.0000      -6.577856      -178.9926 
  23   2.0000      -6.577251      -178.9761 
  24   2.0000      -1.451189       -39.4888 
  25   2.0000      -1.423243       -38.7284 
  26   2.0000      -1.364656       -37.1342 
  27   2.0000      -1.357189       -36.9310 
  28   2.0000      -1.253642       -34.1133 
  29   2.0000      -1.155829       -31.4517 
  30   2.0000      -1.126944       -30.6657 
  31   2.0000      -1.044226       -28.4148 
  32   2.0000      -1.041827       -28.3496 
  33   2.0000      -1.013988       -27.5920 
  34   2.0000      -1.000302       -27.2196 
  35   2.0000      -0.986690       -26.8492 
  36   2.0000      -0.928707       -25.2714 
  37   2.0000      -0.894172       -24.3317 
  38   2.0000      -0.861144       -23.4329 
  39   2.0000      -0.846083       -23.0231 
  40   2.0000      -0.828443       -22.5431 
  41   2.0000      -0.806882       -21.9564 
  42   2.0000      -0.756666       -20.5899 
  43   2.0000      -0.752520       -20.4771 
  44   2.0000      -0.737257       -20.0618 
  45   2.0000      -0.703345       -19.1390 
  46   2.0000      -0.689613       -18.7653 
  47   2.0000      -0.678524       -18.4636 
  48   2.0000      -0.675015       -18.3681 
  49   2.0000      -0.667959       -18.1761 
  50   2.0000      -0.657347       -17.8873 
  51   2.0000      -0.648585       -17.6489 
  52   2.0000      -0.632815       -17.2198 
  53   2.0000      -0.626541       -17.0490 
  54   2.0000      -0.601603       -16.3704 
  55   2.0000      -0.597606       -16.2617 
  56   2.0000      -0.595917       -16.2157 
  57   2.0000      -0.589427       -16.0391 
  58   2.0000      -0.576808       -15.6958 
  59   2.0000      -0.570517       -15.5246 
  60   2.0000      -0.564664       -15.3653 
  61   2.0000      -0.559923       -15.2363 
  62   2.0000      -0.547999       -14.9118 
  63   2.0000      -0.528969       -14.3940 
  64   2.0000      -0.517779       -14.0895 
  65   2.0000      -0.513214       -13.9653 
  66   2.0000      -0.505216       -13.7476 
  67   2.0000      -0.501409       -13.6440 
  68   2.0000      -0.479156       -13.0385 
  69   2.0000      -0.462461       -12.5842 
  70   2.0000      -0.451531       -12.2868 
  71   2.0000      -0.449977       -12.2445 
  72   2.0000      -0.363676        -9.8961 
  73   2.0000      -0.340128        -9.2553 
  74   2.0000      -0.328560        -8.9406 
  75   2.0000      -0.316509        -8.6126 
  76   2.0000      -0.313791        -8.5387 
  77   0.0000       0.070244         1.9114 
  78   0.0000       0.104987         2.8568 
  79   0.0000       0.111645         3.0380 
  80   0.0000       0.130868         3.5611 
  81   0.0000       0.140541         3.8243 
  82   0.0000       0.145589         3.9617 
  83   0.0000       0.151320         4.1176 
  84   0.0000       0.154193         4.1958 
  85   0.0000       0.163453         4.4478 
  86   0.0000       0.173965         4.7338 
  87   0.0000       0.175155         4.7662 
  88   0.0000       0.182897         4.9769 
  89   0.0000       0.184476         5.0199 
  90   0.0000       0.197213         5.3664 
  91   0.0000       0.204035         5.5521 
  92   0.0000       0.208791         5.6815 
  93   0.0000       0.218467         5.9448 
  94   0.0000       0.227808         6.1990 
  95   0.0000       0.231454         6.2982 
  96   0.0000       0.235060         6.3963 
  97   0.0000       0.241040         6.5590 
  98   0.0000       0.259452         7.0600 
  99   0.0000       0.271505         7.3880 
 100   0.0000       0.288802         7.8587 
 101   0.0000       0.305323         8.3083 
 102   0.0000       0.311646         8.4803 
 103   0.0000       0.313936         8.5426 
 104   0.0000       0.322593         8.7782 
 105   0.0000       0.333021         9.0620 
 106   0.0000       0.340799         9.2736 
 107   0.0000       0.345844         9.4109 
 108   0.0000       0.347858         9.4657 
 109   0.0000       0.359241         9.7755 
 110   0.0000       0.368271        10.0212 
 111   0.0000       0.373209        10.1555 
 112   0.0000       0.384296        10.4572 
 113   0.0000       0.391958        10.6657 
 114   0.0000       0.402365        10.9489 
 115   0.0000       0.405032        11.0215 
 116   0.0000       0.417595        11.3633 
 117   0.0000       0.418299        11.3825 
 118   0.0000       0.425578        11.5806 
 119   0.0000       0.434787        11.8312 
 120   0.0000       0.444963        12.1081 
 121   0.0000       0.450058        12.2467 
 122   0.0000       0.451916        12.2973 
 123   0.0000       0.458449        12.4750 
 124   0.0000       0.461188        12.5496 
 125   0.0000       0.470083        12.7916 
 126   0.0000       0.475741        12.9456 
 127   0.0000       0.485409        13.2087 
 128   0.0000       0.488631        13.2963 
 129   0.0000       0.492181        13.3929 
 130   0.0000       0.498652        13.5690 
 131   0.0000       0.498991        13.5782 
 132   0.0000       0.507698        13.8152 
 133   0.0000       0.510431        13.8895 
 134   0.0000       0.516579        14.0568 
 135   0.0000       0.522812        14.2264 
 136   0.0000       0.527945        14.3661 
 137   0.0000       0.531780        14.4705 
 138   0.0000       0.534478        14.5439 
 139   0.0000       0.544117        14.8062 
 140   0.0000       0.554362        15.0850 
 141   0.0000       0.561578        15.2813 
 142   0.0000       0.564412        15.3584 
 143   0.0000       0.566234        15.4080 
 144   0.0000       0.573271        15.5995 
 145   0.0000       0.583625        15.8813 
 146   0.0000       0.588147        16.0043 
 147   0.0000       0.590565        16.0701 
 148   0.0000       0.593646        16.1539 
 149   0.0000       0.596832        16.2406 
 150   0.0000       0.601654        16.3718 
 151   0.0000       0.606761        16.5108 
 152   0.0000       0.609839        16.5946 
 153   0.0000       0.616383        16.7726 
 154   0.0000       0.620623        16.8880 
 155   0.0000       0.624737        17.0000 
 156   0.0000       0.626971        17.0607 
 157   0.0000       0.629358        17.1257 
 158   0.0000       0.632137        17.2013 
 159   0.0000       0.636076        17.3085 
 160   0.0000       0.640040        17.4164 
 161   0.0000       0.646523        17.5928 
 162   0.0000       0.652881        17.7658 
 163   0.0000       0.656963        17.8769 
 164   0.0000       0.662916        18.0389 
 165   0.0000       0.672558        18.3012 
 166   0.0000       0.677516        18.4361 
 167   0.0000       0.681326        18.5398 
 168   0.0000       0.683595        18.6016 
 169   0.0000       0.695272        18.9193 
 170   0.0000       0.699382        19.0312 
 171   0.0000       0.703773        19.1506 
 172   0.0000       0.712119        19.3778 
 173   0.0000       0.718660        19.5557 
 174   0.0000       0.724950        19.7269 
 175   0.0000       0.734515        19.9872 
 176   0.0000       0.740297        20.1445 
 177   0.0000       0.741193        20.1689 
 178   0.0000       0.752311        20.4714 
 179   0.0000       0.754562        20.5327 
 180   0.0000       0.765601        20.8331 
 181   0.0000       0.769419        20.9369 
 182   0.0000       0.777343        21.1526 
 183   0.0000       0.787854        21.4386 
 184   0.0000       0.793419        21.5900 
 185   0.0000       0.796215        21.6661 
 186   0.0000       0.806148        21.9364 
 187   0.0000       0.823085        22.3973 
 188   0.0000       0.831875        22.6365 
 189   0.0000       0.836032        22.7496 
 190   0.0000       0.844941        22.9920 
 191   0.0000       0.853511        23.2252 
 192   0.0000       0.857623        23.3371 
 193   0.0000       0.861202        23.4345 
 194   0.0000       0.865694        23.5567 
 195   0.0000       0.879155        23.9230 
 196   0.0000       0.885711        24.1014 
 197   0.0000       0.895013        24.3545 
 198   0.0000       0.903700        24.5909 
 199   0.0000       0.911764        24.8104 
 200   0.0000       0.913750        24.8644 
 201   0.0000       0.919872        25.0310 
 202   0.0000       0.923918        25.1411 
 203   0.0000       0.927992        25.2519 
 204   0.0000       0.939542        25.5662 
 205   0.0000       0.945186        25.7198 
 206   0.0000       0.953834        25.9551 
 207   0.0000       0.956177        26.0189 
 208   0.0000       0.966107        26.2891 
 209   0.0000       0.976108        26.5613 
 210   0.0000       0.979574        26.6556 
 211   0.0000       0.982296        26.7296 
 212   0.0000       0.990466        26.9520 
 213   0.0000       0.997377        27.1400 
 214   0.0000       1.002995        27.2929 
 215   0.0000       1.008992        27.4561 
 216   0.0000       1.016025        27.6474 
 217   0.0000       1.018920        27.7262 
 218   0.0000       1.020498        27.7692 
 219   0.0000       1.038404        28.2564 
 220   0.0000       1.047728        28.5101 
 221   0.0000       1.058914        28.8145 
 222   0.0000       1.063166        28.9302 
 223   0.0000       1.063763        28.9465 
 224   0.0000       1.076117        29.2826 
 225   0.0000       1.085222        29.5304 
 226   0.0000       1.086799        29.5733 
 227   0.0000       1.104023        30.0420 
 228   0.0000       1.111234        30.2382 
 229   0.0000       1.117927        30.4203 
 230   0.0000       1.127941        30.6928 
 231   0.0000       1.132541        30.8180 
 232   0.0000       1.138984        30.9933 
 233   0.0000       1.143201        31.1081 
 234   0.0000       1.155693        31.4480 
 235   0.0000       1.166837        31.7513 
 236   0.0000       1.169754        31.8306 
 237   0.0000       1.174666        31.9643 
 238   0.0000       1.179697        32.1012 
 239   0.0000       1.184354        32.2279 
 240   0.0000       1.195698        32.5366 
 241   0.0000       1.198163        32.6037 
 242   0.0000       1.206867        32.8405 
 243   0.0000       1.210147        32.9298 
 244   0.0000       1.218399        33.1543 
 245   0.0000       1.225132        33.3375 
 246   0.0000       1.231463        33.5098 
 247   0.0000       1.236401        33.6442 
 248   0.0000       1.244542        33.8657 
 249   0.0000       1.256301        34.1857 
 250   0.0000       1.256868        34.2011 
 251   0.0000       1.267858        34.5002 
 252   0.0000       1.270305        34.5668 
 253   0.0000       1.273677        34.6585 
 254   0.0000       1.286841        35.0167 
 255   0.0000       1.299000        35.3476 
 256   0.0000       1.302479        35.4423 
 257   0.0000       1.305748        35.5312 
 258   0.0000       1.318053        35.8660 
 259   0.0000       1.330603        36.2075 
 260   0.0000       1.334638        36.3173 
 261   0.0000       1.341887        36.5146 
 262   0.0000       1.350321        36.7441 
 263   0.0000       1.366138        37.1745 
 264   0.0000       1.369801        37.2742 
 265   0.0000       1.381286        37.5867 
 266   0.0000       1.395899        37.9843 
 267   0.0000       1.402517        38.1644 
 268   0.0000       1.403818        38.1998 
 269   0.0000       1.405932        38.2574 
 270   0.0000       1.429474        38.8980 
 271   0.0000       1.434163        39.0256 
 272   0.0000       1.442594        39.2550 
 273   0.0000       1.446838        39.3705 
 274   0.0000       1.454971        39.5918 
 275   0.0000       1.463909        39.8350 
 276   0.0000       1.468830        39.9689 
 277   0.0000       1.472698        40.0742 
 278   0.0000       1.483570        40.3700 
 279   0.0000       1.492784        40.6207 
 280   0.0000       1.499039        40.7909 
 281   0.0000       1.500586        40.8330 
 282   0.0000       1.502745        40.8918 
 283   0.0000       1.512294        41.1516 
 284   0.0000       1.521546        41.4034 
 285   0.0000       1.525368        41.5074 
 286   0.0000       1.531376        41.6709 
 287   0.0000       1.541444        41.9448 
 288   0.0000       1.551593        42.2210 
 289   0.0000       1.553722        42.2789 
 290   0.0000       1.554640        42.3039 
 291   0.0000       1.564923        42.5837 
 292   0.0000       1.571077        42.7512 
 293   0.0000       1.584201        43.1083 
 294   0.0000       1.585116        43.1332 
 295   0.0000       1.589154        43.2431 
 296   0.0000       1.601015        43.5658 
 297   0.0000       1.608151        43.7600 
 298   0.0000       1.612047        43.8660 
 299   0.0000       1.617304        44.0091 
 300   0.0000       1.633743        44.4564 
 301   0.0000       1.636575        44.5335 
 302   0.0000       1.650694        44.9177 
 303   0.0000       1.651402        44.9369 
 304   0.0000       1.668554        45.4037 
 305   0.0000       1.673516        45.5387 
 306   0.0000       1.685675        45.8695 
 307   0.0000       1.694932        46.1214 
 308   0.0000       1.706553        46.4377 
 309   0.0000       1.718328        46.7581 
 310   0.0000       1.723008        46.8854 
 311   0.0000       1.726058        46.9684 
 312   0.0000       1.731032        47.1038 
 313   0.0000       1.731652        47.1206 
 314   0.0000       1.746597        47.5273 
 315   0.0000       1.755501        47.7696 
 316   0.0000       1.762758        47.9671 
 317   0.0000       1.777965        48.3809 
 318   0.0000       1.784062        48.5468 
 319   0.0000       1.801042        49.0088 
 320   0.0000       1.811191        49.2850 
 321   0.0000       1.817634        49.4603 
 322   0.0000       1.835728        49.9527 
 323   0.0000       1.848128        50.2901 
 324   0.0000       1.855503        50.4908 
 325   0.0000       1.869774        50.8791 
 326   0.0000       1.884567        51.2817 
 327   0.0000       1.903855        51.8065 
 328   0.0000       1.910842        51.9967 
 329   0.0000       1.914743        52.1028 
 330   0.0000       1.920687        52.2646 
 331   0.0000       1.931039        52.5463 
 332   0.0000       1.939591        52.7790 
 333   0.0000       1.941565        52.8327 
 334   0.0000       1.972947        53.6866 
 335   0.0000       1.984180        53.9923 
 336   0.0000       1.994433        54.2713 
 337   0.0000       2.000737        54.4428 
 338   0.0000       2.011998        54.7493 
 339   0.0000       2.017797        54.9071 
 340   0.0000       2.029895        55.2363 
 341   0.0000       2.045123        55.6506 
 342   0.0000       2.061063        56.0844 
 343   0.0000       2.067946        56.2717 
 344   0.0000       2.083207        56.6869 
 345   0.0000       2.104182        57.2577 
 346   0.0000       2.111421        57.4547 
 347   0.0000       2.129021        57.9336 
 348   0.0000       2.145603        58.3848 
 349   0.0000       2.149368        58.4873 
 350   0.0000       2.174248        59.1643 
 351   0.0000       2.195713        59.7484 
 352   0.0000       2.202108        59.9224 
 353   0.0000       2.215251        60.2800 
 354   0.0000       2.224143        60.5220 
 355   0.0000       2.239737        60.9463 
 356   0.0000       2.262182        61.5571 
 357   0.0000       2.270049        61.7712 
 358   0.0000       2.285621        62.1949 
 359   0.0000       2.298322        62.5405 
 360   0.0000       2.305878        62.7461 
 361   0.0000       2.312772        62.9337 
 362   0.0000       2.330308        63.4109 
 363   0.0000       2.344639        63.8009 
 364   0.0000       2.347066        63.8669 
 365   0.0000       2.367271        64.4167 
 366   0.0000       2.374504        64.6135 
 367   0.0000       2.379316        64.7445 
 368   0.0000       2.388655        64.9986 
 369   0.0000       2.399868        65.3037 
 370   0.0000       2.436265        66.2941 
 371   0.0000       2.449856        66.6640 
 372   0.0000       2.463845        67.0446 
 373   0.0000       2.471413        67.2506 
 374   0.0000       2.487589        67.6907 
 375   0.0000       2.497283        67.9545 
 376   0.0000       2.522324        68.6359 
 377   0.0000       2.539738        69.1098 
 378   0.0000       2.541197        69.1495 
 379   0.0000       2.570444        69.9453 
 380   0.0000       2.581982        70.2593 
 381   0.0000       2.594209        70.5920 
 382   0.0000       2.600765        70.7704 
 383   0.0000       2.603089        70.8337 
 384   0.0000       2.614195        71.1359 
 385   0.0000       2.625097        71.4325 
 386   0.0000       2.634016        71.6752 
 387   0.0000       2.638091        71.7861 
 388   0.0000       2.641275        71.8727 
 389   0.0000       2.655361        72.2560 
 390   0.0000       2.664484        72.5043 
 391   0.0000       2.680984        72.9533 
 392   0.0000       2.703606        73.5689 
 393   0.0000       2.710707        73.7621 
 394   0.0000       2.716558        73.9213 
 395   0.0000       2.728998        74.2598 
 396   0.0000       2.729525        74.2742 
 397   0.0000       2.737522        74.4918 
 398   0.0000       2.749095        74.8067 
 399   0.0000       2.760766        75.1243 
 400   0.0000       2.775043        75.5128 
 401   0.0000       2.778939        75.6188 
 402   0.0000       2.799355        76.1743 
 403   0.0000       2.806257        76.3621 
 404   0.0000       2.811823        76.5136 
 405   0.0000       2.828197        76.9592 
 406   0.0000       2.833998        77.1170 
 407   0.0000       2.837244        77.2053 
 408   0.0000       2.851572        77.5952 
 409   0.0000       2.856113        77.7188 
 410   0.0000       2.865808        77.9826 
 411   0.0000       2.875319        78.2414 
 412   0.0000       2.876753        78.2804 
 413   0.0000       2.894894        78.7741 
 414   0.0000       2.906762        79.0970 
 415   0.0000       2.920931        79.4826 
 416   0.0000       2.922772        79.5327 
 417   0.0000       2.932054        79.7852 
 418   0.0000       2.935289        79.8733 
 419   0.0000       2.943136        80.0868 
 420   0.0000       2.956522        80.4511 
 421   0.0000       2.974884        80.9507 
 422   0.0000       2.982067        81.1462 
 423   0.0000       2.991129        81.3928 
 424   0.0000       3.004433        81.7548 
 425   0.0000       3.011372        81.9436 
 426   0.0000       3.016778        82.0907 
 427   0.0000       3.028455        82.4084 
 428   0.0000       3.031742        82.4979 
 429   0.0000       3.035928        82.6118 
 430   0.0000       3.046746        82.9062 
 431   0.0000       3.058330        83.2214 
 432   0.0000       3.068436        83.4964 
 433   0.0000       3.071689        83.5849 
 434   0.0000       3.073697        83.6395 
 435   0.0000       3.079536        83.7984 
 436   0.0000       3.086369        83.9844 
 437   0.0000       3.093363        84.1747 
 438   0.0000       3.100355        84.3650 
 439   0.0000       3.103070        84.4388 
 440   0.0000       3.114132        84.7398 
 441   0.0000       3.118042        84.8462 
 442   0.0000       3.127589        85.1060 
 443   0.0000       3.129667        85.1626 
 444   0.0000       3.140191        85.4489 
 445   0.0000       3.151169        85.7477 
 446   0.0000       3.160507        86.0018 
 447   0.0000       3.176157        86.4276 
 448   0.0000       3.182188        86.5917 
 449   0.0000       3.189288        86.7849 
 450   0.0000       3.193490        86.8993 
 451   0.0000       3.196882        86.9916 
 452   0.0000       3.204780        87.2065 
 453   0.0000       3.222016        87.6755 
 454   0.0000       3.227527        87.8255 
 455   0.0000       3.232206        87.9528 
 456   0.0000       3.243607        88.2630 
 457   0.0000       3.247576        88.3710 
 458   0.0000       3.254542        88.5606 
 459   0.0000       3.261860        88.7597 
 460   0.0000       3.270057        88.9828 
 461   0.0000       3.270938        89.0068 
 462   0.0000       3.283496        89.3485 
 463   0.0000       3.289557        89.5134 
 464   0.0000       3.293616        89.6238 
 465   0.0000       3.297088        89.7183 
 466   0.0000       3.305597        89.9499 
 467   0.0000       3.309206        90.0481 
 468   0.0000       3.318104        90.2902 
 469   0.0000       3.321634        90.3862 
 470   0.0000       3.335738        90.7700 
 471   0.0000       3.338692        90.8504 
 472   0.0000       3.341141        90.9171 
 473   0.0000       3.350308        91.1665 
 474   0.0000       3.352599        91.2289 
 475   0.0000       3.355171        91.2988 
 476   0.0000       3.357788        91.3700 
 477   0.0000       3.366985        91.6203 
 478   0.0000       3.368160        91.6523 
 479   0.0000       3.382384        92.0394 
 480   0.0000       3.387489        92.1783 
 481   0.0000       3.392928        92.3263 
 482   0.0000       3.401796        92.5676 
 483   0.0000       3.410318        92.7995 
 484   0.0000       3.412671        92.8635 
 485   0.0000       3.418984        93.0353 
 486   0.0000       3.427686        93.2721 
 487   0.0000       3.433832        93.4393 
 488   0.0000       3.435467        93.4838 
 489   0.0000       3.441136        93.6381 
 490   0.0000       3.448535        93.8394 
 491   0.0000       3.455096        94.0180 
 492   0.0000       3.455591        94.0314 
 493   0.0000       3.465921        94.3125 
 494   0.0000       3.477647        94.6316 
 495   0.0000       3.482820        94.7724 
 496   0.0000       3.483568        94.7927 
 497   0.0000       3.501105        95.2699 
 498   0.0000       3.501365        95.2770 
 499   0.0000       3.512834        95.5891 
 500   0.0000       3.514896        95.6452 
 501   0.0000       3.531093        96.0859 
 502   0.0000       3.541999        96.3827 
 503   0.0000       3.550322        96.6092 
 504   0.0000       3.554254        96.7162 
 505   0.0000       3.558011        96.8184 
 506   0.0000       3.567112        97.0661 
 507   0.0000       3.568166        97.0947 
 508   0.0000       3.578498        97.3759 
 509   0.0000       3.588226        97.6406 
 510   0.0000       3.593354        97.7801 
 511   0.0000       3.595595        97.8411 
 512   0.0000       3.602898        98.0398 
 513   0.0000       3.609735        98.2259 
 514   0.0000       3.614772        98.3630 
 515   0.0000       3.617294        98.4316 
 516   0.0000       3.618875        98.4746 
 517   0.0000       3.627601        98.7120 
 518   0.0000       3.633750        98.8794 
 519   0.0000       3.640352        99.0590 
 520   0.0000       3.650677        99.3400 
 521   0.0000       3.653843        99.4261 
 522   0.0000       3.663981        99.7020 
 523   0.0000       3.667119        99.7874 
 524   0.0000       3.677281       100.0639 
 525   0.0000       3.685554       100.2890 
 526   0.0000       3.692159       100.4688 
 527   0.0000       3.700826       100.7046 
 528   0.0000       3.707514       100.8866 
 529   0.0000       3.716534       101.1320 
 530   0.0000       3.719623       101.2161 
 531   0.0000       3.729108       101.4742 
 532   0.0000       3.736980       101.6884 
 533   0.0000       3.745138       101.9104 
 534   0.0000       3.754180       102.1564 
 535   0.0000       3.759897       102.3120 
 536   0.0000       3.761932       102.3674 
 537   0.0000       3.766518       102.4922 
 538   0.0000       3.779697       102.8508 
 539   0.0000       3.788756       103.0973 
 540   0.0000       3.793555       103.2279 
 541   0.0000       3.801003       103.4306 
 542   0.0000       3.804279       103.5197 
 543   0.0000       3.811696       103.7215 
 544   0.0000       3.817512       103.8798 
 545   0.0000       3.822112       104.0050 
 546   0.0000       3.829027       104.1931 
 547   0.0000       3.831306       104.2551 
 548   0.0000       3.844746       104.6209 
 549   0.0000       3.847641       104.6996 
 550   0.0000       3.860007       105.0361 
 551   0.0000       3.870185       105.3131 
 552   0.0000       3.883140       105.6656 
 553   0.0000       3.887784       105.7920 
 554   0.0000       3.890236       105.8587 
 555   0.0000       3.903755       106.2266 
 556   0.0000       3.911279       106.4313 
 557   0.0000       3.918161       106.6186 
 558   0.0000       3.921120       106.6991 
 559   0.0000       3.927128       106.8626 
 560   0.0000       3.941733       107.2600 
 561   0.0000       3.946634       107.3934 
 562   0.0000       3.954734       107.6138 
 563   0.0000       3.961791       107.8058 
 564   0.0000       3.983782       108.4042 
 565   0.0000       3.987049       108.4931 
 566   0.0000       3.992247       108.6346 
 567   0.0000       3.994633       108.6995 
 568   0.0000       4.004883       108.9784 
 569   0.0000       4.010359       109.1274 
 570   0.0000       4.019031       109.3634 
 571   0.0000       4.029952       109.6606 
 572   0.0000       4.046756       110.1178 
 573   0.0000       4.051428       110.2450 
 574   0.0000       4.056301       110.3776 
 575   0.0000       4.061261       110.5125 
 576   0.0000       4.073848       110.8550 
 577   0.0000       4.085995       111.1856 
 578   0.0000       4.089587       111.2833 
 579   0.0000       4.097791       111.5066 
 580   0.0000       4.101884       111.6179 
 581   0.0000       4.120413       112.1221 
 582   0.0000       4.122544       112.1801 
 583   0.0000       4.133383       112.4751 
 584   0.0000       4.139085       112.6302 
 585   0.0000       4.159336       113.1813 
 586   0.0000       4.167344       113.3992 
 587   0.0000       4.169709       113.4635 
 588   0.0000       4.172205       113.5315 
 589   0.0000       4.178611       113.7058 
 590   0.0000       4.188444       113.9734 
 591   0.0000       4.195904       114.1764 
 592   0.0000       4.209739       114.5528 
 593   0.0000       4.215460       114.7085 
 594   0.0000       4.221128       114.8627 
 595   0.0000       4.226424       115.0068 
 596   0.0000       4.230633       115.1214 
 597   0.0000       4.232921       115.1836 
 598   0.0000       4.245014       115.5127 
 599   0.0000       4.258959       115.8922 
 600   0.0000       4.262833       115.9976 
 601   0.0000       4.270472       116.2054 
 602   0.0000       4.287155       116.6594 
 603   0.0000       4.292529       116.8056 
 604   0.0000       4.300694       117.0278 
 605   0.0000       4.308656       117.2445 
 606   0.0000       4.318061       117.5004 
 607   0.0000       4.326850       117.7396 
 608   0.0000       4.334126       117.9376 
 609   0.0000       4.339545       118.0850 
 610   0.0000       4.343442       118.1911 
 611   0.0000       4.348680       118.3336 
 612   0.0000       4.349772       118.3633 
 613   0.0000       4.357233       118.5663 
 614   0.0000       4.368556       118.8744 
 615   0.0000       4.378104       119.1343 
 616   0.0000       4.387561       119.3916 
 617   0.0000       4.393331       119.5486 
 618   0.0000       4.394009       119.5671 
 619   0.0000       4.401700       119.7763 
 620   0.0000       4.410669       120.0204 
 621   0.0000       4.413580       120.0996 
 622   0.0000       4.419994       120.2742 
 623   0.0000       4.424805       120.4051 
 624   0.0000       4.430327       120.5553 
 625   0.0000       4.442414       120.8842 
 626   0.0000       4.448142       121.0401 
 627   0.0000       4.460042       121.3639 
 628   0.0000       4.475566       121.7863 
 629   0.0000       4.486915       122.0952 
 630   0.0000       4.496302       122.3506 
 631   0.0000       4.504102       122.5628 
 632   0.0000       4.519196       122.9736 
 633   0.0000       4.529575       123.2560 
 634   0.0000       4.538432       123.4970 
 635   0.0000       4.541083       123.5691 
 636   0.0000       4.542587       123.6101 
 637   0.0000       4.546872       123.7267 
 638   0.0000       4.554676       123.9390 
 639   0.0000       4.558681       124.0480 
 640   0.0000       4.565084       124.2223 
 641   0.0000       4.591499       124.9410 
 642   0.0000       4.598428       125.1296 
 643   0.0000       4.608827       125.4126 
 644   0.0000       4.613085       125.5284 
 645   0.0000       4.620277       125.7241 
 646   0.0000       4.622813       125.7931 
 647   0.0000       4.629531       125.9759 
 648   0.0000       4.635518       126.1389 
 649   0.0000       4.650235       126.5393 
 650   0.0000       4.652029       126.5881 
 651   0.0000       4.668778       127.0439 
 652   0.0000       4.679715       127.3415 
 653   0.0000       4.688278       127.5745 
 654   0.0000       4.701306       127.9290 
 655   0.0000       4.707295       128.0920 
 656   0.0000       4.723890       128.5436 
 657   0.0000       4.727986       128.6550 
 658   0.0000       4.748117       129.2028 
 659   0.0000       4.772957       129.8788 
 660   0.0000       4.776450       129.9738 
 661   0.0000       4.790027       130.3433 
 662   0.0000       4.809932       130.8849 
 663   0.0000       4.831951       131.4841 
 664   0.0000       4.842862       131.7810 
 665   0.0000       4.866700       132.4296 
 666   0.0000       4.876262       132.6898 
 667   0.0000       4.887237       132.9885 
 668   0.0000       4.896385       133.2374 
 669   0.0000       4.923717       133.9812 
 670   0.0000       4.945001       134.5603 
 671   0.0000       4.951260       134.7306 
 672   0.0000       4.961297       135.0038 
 673   0.0000       4.966029       135.1325 
 674   0.0000       4.984255       135.6285 
 675   0.0000       5.002122       136.1147 
 676   0.0000       5.004231       136.1721 
 677   0.0000       5.031283       136.9082 
 678   0.0000       5.048003       137.3631 
 679   0.0000       5.054603       137.5428 
 680   0.0000       5.069129       137.9380 
 681   0.0000       5.069461       137.9470 
 682   0.0000       5.091461       138.5457 
 683   0.0000       5.106137       138.9451 
 684   0.0000       5.112512       139.1185 
 685   0.0000       5.118851       139.2910 
 686   0.0000       5.131007       139.6218 
 687   0.0000       5.147497       140.0705 
 688   0.0000       5.155609       140.2912 
 689   0.0000       5.160964       140.4370 
 690   0.0000       5.172396       140.7481 
 691   0.0000       5.185089       141.0934 
 692   0.0000       5.191959       141.2804 
 693   0.0000       5.204583       141.6239 
 694   0.0000       5.217639       141.9792 
 695   0.0000       5.222857       142.1212 
 696   0.0000       5.237474       142.5189 
 697   0.0000       5.248165       142.8098 
 698   0.0000       5.256855       143.0463 
 699   0.0000       5.262452       143.1986 
 700   0.0000       5.284012       143.7853 
 701   0.0000       5.291508       143.9893 
 702   0.0000       5.299197       144.1985 
 703   0.0000       5.307851       144.4340 
 704   0.0000       5.329845       145.0325 
 705   0.0000       5.332517       145.1052 
 706   0.0000       5.347362       145.5091 
 707   0.0000       5.356226       145.7503 
 708   0.0000       5.369067       146.0997 
 709   0.0000       5.393230       146.7572 
 710   0.0000       5.404549       147.0653 
 711   0.0000       5.409453       147.1987 
 712   0.0000       5.438778       147.9967 
 713   0.0000       5.462264       148.6358 
 714   0.0000       5.480796       149.1400 
 715   0.0000       5.488825       149.3585 
 716   0.0000       5.500280       149.6702 
 717   0.0000       5.527733       150.4173 
 718   0.0000       5.535857       150.6383 
 719   0.0000       5.553250       151.1116 
 720   0.0000       5.564070       151.4060 
 721   0.0000       5.574742       151.6965 
 722   0.0000       5.585037       151.9766 
 723   0.0000       5.593144       152.1972 
 724   0.0000       5.613419       152.7489 
 725   0.0000       5.626864       153.1147 
 726   0.0000       5.630993       153.2271 
 727   0.0000       5.639577       153.4607 
 728   0.0000       5.647776       153.6838 
 729   0.0000       5.651485       153.7847 
 730   0.0000       5.660359       154.0262 
 731   0.0000       5.672816       154.3652 
 732   0.0000       5.679541       154.5482 
 733   0.0000       5.689453       154.8179 
 734   0.0000       5.721948       155.7021 
 735   0.0000       5.731594       155.9646 
 736   0.0000       5.739663       156.1842 
 737   0.0000       5.754690       156.5931 
 738   0.0000       5.766376       156.9111 
 739   0.0000       5.779721       157.2742 
 740   0.0000       5.796207       157.7228 
 741   0.0000       5.816186       158.2665 
 742   0.0000       5.820711       158.3896 
 743   0.0000       5.829153       158.6193 
 744   0.0000       5.857041       159.3782 
 745   0.0000       5.869014       159.7040 
 746   0.0000       5.880646       160.0205 
 747   0.0000       5.886308       160.1746 
 748   0.0000       5.896689       160.4571 
 749   0.0000       5.925956       161.2535 
 750   0.0000       5.961415       162.2184 
 751   0.0000       5.964056       162.2902 
 752   0.0000       6.005909       163.4291 
 753   0.0000       6.030061       164.0863 
 754   0.0000       6.036592       164.2640 
 755   0.0000       6.039453       164.3419 
 756   0.0000       6.047999       164.5744 
 757   0.0000       6.069359       165.1557 
 758   0.0000       6.093837       165.8217 
 759   0.0000       6.132188       166.8653 
 760   0.0000       6.149564       167.3381 
 761   0.0000       6.176438       168.0694 
 762   0.0000       6.179486       168.1524 
 763   0.0000       6.190200       168.4439 
 764   0.0000       6.198564       168.6715 
 765   0.0000       6.258334       170.2979 
 766   0.0000       6.265346       170.4887 
 767   0.0000       6.291695       171.2057 
 768   0.0000       6.310280       171.7115 
 769   0.0000       6.327332       172.1755 
 770   0.0000       6.363881       173.1700 
 771   0.0000       6.364644       173.1908 
 772   0.0000       6.380662       173.6267 
 773   0.0000       6.396327       174.0529 
 774   0.0000       6.439525       175.2284 
 775   0.0000       6.447748       175.4522 
 776   0.0000       6.517758       177.3572 
 777   0.0000       6.542088       178.0193 
 778   0.0000       6.568568       178.7398 
 779   0.0000       6.644684       180.8111 
 780   0.0000       6.674055       181.6103 
 781   0.0000       6.706738       182.4996 
 782   0.0000       6.736147       183.2999 
 783   0.0000       6.782843       184.5705 
 784   0.0000       6.808175       185.2599 
 785   0.0000       6.832286       185.9159 
 786   0.0000       6.905933       187.9200 
 787   0.0000       6.908665       187.9943 
 788   0.0000       6.925732       188.4587 
 789   0.0000       7.011428       190.7907 
 790   0.0000       7.035798       191.4538 
 791   0.0000       7.042539       191.6372 
 792   0.0000       7.106481       193.3772 
 793   0.0000       7.208748       196.1600 
 794   0.0000       7.212900       196.2730 
 795   0.0000       7.217850       196.4077 
 796   0.0000       7.256282       197.4535 
 797   0.0000       7.298120       198.5919 
 798   0.0000       7.353739       200.1054 
 799   0.0000       7.370880       200.5718 
 800   0.0000       7.375876       200.7078 
 801   0.0000       7.490308       203.8216 
 802   0.0000       7.593149       206.6201 
 803   0.0000       7.621209       207.3836 
 804   0.0000       7.642408       207.9605 
 805   0.0000       7.840174       213.3420 
 806   0.0000       7.878940       214.3969 
 807   0.0000       7.946541       216.2364 
 808   0.0000       7.950881       216.3545 
 809   0.0000       9.539314       259.5779 
 810   0.0000       9.943520       270.5769 
 811   0.0000      10.926564       297.3269 
 812   0.0000      11.368764       309.3598 
 813   0.0000      11.601500       315.6929 
 814   0.0000      12.323992       335.3529 
 815   0.0000      12.691817       345.3619 
 816   0.0000      13.022677       354.3651 
 817   0.0000      13.107010       356.6599 
 818   0.0000      13.229780       360.0006 
 819   0.0000      13.322319       362.5187 
 820   0.0000      13.601288       370.1099 
 821   0.0000      13.892507       378.0343 
 822   0.0000      13.992068       380.7435 
 823   0.0000      14.236944       387.4069 
 824   0.0000      14.761260       401.6743 
 825   0.0000      15.243531       414.7976 
 826   0.0000      15.431303       419.9071 
 827   0.0000      15.555976       423.2996 

                    ********************************
                    * MULLIKEN POPULATION ANALYSIS *
                    ********************************

-----------------------
MULLIKEN ATOMIC CHARGES
-----------------------
   0 C :   -0.260338
   1 C :    0.030198
   2 O :   -0.373804
   3 C :    0.419454
   4 O :   -0.399773
   5 C :   -0.130518
   6 C :    0.121306
   7 C :   -0.309163
   8 N :   -0.092162
   9 C :    0.183267
  10 S :   -0.430765
  11 N :   -0.193368
  12 C :    0.068677
  13 C :    0.027697
  14 C :   -0.189554
  15 C :   -0.105993
  16 C :   -0.258399
  17 C :    0.311466
  18 O :   -0.347172
  19 C :   -0.312069
  20 H :    0.106053
  21 H :    0.102783
  22 H :    0.090979
  23 H :    0.107963
  24 H :    0.084812
  25 H :    0.120895
  26 H :    0.109204
  27 H :    0.126530
  28 H :    0.187370
  29 H :    0.184664
  30 H :    0.158853
  31 H :    0.164849
  32 H :    0.162679
  33 H :    0.160297
  34 H :    0.249373
  35 H :    0.123709
Sum of atomic charges:   -0.0000000

--------------------------------
MULLIKEN REDUCED ORBITAL CHARGES
--------------------------------
  0 C s       :     3.252900  s :     3.252900
      pz      :     1.007100  p :     2.930405
      px      :     0.987083
      py      :     0.936222
      dz2     :     0.014539  d :     0.072545
      dxz     :     0.020318
      dyz     :     0.006193
      dx2y2   :     0.012196
      dxy     :     0.019299
      f0      :     0.000312  f :     0.004488
      f+1     :     0.001190
      f-1     :     0.000506
      f+2     :     0.000111
      f-2     :     0.000655
      f+3     :     0.001226
      f-3     :     0.000488
  1 C s       :     3.185533  s :     3.185533
      pz      :     0.877541  p :     2.618680
      px      :     0.764980
      py      :     0.976158
      dz2     :     0.036885  d :     0.153703
      dxz     :     0.036315
      dyz     :     0.016658
      dx2y2   :     0.032426
      dxy     :     0.031419
      f0      :     0.001440  f :     0.011885
      f+1     :     0.003029
      f-1     :     0.000565
      f+2     :     0.001662
      f-2     :     0.001954
      f+3     :     0.001848
      f-3     :     0.001387
  2 O s       :     3.718113  s :     3.718113
      pz      :     1.670785  p :     4.622140
      px      :     1.421549
      py      :     1.529806
      dz2     :     0.005818  d :     0.031348
      dxz     :     0.007421
      dyz     :     0.002785
      dx2y2   :     0.006935
      dxy     :     0.008389
      f0      :     0.000224  f :     0.002203
      f+1     :     0.000360
      f-1     :     0.000169
      f+2     :     0.000315
      f-2     :     0.000293
      f+3     :     0.000468
      f-3     :     0.000374
  3 C s       :     3.103430  s :     3.103430
      pz      :     0.780649  p :     2.160691
      px      :     0.717047
[...]
 15 C s       :     2.718812  s :     2.718812
      pz      :     0.966339  p :     2.784553
      px      :     0.846407
      py      :     0.971807
      dz2     :     0.103461  d :     0.398744
      dxz     :     0.037476
      dyz     :     0.099805
      dx2y2   :     0.080913
      dxy     :     0.077089
      f0      :     0.004362  f :     0.037249
      f+1     :     0.003211
      f-1     :     0.008588
      f+2     :     0.006459
      f-2     :     0.005424
      f+3     :     0.005145
      f-3     :     0.004059
 16 C s       :     2.707539  s :     2.707539
      pz      :     0.968264  p :     2.865774
      px      :     0.926079
      py      :     0.971430
      dz2     :     0.090304  d :     0.372551
      dxz     :     0.065007
      dyz     :     0.116068
      dx2y2   :     0.041656
      dxy     :     0.059516
      f0      :     0.007194  f :     0.037909
      f+1     :     0.005275
      f-1     :     0.009100
      f+2     :     0.004891
      f-2     :     0.003928
      f+3     :     0.004205
      f-3     :     0.003315
 17 C s       :     2.702157  s :     2.702157
      pz      :     0.988742  p :     2.677650
      px      :     0.846769
      py      :     0.842139
      dz2     :     0.160891  d :     0.728293
      dxz     :     0.106403
      dyz     :     0.187930
      dx2y2   :     0.134796
      dxy     :     0.138272
      f0      :     0.010761  f :     0.104006
      f+1     :     0.008443
      f-1     :     0.027347
      f+2     :     0.016144
      f-2     :     0.013451
      f+3     :     0.015176
      f-3     :     0.012684
 18 O s       :     3.172407  s :     3.172407
      pz      :     1.292007  p :     4.338679
      px      :     1.599602
      py      :     1.447070
      dz2     :     0.022699  d :     0.078625
      dxz     :     0.008454
      dyz     :     0.019270
      dx2y2   :     0.015764
      dxy     :     0.012438
      f0      :     0.000876  f :     0.005563
      f+1     :     0.000629
      f-1     :     0.001160
      f+2     :     0.000784
      f-2     :     0.000640
      f+3     :     0.000725
      f-3     :     0.000748
 19 C s       :     2.702610  s :     2.702610
      pz      :     0.955956  p :     2.871745
      px      :     0.948271
      py      :     0.967518
      dz2     :     0.075967  d :     0.375860
      dxz     :     0.045155
      dyz     :     0.104678
      dx2y2   :     0.073999
      dxy     :     0.076060
      f0      :     0.003690  f :     0.038371
      f+1     :     0.004115
      f-1     :     0.008599
      f+2     :     0.006048
      f-2     :     0.005407
      f+3     :     0.006238
      f-3     :     0.004274
 20 H s       :     0.845634  s :     0.845634
      pz      :     0.038343  p :     0.149429
      px      :     0.050178
      py      :     0.060909
      dz2     :     0.002298  d :     0.027312
      dxz     :     0.003707
      dyz     :     0.005394
      dx2y2   :     0.008754
      dxy     :     0.007159
 21 H s       :     0.843076  s :     0.843076
      pz      :     0.055293  p :     0.150447
      px      :     0.055549
      py      :     0.039605
      dz2     :     0.007527  d :     0.027342
      dxz     :     0.006707
      dyz     :     0.004143
      dx2y2   :     0.003823
      dxy     :     0.005141
 22 H s       :     0.848402  s :     0.848402
      pz      :     0.065329  p :     0.152006
      px      :     0.046813
      py      :     0.039864
      dz2     :     0.008674  d :     0.027677
      dxz     :     0.007888
      dyz     :     0.006454
      dx2y2   :     0.001859
      dxy     :     0.002802
 23 H s       :     0.856329  s :     0.856329
      pz      :     0.071423  p :     0.148129
      px      :     0.037881
      py      :     0.038825
      dz2     :     0.009153  d :     0.027377
      dxz     :     0.007825
      dyz     :     0.007618
      dx2y2   :     0.000707
      dxy     :     0.002073
 24 H s       :     0.860109  s :     0.860109
      pz      :     0.035438  p :     0.147699
      px      :     0.041491
      py      :     0.070769
      dz2     :     0.002895  d :     0.027609
      dxz     :     0.002599
      dyz     :     0.006292
      dx2y2   :     0.008050
      dxy     :     0.007773
 25 H s       :     0.826974  s :     0.826974
      pz      :     0.057195  p :     0.152285
      px      :     0.038955
      py      :     0.056135
      dz2     :     0.006727  d :     0.028098
      dxz     :     0.005403
      dyz     :     0.006863
      dx2y2   :     0.004652
      dxy     :     0.004452
 26 H s       :     0.835250  s :     0.835250
      pz      :     0.045837  p :     0.150672
      px      :     0.038035
      py      :     0.066800
      dz2     :     0.003800  d :     0.027495
      dxz     :     0.002240
      dyz     :     0.008102
      dx2y2   :     0.006294
      dxy     :     0.007059
 27 H s       :     0.827288  s :     0.827288
      pz      :     0.059412  p :     0.157452
      px      :     0.059920
      py      :     0.038119
      dz2     :     0.005766  d :     0.027740
      dxz     :     0.007293
      dyz     :     0.003757
      dx2y2   :     0.005432
      dxy     :     0.005491
 28 H s       :     0.734709  s :     0.734709
      pz      :     0.112113  p :     0.246018
      px      :     0.050323
      py      :     0.083583
      dz2     :     0.019693  d :     0.060519
      dxz     :     0.015516
      dyz     :     0.018568
      dx2y2   :     0.004070
      dxy     :     0.002673
 29 H s       :     0.747797  s :     0.747797
      pz      :     0.047574  p :     0.250621
      px      :     0.111225
      py      :     0.091822
      dz2     :     0.006791  d :     0.061441
      dxz     :     0.014654
      dyz     :     0.003557
      dx2y2   :     0.017348
      dxy     :     0.019090
 30 H s       :     0.821918  s :     0.821918
      pz      :     0.041245  p :     0.144186
      px      :     0.034629
      py      :     0.068312
      dz2     :     0.004255  d :     0.028208
      dxz     :     0.002591
      dyz     :     0.007997
      dx2y2   :     0.006477
      dxy     :     0.006887
 31 H s       :     0.843044  s :     0.843044
      pz      :     0.037728  p :     0.159705
      px      :     0.051370
      py      :     0.070607
      dz2     :     0.003698  d :     0.027668
      dxz     :     0.002261
      dyz     :     0.007352
      dx2y2   :     0.007074
      dxy     :     0.007283
 32 H s       :     0.845606  s :     0.845606
      pz      :     0.076917  p :     0.154470
      px      :     0.041006
      py      :     0.036547
      dz2     :     0.009823  d :     0.026822
      dxz     :     0.007352
      dyz     :     0.008155
      dx2y2   :     0.000785
      dxy     :     0.000707
 33 H s       :     0.842931  s :     0.842931
      pz      :     0.048698  p :     0.158282
      px      :     0.056295
      py      :     0.053289
      dz2     :     0.005614  d :     0.027521
      dxz     :     0.004856
      dyz     :     0.005811
      dx2y2   :     0.005856
      dxy     :     0.005384
 34 H s       :     0.698342  s :     0.698342
      pz      :     0.153815  p :     0.345580
      px      :     0.110976
      py      :     0.080789
      dz2     :     0.031685  d :     0.099462
      dxz     :     0.031418
      dyz     :     0.028140
      dx2y2   :     0.004629
      dxy     :     0.003589
 35 H s       :     0.846885  s :     0.846885
      pz      :     0.073408  p :     0.164543
      px      :     0.053259
      py      :     0.037877
      dz2     :     0.009141  d :     0.028647
      dxz     :     0.007598
      dyz     :     0.007243
      dx2y2   :     0.002401
      dxy     :     0.002264


                      *****************************
                      * MAYER POPULATION ANALYSIS *
                      *****************************

  NA   - Mulliken gross atomic population
  ZA   - Total nuclear charge
  QA   - Mulliken gross atomic charge
  VA   - Mayer's total valence
  BVA  - Mayer's bonded valence
  FA   - Mayer's free valence

  ATOM       NA         ZA         QA         VA         BVA        FA
  0 C      6.2603     6.0000    -0.2603     3.8952     3.8952     0.0000
  1 C      5.9698     6.0000     0.0302     3.8475     3.8475     0.0000
  2 O      8.3738     8.0000    -0.3738     2.0183     2.0183     0.0000
  3 C      5.5805     6.0000     0.4195     4.2043     4.2043     0.0000
  4 O      8.3998     8.0000    -0.3998     2.1141     2.1141     0.0000
  5 C      6.1305     6.0000    -0.1305     3.6091     3.6091    -0.0000
  6 C      5.8787     6.0000     0.1213     3.8008     3.8008    -0.0000
  7 C      6.3092     6.0000    -0.3092     3.8779     3.8779    -0.0000
  8 N      7.0922     7.0000    -0.0922     3.2616     3.2616    -0.0000
  9 C      5.8167     6.0000     0.1833     4.1413     4.1413    -0.0000
 10 S     16.4308    16.0000    -0.4308     1.7357     1.7357     0.0000
 11 N      7.1934     7.0000    -0.1934     3.2140     3.2140    -0.0000
 12 C      5.9313     6.0000     0.0687     3.9696     3.9696    -0.0000
 13 C      5.9723     6.0000     0.0277     3.7197     3.7197     0.0000
 14 C      6.1896     6.0000    -0.1896     3.8558     3.8558    -0.0000
 15 C      6.1060     6.0000    -0.1060     3.8269     3.8269    -0.0000
 16 C      6.2584     6.0000    -0.2584     3.8324     3.8324    -0.0000
 17 C      5.6885     6.0000     0.3115     3.9045     3.9045    -0.0000
 18 O      8.3472     8.0000    -0.3472     2.1283     2.1283    -0.0000
 19 C      6.3121     6.0000    -0.3121     3.8157     3.8157    -0.0000
 20 H      0.8939     1.0000     0.1061     0.9863     0.9863     0.0000
 21 H      0.8972     1.0000     0.1028     0.9828     0.9828     0.0000
 22 H      0.9090     1.0000     0.0910     0.9833     0.9833     0.0000
 23 H      0.8920     1.0000     0.1080     0.9769     0.9769     0.0000
 24 H      0.9152     1.0000     0.0848     0.9761     0.9761     0.0000
 25 H      0.8791     1.0000     0.1209     0.9749     0.9749     0.0000
 26 H      0.8908     1.0000     0.1092     0.9820     0.9820    -0.0000
 27 H      0.8735     1.0000     0.1265     1.0021     1.0021    -0.0000
 28 H      0.8126     1.0000     0.1874     1.0200     1.0200     0.0000
 29 H      0.8153     1.0000     0.1847     1.0235     1.0235     0.0000
 30 H      0.8411     1.0000     0.1589     0.9976     0.9976    -0.0000
 31 H      0.8352     1.0000     0.1648     0.9843     0.9843     0.0000
 32 H      0.8373     1.0000     0.1627     0.9756     0.9756    -0.0000
 33 H      0.8397     1.0000     0.1603     0.9853     0.9853    -0.0000
 34 H      0.7506     1.0000     0.2494     1.0049     1.0049     0.0000
 35 H      0.8763     1.0000     0.1237     1.0021     1.0021     0.0000

  Mayer bond orders larger than 0.100000
B(  0-C ,  1-C ) :   0.9685 B(  0-C , 20-H ) :   0.9734 B(  0-C , 21-H ) :   0.9781 
B(  0-C , 22-H ) :   0.9806 B(  1-C ,  2-O ) :   0.8911 B(  1-C , 23-H ) :   0.9782 
B(  1-C , 24-H ) :   0.9797 B(  2-O ,  3-C ) :   1.1330 B(  3-C ,  4-O ) :   2.0067 
B(  3-C ,  5-C ) :   1.0332 B(  5-C ,  6-C ) :   1.6650 B(  5-C , 12-C ) :   0.9621 
B(  6-C ,  7-C ) :   0.9567 B(  6-C ,  8-N ) :   1.1050 B(  7-C , 25-H ) :   0.9661 
B(  7-C , 26-H ) :   0.9720 B(  7-C , 27-H ) :   0.9742 B(  8-N ,  9-C ) :   1.2126 
B(  8-N , 28-H ) :   0.9584 B(  9-C , 10-S ) :   1.6009 B(  9-C , 11-N ) :   1.2627 
B( 11-N , 12-C ) :   0.9973 B( 11-N , 29-H ) :   0.9603 B( 12-C , 13-C ) :   0.9460 
B( 12-C , 30-H ) :   0.9955 B( 13-C , 14-C ) :   1.3972 B( 13-C , 19-C ) :   1.3122 
B( 14-C , 15-C ) :   1.3682 B( 14-C , 31-H ) :   0.9588 B( 15-C , 16-C ) :   1.4133 
B( 15-C , 32-H ) :   0.9714 B( 16-C , 17-C ) :   1.3332 B( 16-C , 33-H ) :   0.9668 
B( 17-C , 18-O ) :   1.1326 B( 17-C , 19-C ) :   1.3751 B( 18-O , 34-H ) :   0.9691 
B( 19-C , 35-H ) :   0.9791 

-------
TIMINGS
-------

Total SCF time: 0 days 2 hours 4 min 37 sec 

Total time                  ....    7477.623 sec
Sum of individual times     ....    7474.026 sec  (100.0%)

Fock matrix formation       ....    7460.494 sec  ( 99.8%)
Diagonalization             ....       1.548 sec  (  0.0%)
Density matrix formation    ....       0.196 sec  (  0.0%)
Population analysis         ....       0.208 sec  (  0.0%)
Initial guess               ....       6.304 sec  (  0.1%)
Orbital Transformation      ....       0.000 sec  (  0.0%)
Orbital Orthonormalization  ....       0.000 sec  (  0.0%)
DIIS solution               ....       1.692 sec  (  0.0%)
SOSCF solution              ....       2.035 sec  (  0.0%)

Maximum memory used throughout the entire SCF-calculation: 727.5 MB

------------------------------------------------------------------------------
                                ORCA  MP2 
------------------------------------------------------------------------------

Freezing NCore=48 chemical core electrons

-------------
RI-MP2 ENERGY
-------------
Dimension of the basis                    ...  828
Memory devoted to MP2                     ...  256 MB   
Data format for buffers                   ... DOUBLE
Compression type for matrix containers    ... UNCOMPRESSED
Overall scaling of the MP2 energy         ...   1.000e+00
Calculating two index integrals           ... done (    0.047 sec)
Cholesky decomposition of V**-1           ... done (    0.609 sec)

-----------------
RI-TRANSFORMATION (AUX index driven)
-----------------

Dimension of the orbital-basis         ... 828
Dimension of the aux-basis             ... 2141
Transformation of internal/external MOs...   24-  76 to   77- 827
Number Format for Storage              ... Double (8 Byte)
Integral mode                          ... Direct

First Phase: integral generation and transformation of MO indices
  Aux angular momentum 0               ... done (    5.434 sec)
  Aux angular momentum 1               ... done (    9.119 sec)
  Aux angular momentum 2               ... done (   11.859 sec)
  Aux angular momentum 3               ... done (    9.438 sec)
  Aux angular momentum 4               ... done (    3.207 sec)
Closing buffer VIA ( 0.63 GB; CompressionRatio= 1.00)
  Phase 1 completed in    39.238 sec
Second Phase: sorting and transformation of aux index

IA-Transformation
Memory available                       ... 157 MB 
Max. # MO pairs treated in a batch     ... 11    
# of internal orbitals                 ... 53
# batches for internal orbitals        ... 5
Closing buffer IAV ( 0.63 GB; CompressionRatio= 1.00)
(ia|v) transformation done in    20.321 sec

  Phase 2 completed in    20.328 sec
RI-Integral transformation completed in    59.572 sec
Opening buffers                              ... done

Starting loop over batches of integrals:

Operator 0  - window                       ... ( 24- 76)x( 77-827)
Operator 0  - Memory available             ...   256 MB
Operator 0  - Memory needed per MO         ...  12.3 MB
Operator 0  - Number of orbitals per batch ... 13
Operator 0  - Number of batches            ... 5

OPERATOR  0   PASS   0:  MOs    24 ...   36
  Reading integrals       ... ok
  Internal MO  26
  Internal MO  29
  Internal MO  32
  Internal MO  35
OPERATOR  0   PASS   1:  MOs    37 ...   49
  Reading integrals       ... ok
  Internal MO  38
  Internal MO  41
  Internal MO  44
  Internal MO  47
OPERATOR  0   PASS   2:  MOs    50 ...   62
  Reading integrals       ... ok
  Internal MO  50
  Internal MO  53
  Internal MO  56
  Internal MO  59
  Internal MO  62
OPERATOR  0   PASS   3:  MOs    63 ...   75
  Reading integrals       ... ok
  Internal MO  65
  Internal MO  68
  Internal MO  71
  Internal MO  74
OPERATOR  0   PASS   4:  MOs    76 ...   76
  Reading integrals       ... ok
Time spent in pair loops =    98.526 sec
Deleting buffer (Ka|jb)[aa] ...done

-----------------------------------------------
 RI-MP2 CORRELATION ENERGY:     -3.537485181 Eh
-----------------------------------------------


-------
TIMINGS
-------

Total time                :  158.849 sec
Integral trafo            :   59.593 sec ( 37.5%)
I/O of integrals          :    0.931 sec (  0.6%)
K(i,j) Operators          :   68.055 sec ( 42.8%)
T(i,j) pair energies      :   10.237 sec (  6.4%)
V-calculation             :    0.047 sec (  0.0%)
V**(-1/2)                 :    0.609 sec (  0.4%)
Gamma(ia|P)               :    0.000 sec (  0.0%)
Gamma-Trafo               :    0.000 sec (  0.0%)
D(virtual)                :    0.000 sec (  0.0%)
D(internal)               :    0.000 sec (  0.0%)
W(virtual)                :    0.000 sec (  0.0%)
W(internal)               :    0.000 sec (  0.0%)
L(virtual)                :    0.000 sec (  0.0%)
L(internal)               :    0.000 sec (  0.0%)
G(D)                      :    0.000 sec (  0.0%)
G(Z)                      :    0.000 sec (  0.0%)
Z-Vector Solution         :    0.000 sec (  0.0%)
3-Index Derivative        :    0.000 sec (  0.0%)
2-Index Derivative        :    0.000 sec (  0.0%)
Separable Gradient        :    0.000 sec (  0.0%)


---------------------------------------
MP2 TOTAL ENERGY:    -1274.302324155 Eh
---------------------------------------

Maximum memory used throughout the entire MP2-calculation: 303.7 MB

-------------------------   --------------------
FINAL SINGLE POINT ENERGY     -1274.302324155404
-------------------------   --------------------


                            ***************************************
                            *     ORCA property calculations      *
                            ***************************************


  WARNING: The energy has been calculated at the MP2 level but the densities
           used in the property calculations are still SCF densities
           MP2 response densities have not been calculated 
           use %mp2 Density relaxed end
           or  %mp2 Density unrelaxed end

                                    ---------------------
                                    Active property flags
                                    ---------------------
   (+) Dipole Moment


------------------------------------------------------------------------------
                       ORCA ELECTRIC PROPERTIES CALCULATION
------------------------------------------------------------------------------

Dipole Moment Calculation                       ... on
Quadrupole Moment Calculation                   ... off
Polarizability Calculation                      ... off
GBWName                                         ... qm_input.vacu.gbw
Electron density file                           ... qm_input.vacu.scfp
The origin for moment calculation is the CENTER OF MASS  = (-12.099468, 25.979308 10.296309)

-------------
DIPOLE MOMENT
-------------
                                X             Y             Z
Electronic contribution:     16.09373      -6.00814      -5.74968
Nuclear contribution   :    -18.33145       6.58679       5.83142
                        -----------------------------------------
Total Dipole Moment    :     -2.23772       0.57865       0.08173
                        -----------------------------------------
Magnitude (a.u.)       :      2.31277
Magnitude (Debye)      :      5.87859



--------------------
Rotational spectrum 
--------------------
 
Rotational constants in cm-1:     0.011034     0.008728     0.006155 
Rotational constants in MHz :   330.789722   261.671205   184.512016 

 Dipole components along the rotational axes: 
x,y,z [a.u.] :    -2.141152    -0.548136    -0.681114 
x,y,z [Debye]:    -5.442376    -1.393252    -1.731254 

 

Timings for individual modules:

Sum of individual times         ...     7638.822 sec (= 127.314 min)
GTO integral calculation        ...        1.942 sec (=   0.032 min)   0.0 %
SCF iterations                  ...     7477.699 sec (= 124.628 min)  97.9 %
MP2 module                      ...      159.181 sec (=   2.653 min)   2.1 %
                             ****ORCA TERMINATED NORMALLY****
TOTAL RUN TIME: 0 days 2 hours 7 minutes 20 seconds 100 msec
