
                                        *****************
                                        * O   R   C   A *
                                        *****************

                                            #,                                       
                                            ###                                      
                                            ####                                     
                                            #####                                    
                                            ######                                   
                                           ########,                                 
                                     ,,################,,,,,                         
                               ,,#################################,,                 
                          ,,##########################################,,             
                       ,#########################################, ''#####,          
                    ,#############################################,,   '####,        
                  ,##################################################,,,,####,       
                ,###########''''           ''''###############################       
              ,#####''   ,,,,##########,,,,          '''####'''          '####       
            ,##' ,,,,###########################,,,                        '##       
           ' ,,###''''                  '''############,,,                           
         ,,##''                                '''############,,,,        ,,,,,,###''
      ,#''                                            '''#######################'''  
     '                                                          ''''####''''         
             ,#######,   #######,   ,#######,      ##                                
            ,#'     '#,  ##    ##  ,#'     '#,    #''#        ######   ,####,        
            ##       ##  ##   ,#'  ##            #'  '#       #        #'  '#        
            ##       ##  #######   ##           ,######,      #####,   #    #        
            '#,     ,#'  ##    ##  '#,     ,#' ,#      #,         ##   #,  ,#        
             '#######'   ##     ##  '#######'  #'      '#     #####' # '####'        



                  #######################################################
                  #                        -***-                        #
                  #          Department of theory and spectroscopy      #
                  #    Directorship and core code : Frank Neese         #
                  #        Max Planck Institute fuer Kohlenforschung    #
                  #                Kaiser Wilhelm Platz 1               #
                  #                 D-45470 Muelheim/Ruhr               #
                  #                      Germany                        #
                  #                                                     #
                  #                  All rights reserved                #
                  #                        -***-                        #
                  #######################################################


                         Program Version 5.0.0 -  RELEASE  -
                                (SVN: $Rev: 19529$)
                ($Date: 2021-06-28 11:36:33 +0200 (Mo, 28 Jun 2021) $)


 With contributions from (in alphabetic order):
   Daniel Aravena         : Magnetic Suceptibility
   Michael Atanasov       : Ab Initio Ligand Field Theory (pilot matlab implementation)
   Alexander A. Auer      : GIAO ZORA, VPT2 properties, NMR spectrum
   Ute Becker             : Parallelization
   Giovanni Bistoni       : ED, misc. LED, open-shell LED, HFLD
   Martin Brehm           : Molecular dynamics
   Dmytro Bykov           : SCF Hessian
   Vijay G. Chilkuri      : MRCI spin determinant printing, contributions to CSF-ICE
   Dipayan Datta          : RHF DLPNO-CCSD density
   Achintya Kumar Dutta   : EOM-CC, STEOM-CC
   Dmitry Ganyushin       : Spin-Orbit,Spin-Spin,Magnetic field MRCI
   Miquel Garcia          : C-PCM Hessian, Gaussian charge scheme
   Yang Guo               : DLPNO-NEVPT2, F12-NEVPT2, CIM, IAO-localization
   Andreas Hansen         : Spin unrestricted coupled pair/coupled cluster methods
   Benjamin Helmich-Paris : MC-RPA, TRAH-SCF, COSX integrals
   Lee Huntington         : MR-EOM, pCC
   Robert Izsak           : Overlap fitted RIJCOSX, COSX-SCS-MP3, EOM
   Marcus Kettner         : VPT2
   Christian Kollmar      : KDIIS, OOCD, Brueckner-CCSD(T), CCSD density, CASPT2, CASPT2-K
   Simone Kossmann        : Meta GGA functionals, TD-DFT gradient, OOMP2, MP2 Hessian
   Martin Krupicka        : Initial AUTO-CI
   Lucas Lang             : DCDCAS
   Marvin Lechner         : AUTO-CI (C++ implementation), FIC-MRCC
   Dagmar Lenk            : GEPOL surface, SMD
   Dimitrios Liakos       : Extrapolation schemes; Compound Job, initial MDCI parallelization
   Dimitrios Manganas     : Further ROCIS development; embedding schemes
   Dimitrios Pantazis     : SARC Basis sets
   Anastasios Papadopoulos: AUTO-CI, single reference methods and gradients
   Taras Petrenko         : DFT Hessian,TD-DFT gradient, ASA, ECA, R-Raman, ABS, FL, XAS/XES, NRVS
   Peter Pinski           : DLPNO-MP2, DLPNO-MP2 Gradient
   Christoph Reimann      : Effective Core Potentials
   Marius Retegan         : Local ZFS, SOC
   Christoph Riplinger    : Optimizer, TS searches, QM/MM, DLPNO-CCSD(T), (RO)-DLPNO pert. Triples
   Tobias Risthaus        : Range-separated hybrids, TD-DFT gradient, RPA, STAB
   Michael Roemelt        : Original ROCIS implementation
   Masaaki Saitow         : Open-shell DLPNO-CCSD energy and density
   Barbara Sandhoefer     : DKH picture change effects
   Avijit Sen             : IP-ROCIS
   Kantharuban Sivalingam : CASSCF convergence, NEVPT2, FIC-MRCI
   Bernardo de Souza      : ESD, SOC TD-DFT
   Georgi Stoychev        : AutoAux, RI-MP2 NMR
   Willem Van den Heuvel  : Paramagnetic NMR
   Boris Wezisla          : Elementary symmetry handling
   Frank Wennmohs         : Technical directorship


 We gratefully acknowledge several colleagues who have allowed us to
 interface, adapt or use parts of their codes:
   Stefan Grimme, W. Hujo, H. Kruse, P. Pracht,  : VdW corrections, initial TS optimization,
                  C. Bannwarth, S. Ehlert          DFT functionals, gCP, sTDA/sTD-DF
   Ed Valeev, F. Pavosevic, A. Kumar             : LibInt (2-el integral package), F12 methods
   Garnet Chan, S. Sharma, J. Yang, R. Olivares  : DMRG
   Ulf Ekstrom                                   : XCFun DFT Library
   Mihaly Kallay                                 : mrcc  (arbitrary order and MRCC methods)
   Jiri Pittner, Ondrej Demel                    : Mk-CCSD
   Frank Weinhold                                : gennbo (NPA and NBO analysis)
   Christopher J. Cramer and Donald G. Truhlar   : smd solvation model
   Lars Goerigk                                  : TD-DFT with DH, B97 family of functionals
   V. Asgeirsson, H. Jonsson                     : NEB implementation
   FAccTs GmbH                                   : IRC, NEB, NEB-TS, DLPNO-Multilevel, CI-OPT
                                                   MM, QMMM, 2- and 3-layer-ONIOM, Crystal-QMMM,
                                                   LR-CPCM, SF, NACMEs, symmetry and pop. for TD-DFT,
                                                   nearIR, NL-DFT gradient (VV10), updates on ESD,
                                                   ML-optimized integration grids
   S Lehtola, MJT Oliveira, MAL Marques          : LibXC Library
   Liviu Ungur et al                             : ANISO software


 Your calculation uses the libint2 library for the computation of 2-el integrals
 For citations please refer to: http://libint.valeyev.net

 Your ORCA version has been built with support for libXC version: 5.1.0
 For citations please refer to: https://tddft.org/programs/libxc/

 This ORCA versions uses:
   CBLAS   interface :  Fast vector & matrix operations
   LAPACKE interface :  Fast linear algebra routines
   SCALAPACK package :  Parallel linear algebra routines
   Shared memory     :  Shared parallel matrices
   BLAS/LAPACK       :  OpenBLAS 0.3.15  USE64BITINT DYNAMIC_ARCH NO_AFFINITY SkylakeX SINGLE_THREADED
        Core in use  :  SkylakeX
   Copyright (c) 2011-2014, The OpenBLAS Project


================================================================================

----- Orbital basis set information -----
Your calculation utilizes the basis: cc-pVTZ 
       H, B-Ne : Obtained from the ccRepo (grant-hill.group.shef.ac.uk/ccrepo) Feb. 2017
                 T. H. Dunning, Jr., J. Chem. Phys. 90, 1007 (1989)
            He : Obtained from the ccRepo (grant-hill.group.shef.ac.uk/ccrepo) Feb. 2017
                 D. E. Woon, T. H. Dunning, Jr., J. Chem. Phys. 100, 2975 (1994)
  Li-Be, Na-Mg : Obtained from the ccRepo (grant-hill.group.shef.ac.uk/ccrepo) Feb. 2017
                 B. P. Prascher, D. E. Woon, K. A. Peterson, T. H. Dunning, Jr., A. K. Wilson, Theor. Chem. Acc. 128, 69 (2011)
         Al-Ar : Obtained from the ccRepo (grant-hill.group.shef.ac.uk/ccrepo) Feb. 2017
                 D. E. Woon, T. H. Dunning, Jr., J. Chem. Phys. 98, 1358 (1993)
            Ca : Obtained from the Peterson Research Group Website (tyr0.chem.wsu.edu/~kipeters) Feb. 2017
                 J. Koput, K. A. Peterson, J. Phys. Chem. 106, 9595 (2002)
         Sc-Zn : Obtained from the ccRepo (grant-hill.group.shef.ac.uk/ccrepo) Feb. 2017
                 N. B. Balabanov, K. A. Peterson, J. Chem. Phys. 123, 064107 (2005)
                 N. B. Balabanov, K. A. Peterson, J. Chem. Phys. 125, 074110 (2006)
         Ga-Kr : Obtained from the ccRepo (grant-hill.group.shef.ac.uk/ccrepo) Feb. 2017
                 A. K. Wilson, D. E. Woon, K. A. Peterson, T. H. Dunning, Jr., J. Chem. Phys. 110, 7667 (1999)
             Y : Obtained from the ccRepo (grant-hill.group.shef.ac.uk/ccrepo) Feb. 2017
                 K. A. Peterson, D. Figgen, M. Dolg, H. Stoll, J. Chem. Phys. 126, 124101 (2007)
        Ag, Au : Obtained from the Peterson Research Group Website (tyr0.chem.wsu.edu/~kipeters) Feb. 2017
                 K. A. Peterson, C. Puzzarini, Theor. Chem. Acc. 114, 283 (2005)

----- AuxC basis set information -----
Your calculation utilizes the auxiliary basis: cc-pVTZ/C 
  Obtained from the EMSL Basis Set Exchange (bse.pnl.gov) Feb. 2017
  H-He, B-F, Al-Ar, Ga-Kr : F. Weigend, A. Kohn, C. Hattig, J. Chem. Phys. 116, 3175 (2002)
             Li-Be, Na-Mg : C. Haettig, Phys. Chem. Chem. Phys. 7, 59 (2005)
                       Ne : C. Haettig, Phys. Chem. Chem. Phys. 7, 59 (2005)
                            F. Weigend, A. Kohn, C. Hattig, J. Chem. Phys. 116, 3175 (2002)
                    Sc-Zn : J. G. Hill, J. A. Platts, J. Chem. Phys. 128, 044104 (2008)

================================================================================
                                        WARNINGS
                       Please study these warnings very carefully!
================================================================================


WARNING: No MP2 level density has been requested!
         To caclulate MP2 level properties use
         %mp2 Density relaxed end
         or
         %mp2 Density unrelaxed end

WARNING: Post HF methods need fully converged wavefunctions
  ===> : Setting SCFConvForced true
         You can overwrite this default with %scf ConvForced false 


INFO   : the flag for use of the SHARK integral package has been found!

================================================================================
                                       INPUT FILE
================================================================================
NAME = qm_input.solv
|  1> ! RI-MP2 cc-pVTZ cc-pVTZ/c TightSCF KeepDens NoKeepInts
|  2> 
|  3> %pointcharges "srfp_output"
|  4> 
|  5> *xyz  0  1
|  6>     C    15.9379189    5.7994140    9.8132405
|  7>     C    14.8797596    6.0513562   10.9001220
|  8>     O    13.6160051    6.2691179   10.2250466
|  9>     C    12.5338179    6.5955036   11.0113478
| 10>     O    12.4811743    6.5304410   12.2403010
| 11>     C    11.3171803    6.4675502   10.1478378
| 12>     C    11.1929340    6.9558849    8.8832638
| 13>     C    12.1902592    7.7211891    8.0868548
| 14>     N    10.0878141    6.7259604    8.1914914
| 15>     C     8.9315033    6.1419235    8.6678431
| 16>     S     7.5664022    6.1270790    7.7560649
| 17>     N     9.0686247    5.6062561    9.8590075
| 18>     C    10.1752347    5.7712634   10.8032173
| 19>     C    10.5446956    4.4023758   11.3109834
| 20>     C     9.7940393    3.8889318   12.4376757
| 21>     C    10.0740935    2.6188636   13.0200570
| 22>     C    11.1465279    1.8623835   12.4785201
| 23>     C    11.8760160    2.3768468   11.4047866
| 24>     O    12.8700117    1.5977412   10.8968174
| 25>     C    11.5852973    3.6114071   10.8092999
| 26>     H    16.9040132    5.6641527   10.3147939
| 27>     H    16.0032682    6.7159375    9.2141515
| 28>     H    15.5681456    4.9323850    9.2522427
| 29>     H    14.8243492    5.2149137   11.6075704
| 30>     H    15.1989013    6.9776805   11.3933486
| 31>     H    12.8473117    8.3053222    8.7428004
| 32>     H    11.5322523    8.4777974    7.6421516
| 33>     H    12.8144006    7.1762557    7.3680470
| 34>     H    10.0721254    7.0123543    7.2200478
| 35>     H     8.2701921    5.0836582   10.1986591
| 36>     H     9.8031573    6.3758205   11.6394377
| 37>     H     8.9392291    4.4455048   12.8103981
| 38>     H     9.5232867    2.2293168   13.8710924
| 39>     H    11.4294259    0.9347470   12.9672482
| 40>     H    13.1888441    1.0256434   11.6163863
| 41>     H    12.2365099    3.9427553   10.0058522
| 42> *
| 43> 
| 44>                          ****END OF INPUT****
================================================================================

                       ****************************
                       * Single Point Calculation *
                       ****************************

---------------------------------
CARTESIAN COORDINATES (ANGSTROEM)
---------------------------------
  C     15.937919    5.799414    9.813240
  C     14.879760    6.051356   10.900122
  O     13.616005    6.269118   10.225047
  C     12.533818    6.595504   11.011348
  O     12.481174    6.530441   12.240301
  C     11.317180    6.467550   10.147838
  C     11.192934    6.955885    8.883264
  C     12.190259    7.721189    8.086855
  N     10.087814    6.725960    8.191491
  C      8.931503    6.141923    8.667843
  S      7.566402    6.127079    7.756065
  N      9.068625    5.606256    9.859008
  C     10.175235    5.771263   10.803217
  C     10.544696    4.402376   11.310983
  C      9.794039    3.888932   12.437676
  C     10.074094    2.618864   13.020057
  C     11.146528    1.862383   12.478520
  C     11.876016    2.376847   11.404787
  O     12.870012    1.597741   10.896817
  C     11.585297    3.611407   10.809300
  H     16.904013    5.664153   10.314794
  H     16.003268    6.715937    9.214151
  H     15.568146    4.932385    9.252243
  H     14.824349    5.214914   11.607570
  H     15.198901    6.977680   11.393349
  H     12.847312    8.305322    8.742800
  H     11.532252    8.477797    7.642152
  H     12.814401    7.176256    7.368047
  H     10.072125    7.012354    7.220048
  H      8.270192    5.083658   10.198659
  H      9.803157    6.375820   11.639438
  H      8.939229    4.445505   12.810398
  H      9.523287    2.229317   13.871092
  H     11.429426    0.934747   12.967248
  H     13.188844    1.025643   11.616386
  H     12.236510    3.942755   10.005852

----------------------------
CARTESIAN COORDINATES (A.U.)
----------------------------
  NO LB      ZA    FRAG     MASS         X           Y           Z
   0 C     6.0000    0    12.011   30.118302   10.959304   18.544337
   1 C     6.0000    0    12.011   28.118671   11.435406   20.598245
   2 O     8.0000    0    15.999   25.730521   11.846916   19.322538
   3 C     6.0000    0    12.011   23.685483   12.463696   20.808432
   4 O     8.0000    0    15.999   23.586001   12.340745   23.130817
   5 C     6.0000    0    12.011   21.386371   12.221899   19.176634
   6 C     6.0000    0    12.011   21.151580   13.144717   16.786936
   7 C     6.0000    0    12.011   23.036251   14.590933   15.281941
   8 N     7.0000    0    14.007   19.063206   12.710223   15.479675
   9 C     6.0000    0    12.011   16.878095   11.606553   16.379850
  10 S    16.0000    0    32.060   14.298428   11.578501   14.656839
  11 N     7.0000    0    14.007   17.137217   10.594289   18.630824
  12 C     6.0000    0    12.011   19.228407   10.906107   20.415122
  13 C     6.0000    0    12.011   19.926587    8.319285   21.374661
  14 C     6.0000    0    12.011   18.508052    7.349016   23.503801
  15 C     6.0000    0    12.011   19.037278    4.948935   24.604342
  16 C     6.0000    0    12.011   21.063885    3.519395   23.580986
  17 C     6.0000    0    12.011   22.442418    4.491590   21.551923
  18 O     8.0000    0    15.999   24.320797    3.019293   20.592001
  19 C     6.0000    0    12.011   21.893039    6.824570   20.426617
  20 H     1.0000    0     1.008   31.943956   10.703697   19.492136
  21 H     1.0000    0     1.008   30.241794   12.691283   17.412223
  22 H     1.0000    0     1.008   29.419532    9.320857   17.484205
  23 H     1.0000    0     1.008   28.013960    9.854759   21.935129
  24 H     1.0000    0     1.008   28.721761   13.185905   21.530309
  25 H     1.0000    0     1.008   24.277901   15.694784   16.521498
  26 H     1.0000    0     1.008   21.792799   16.020715   14.441574
  27 H     1.0000    0     1.008   24.215708   13.561158   13.923591
  28 H     1.0000    0     1.008   19.033559   13.251429   13.643913
  29 H     1.0000    0     1.008   15.628398    9.606722   19.272673
  30 H     1.0000    0     1.008   18.525283   12.048555   21.995350
  31 H     1.0000    0     1.008   16.892695    8.400787   24.208144
  32 H     1.0000    0     1.008   17.996404    4.212798   26.212566
  33 H     1.0000    0     1.008   21.598485    1.766416   24.504548
  34 H     1.0000    0     1.008   24.923303    1.938185   21.951789
  35 H     1.0000    0     1.008   23.123653    7.450728   18.908320

--------------------------------
INTERNAL COORDINATES (ANGSTROEM)
--------------------------------
 C      0   0   0     0.000000000000     0.00000000     0.00000000
 C      1   0   0     1.537688970943     0.00000000     0.00000000
 O      2   1   0     1.449214404408   107.18444472     0.00000000
 C      3   2   1     1.376926409845   117.06318112   183.78004113
 O      4   3   2     1.231799682712   126.21412126   348.56603277
 C      4   3   2     1.497407306782   106.79875428   192.33869454
 C      6   4   3     1.361269746877   125.39512128   313.89966918
 C      7   6   4     1.488158381482   128.35010158   359.18517062
 N      7   6   4     1.323897398773   119.95352034   176.80438858
 C      9   7   6     1.380240815529   126.33251161     7.66272332
 S     10   9   7     1.641664051625   120.58211244   170.72622979
 N     10   9   7     1.313245776535   113.46336571   349.31592353
 C     12  10   9     1.464016819428   128.16585582    12.40161131
 C     13  12  10     1.506048150084   107.48338712   226.46590805
 C     14  13  12     1.447945151152   117.22431652   274.55929752
 C     15  14  13     1.425016338916   122.15213809   181.34818114
 C     16  15  14     1.419732333245   117.86961797     1.31673693
 C     17  16  15     1.396326968912   119.44779635   359.66902948
 O     18  17  16     1.361273556534   117.22936653   181.80007223
 C     14  13  12     1.400060611758   125.10128495    96.93890689
 H      1   2   3     1.096900008580   107.64369683   178.28918824
 H      1   2   3     1.096901767244   106.86635374    63.09348251
 H      1   2   3     1.096900228753   105.01239394   302.07173997
 H      2   1   3     1.096899998586   111.45021330   122.59542168
 H      2   1   3     1.096905015212   104.83149196   243.51183738
 H      8   7   6     1.096902045048   110.81012825   330.74793175
 H      8   7   6     1.096900239843    99.76833134   222.08907506
 H      8   7   6     1.096899973093   118.46014063    96.90817093
 H      9   7   6     1.012901905046   117.70790208   186.83012519
 H     12  10   9     1.012899990725   115.61350163   186.22350730
 H     13  12  10     1.096902655721   107.30111085   109.24952472
 H     15  14  13     1.085999986103   119.56376093     6.20567986
 H     16  15  14     1.086000042527   122.70280792   179.38862392
 H     17  16  15     1.085999958686   118.70174385   174.56740786
 H     19  18  17     0.973000202416   107.44708132   332.33669629
 H     20  14  13     1.086000776555   122.57585731     1.29093240

---------------------------
INTERNAL COORDINATES (A.U.)
---------------------------
 C      0   0   0     0.000000000000     0.00000000     0.00000000
 C      1   0   0     2.905811034233     0.00000000     0.00000000
 O      2   1   0     2.738618333664   107.18444472     0.00000000
 C      3   2   1     2.602013821171   117.06318112   183.78004113
 O      4   3   2     2.327764052177   126.21412126   348.56603277
 C      4   3   2     2.829689720751   106.79875428   192.33869454
 C      6   4   3     2.572427015991   125.39512128   313.89966918
 C      7   6   4     2.812211784900   128.35010158   359.18517062
 N      7   6   4     2.501803513092   119.95352034   176.80438858
 C      9   7   6     2.608277140209   126.33251161     7.66272332
 S     10   9   7     3.102295461474   120.58211244   170.72622979
 N     10   9   7     2.481674864181   113.46336571   349.31592353
 C     12  10   9     2.766590844174   128.16585582    12.40161131
 C     13  12  10     2.846018548158   107.48338712   226.46590805
 C     14  13  12     2.736219792617   117.22431652   274.55929752
 C     15  14  13     2.692890616915   122.15213809   181.34818114
 C     16  15  14     2.682905293306   117.86961797     1.31673693
 C     17  16  15     2.638675564652   119.44779635   359.66902948
 O     18  17  16     2.572434215198   117.22936653   181.80007223
 C     14  13  12     2.645731127112   125.10128495    96.93890689
 H      1   2   3     2.072840612511   107.64369683   178.28918824
 H      1   2   3     2.072843935906   106.86635374    63.09348251
 H      1   2   3     2.072841028579   105.01239394   302.07173997
 H      2   1   3     2.072840593625   111.45021330   122.59542168
 H      2   1   3     2.072850073675   104.83149196   243.51183738
 H      8   7   6     2.072844460880   110.81012825   330.74793175
 H      8   7   6     2.072841049535    99.76833134   222.08907506
 H      8   7   6     2.072840545450   118.46014063    96.90817093
 H      9   7   6     1.914107201064   117.70790208   186.83012519
 H     12  10   9     1.914103583521   115.61350163   186.22350730
 H     13  12  10     2.072845614883   107.30111085   109.24952472
 H     15  14  13     2.052242555176   119.56376093     6.20567986
 H     16  15  14     2.052242661804   122.70280792   179.38862392
 H     17  16  15     2.052242503366   118.70174385   174.56740786
 H     19  18  17     1.838703910816   107.44708132   332.33669629
 H     20  14  13     2.052244048914   122.57585731     1.29093240

---------------------
BASIS SET INFORMATION
---------------------
There are 5 groups of distinct atoms

 Group   1 Type C   : 18s5p2d1f contracted to 4s3p2d1f pattern {8811/311/11/1}
 Group   2 Type O   : 18s5p2d1f contracted to 4s3p2d1f pattern {8811/311/11/1}
 Group   3 Type N   : 18s5p2d1f contracted to 4s3p2d1f pattern {8811/311/11/1}
 Group   4 Type S   : 41s16p2d1f contracted to 5s4p2d1f pattern {13131311/7711/11/1}
 Group   5 Type H   : 5s2p1d contracted to 3s2p1d pattern {311/11/1}

Atom   0C    basis set group =>   1
Atom   1C    basis set group =>   1
Atom   2O    basis set group =>   2
Atom   3C    basis set group =>   1
Atom   4O    basis set group =>   2
Atom   5C    basis set group =>   1
Atom   6C    basis set group =>   1
Atom   7C    basis set group =>   1
Atom   8N    basis set group =>   3
Atom   9C    basis set group =>   1
Atom  10S    basis set group =>   4
Atom  11N    basis set group =>   3
Atom  12C    basis set group =>   1
Atom  13C    basis set group =>   1
Atom  14C    basis set group =>   1
Atom  15C    basis set group =>   1
Atom  16C    basis set group =>   1
Atom  17C    basis set group =>   1
Atom  18O    basis set group =>   2
Atom  19C    basis set group =>   1
Atom  20H    basis set group =>   5
Atom  21H    basis set group =>   5
Atom  22H    basis set group =>   5
Atom  23H    basis set group =>   5
Atom  24H    basis set group =>   5
Atom  25H    basis set group =>   5
Atom  26H    basis set group =>   5
Atom  27H    basis set group =>   5
Atom  28H    basis set group =>   5
Atom  29H    basis set group =>   5
Atom  30H    basis set group =>   5
Atom  31H    basis set group =>   5
Atom  32H    basis set group =>   5
Atom  33H    basis set group =>   5
Atom  34H    basis set group =>   5
Atom  35H    basis set group =>   5
---------------------------------
AUXILIARY/C BASIS SET INFORMATION
---------------------------------
There are 5 groups of distinct atoms

 Group   1 Type C   : 8s6p5d3f1g contracted to 8s6p5d3f1g pattern {11111111/111111/11111/111/1}
 Group   2 Type O   : 8s6p5d3f1g contracted to 8s6p5d3f1g pattern {11111111/111111/11111/111/1}
 Group   3 Type N   : 8s6p5d3f1g contracted to 8s6p5d3f1g pattern {11111111/111111/11111/111/1}
 Group   4 Type S   : 10s8p7d5f2g contracted to 10s8p7d5f2g pattern {1111111111/11111111/1111111/11111/11}
 Group   5 Type H   : 4s3p2d1f contracted to 4s3p2d1f pattern {1111/111/11/1}

Atom   0C    basis set group =>   1
Atom   1C    basis set group =>   1
Atom   2O    basis set group =>   2
Atom   3C    basis set group =>   1
Atom   4O    basis set group =>   2
Atom   5C    basis set group =>   1
Atom   6C    basis set group =>   1
Atom   7C    basis set group =>   1
Atom   8N    basis set group =>   3
Atom   9C    basis set group =>   1
Atom  10S    basis set group =>   4
Atom  11N    basis set group =>   3
Atom  12C    basis set group =>   1
Atom  13C    basis set group =>   1
Atom  14C    basis set group =>   1
Atom  15C    basis set group =>   1
Atom  16C    basis set group =>   1
Atom  17C    basis set group =>   1
Atom  18O    basis set group =>   2
Atom  19C    basis set group =>   1
Atom  20H    basis set group =>   5
Atom  21H    basis set group =>   5
Atom  22H    basis set group =>   5
Atom  23H    basis set group =>   5
Atom  24H    basis set group =>   5
Atom  25H    basis set group =>   5
Atom  26H    basis set group =>   5
Atom  27H    basis set group =>   5
Atom  28H    basis set group =>   5
Atom  29H    basis set group =>   5
Atom  30H    basis set group =>   5
Atom  31H    basis set group =>   5
Atom  32H    basis set group =>   5
Atom  33H    basis set group =>   5
Atom  34H    basis set group =>   5
Atom  35H    basis set group =>   5
------------------------------------------------------------------------------
                           ORCA GTO INTEGRAL CALCULATION
------------------------------------------------------------------------------
------------------------------------------------------------------------------
                   ___                                                        
                  /   \      - P O W E R E D   B Y -                         
                 /     \                                                     
                 |  |  |   _    _      __       _____    __    __             
                 |  |  |  | |  | |    /  \     |  _  \  |  |  /  |          
                  \  \/   | |  | |   /    \    | | | |  |  | /  /          
                 / \  \   | |__| |  /  /\  \   | |_| |  |  |/  /          
                |  |  |   |  __  | /  /__\  \  |    /   |      \           
                |  |  |   | |  | | |   __   |  |    \   |  |\   \          
                \     /   | |  | | |  |  |  |  | |\  \  |  | \   \       
                 \___/    |_|  |_| |__|  |__|  |_| \__\ |__|  \__/        
                                                                              
                      - O R C A' S   B I G   F R I E N D -                    
                                      &                                       
                       - I N T E G R A L  F E E D E R -                       
                                                                              
 v1 FN, 2020, v2 2021                                                         
------------------------------------------------------------------------------


Reading SHARK input file qm_input.solv.SHARKINP.tmp ... ok
----------------------
SHARK INTEGRAL PACKAGE
----------------------

Number of atoms                             ...     36
Number of basis functions                   ...    828
Number of shells                            ...    298
Maximum angular momentum                    ...      3
Integral batch strategy                     ... SHARK/LIBINT Hybrid
RI-J (if used) integral strategy            ... SPLIT-RIJ (Revised 2003 algorithm where possible)
Printlevel                                  ...      1
Contraction scheme used                     ... SEGMENTED contraction
Coulomb Range Separation                    ... NOT USED
Exchange Range Separation                   ... NOT USED
Finite Nucleus Model                        ... NOT USED
Auxiliary Coulomb fitting basis             ... NOT available
Auxiliary J/K fitting basis                 ... NOT available
Auxiliary Correlation fitting basis         ... AVAILABLE
   # of basis functions in Aux-C            ...   2141
   # of shells in Aux-C                     ...    629
   Maximum angular momentum in Aux-C        ...      4
Auxiliary 'external' fitting basis          ... NOT available
Integral threshold                          ...     2.500000e-11
Primitive cut-off                           ...     2.500000e-12
Primitive pair pre-selection threshold      ...     2.500000e-12

Calculating pre-screening integrals         ... done (  0.5 sec) Dimension = 298
Organizing shell pair data                  ... done (  0.4 sec)
Shell pair information
Total number of shell pairs                 ...     44551
Shell pairs after pre-screening             ...     32938
Total number of primitive shell pairs       ...    234348
Primitive shell pairs kept                  ...     94951
          la=0 lb=0:   6603 shell pairs
          la=1 lb=0:   9173 shell pairs
          la=1 lb=1:   3242 shell pairs
          la=2 lb=0:   5243 shell pairs
          la=2 lb=1:   3586 shell pairs
          la=2 lb=2:   1019 shell pairs
          la=3 lb=0:   1902 shell pairs
          la=3 lb=1:   1296 shell pairs
          la=3 lb=2:    730 shell pairs
          la=3 lb=3:    144 shell pairs

Reading point charge file                   ... ok (41934 point charges)
Calculating one electron integrals          ... done (203.9 sec)
Calculating RI/C V-Matrix + Cholesky decomp.... done (  0.3 sec)
Calculating Nuclear repulsion               ... (+Point charges) done (  0.1 sec) ENN=   1821.652510058543 Eh

SHARK setup successfully completed in 205.7 seconds

Maximum memory used throughout the entire GTOINT-calculation: 487.2 MB
ENUC WAS=  0.000000000
ENUC IS =  0.000000000
-------------------------------------------------------------------------------
                                 ORCA SCF
-------------------------------------------------------------------------------

------------
SCF SETTINGS
------------
Hamiltonian:
 Ab initio Hamiltonian  Method          .... Hartree-Fock(GTOs)


General Settings:
 Integral files         IntName         .... qm_input.solv
 Hartree-Fock type      HFTyp           .... RHF
 Total Charge           Charge          ....    0
 Multiplicity           Mult            ....    1
 Number of Electrons    NEL             ....  154
 Basis Dimension        Dim             ....  828
 Nuclear Repulsion      ENuc            ....   1821.6525100585 Eh

Convergence Acceleration:
 DIIS                   CNVDIIS         .... on
   Start iteration      DIISMaxIt       ....    12
   Startup error        DIISStart       ....  0.200000
   # of expansion vecs  DIISMaxEq       ....     5
   Bias factor          DIISBfac        ....   1.050
   Max. coefficient     DIISMaxC        ....  10.000
 Trust-Rad. Augm. Hess. CNVTRAH         .... auto
   Auto Start mean grad. ratio tolernc. ....  1.125000
   Auto Start start iteration           ....    20
   Auto Start num. interpolation iter.  ....    10
   Max. Number of Micro iterations      ....    16
   Max. Number of Macro iterations      .... Maxiter - #DIIS iter
   Number of Davidson start vectors     ....     2
   Converg. threshold I  (grad. norm)   ....   1.000e-05
   Converg. threshold II (energy diff.) ....   1.000e-08
   Grad. Scal. Fac. for Micro threshold ....   0.100
   Minimum threshold for Micro iter.    ....   0.010
   NR start threshold (gradient norm)   ....   0.001
   Initial trust radius                 ....   0.400
   Minimum AH scaling param. (alpha)    ....   1.000
   Maximum AH scaling param. (alpha)    .... 1000.000
   Orbital update algorithm             .... Taylor
   White noise on init. David. guess    .... on
   Maximum white noise                  ....   0.010
   Quad. conv. algorithm                .... NR
 SOSCF                  CNVSOSCF        .... on
   Start iteration      SOSCFMaxIt      ....   150
   Startup grad/error   SOSCFStart      ....  0.003300
 Level Shifting         CNVShift        .... on
   Level shift para.    LevelShift      ....    0.2500
   Turn off err/grad.   ShiftErr        ....    0.0010
 Zerner damping         CNVZerner       .... off
 Static damping         CNVDamp         .... on
   Fraction old density DampFac         ....    0.7000
   Max. Damping (<1)    DampMax         ....    0.9800
   Min. Damping (>=0)   DampMin         ....    0.0000
   Turn off err/grad.   DampErr         ....    0.1000
 Fernandez-Rico         CNVRico         .... off

SCF Procedure:
 Maximum # iterations   MaxIter         ....   125
 SCF integral mode      SCFMode         .... Direct
   Integral package                     .... SHARK and LIBINT hybrid scheme
 Reset frequency        DirectResetFreq ....    20
 Integral Threshold     Thresh          ....  2.500e-11 Eh
 Primitive CutOff       TCut            ....  2.500e-12 Eh

Convergence Tolerance:
 Convergence Check Mode ConvCheckMode   .... Total+1el-Energy
 Convergence forced     ConvForced      .... 1
 Energy Change          TolE            ....  1.000e-08 Eh
 1-El. energy change                    ....  1.000e-05 Eh
 Orbital Gradient       TolG            ....  1.000e-05
 Orbital Rotation angle TolX            ....  1.000e-05
 DIIS Error             TolErr          ....  5.000e-07


Diagonalization of the overlap matrix:
Smallest eigenvalue                        ... 3.546e-05
Time for diagonalization                   ...    0.105 sec
Threshold for overlap eigenvalues          ... 1.000e-08
Number of eigenvalues below threshold      ... 0
Time for construction of square roots      ...    0.999 sec
Total time needed                          ...    1.106 sec

Time for model grid setup =    1.329 sec

------------------------------
INITIAL GUESS: MODEL POTENTIAL
------------------------------
Loading Hartree-Fock densities                     ... done
Calculating cut-offs                               ... done
Initializing the effective Hamiltonian             ... done
Setting up the integral package (SHARK)            ... done
Starting the Coulomb interaction                   ... done (   3.5 sec)
Reading the grid                                   ... done
Mapping shells                                     ... done
Starting the XC term evaluation                    ... done (   1.3 sec)
Transforming the Hamiltonian                       ... done (   0.0 sec)
Diagonalizing the Hamiltonian                      ... done (   0.1 sec)
Back transforming the eigenvectors                 ... done (   0.0 sec)
Now organizing SCF variables                       ... done
                      ------------------
                      INITIAL GUESS DONE (   6.4 sec)
                      ------------------
--------------
SCF ITERATIONS
--------------
ITER       Energy         Delta-E        Max-DP      RMS-DP      [F,P]     Damp
               ***  Starting incremental Fock matrix formation  ***
  0  -1270.0691905412   0.000000000000 0.04795076  0.00048262  0.3798232 0.7000
  1  -1270.3595800532  -0.290389511958 0.03566707  0.00038841  0.2204184 0.7000
                               ***Turning on DIIS***
  2  -1270.5392977285  -0.179717675318 0.02591587  0.00025369  0.1167751 0.7000
  3  -1272.6808994661  -2.141601737620 0.06474868  0.00053287  0.0847003 0.0000
  4  -1270.8846134624   1.796286003718 0.00817076  0.00010919  0.0094132 0.0000
  5  -1270.9340829986  -0.049469536180 0.00546305  0.00005886  0.0057858 0.0000
  6  -1270.9112250673   0.022857931327 0.00327048  0.00002948  0.0042112 0.0000
                      *** Initiating the SOSCF procedure ***
                           *** Shutting down DIIS ***
                      *** Re-Reading the Fockian *** 
                      *** Removing any level shift *** 
ITER      Energy       Delta-E        Grad      Rot      Max-DP    RMS-DP
  7  -1270.92701685  -0.0157917792  0.001192  0.001192  0.001942  0.000017
               *** Restarting incremental Fock matrix formation ***
  8  -1270.92843303  -0.0014161843  0.000555  0.001191  0.000782  0.000009
  9  -1270.92844840  -0.0000153736  0.000243  0.001310  0.001068  0.000012
 10  -1270.92845451  -0.0000061088  0.000069  0.000120  0.000195  0.000002
 11  -1270.92845514  -0.0000006221  0.000037  0.000093  0.000079  0.000001
 12  -1270.92845524  -0.0000001019  0.000017  0.000072  0.000036  0.000000
 13  -1270.92845526  -0.0000000204  0.000010  0.000057  0.000025  0.000000
                  ***Gradient check signals convergence***
              ***Rediagonalizing the Fockian in SOSCF/NRSCF***

               *****************************************************
               *                     SUCCESS                       *
               *           SCF CONVERGED AFTER  14 CYCLES          *
               *****************************************************


----------------
TOTAL SCF ENERGY
----------------

Total Energy       :        -1270.92845526 Eh          -34583.72147 eV

Components:
Nuclear Repulsion  :         1821.65251006 Eh           49569.68487 eV
Electronic Energy  :        -3092.58096532 Eh          -84153.40634 eV
One Electron Energy:        -5247.62743638 Eh         -142795.20211 eV
Two Electron Energy:         2155.04647106 Eh           58641.79577 eV

Virial components:
Potential Energy   :        -2540.26852054 Eh          -69124.22065 eV
Kinetic Energy     :         1269.34006527 Eh           34540.49918 eV
Virial Ratio       :            2.00125135


---------------
SCF CONVERGENCE
---------------

  Last Energy change         ...   -5.4720e-09  Tolerance :   1.0000e-08
  Last MAX-Density change    ...    5.6490e-06  Tolerance :   1.0000e-07
  Last RMS-Density change    ...    4.7728e-08  Tolerance :   5.0000e-09
  Last Orbital Gradient      ...    2.2202e-06  Tolerance :   1.0000e-05
  Last Orbital Rotation      ...    5.2156e-06  Tolerance :   1.0000e-05

             **** THE GBW FILE WAS UPDATED (qm_input.solv.gbw) ****
             **** DENSITY qm_input.solv.scfp WAS UPDATED ****
             **** ENERGY FILE WAS UPDATED (qm_input.solv.en.tmp) ****
             **** THE GBW FILE WAS UPDATED (qm_input.solv.gbw) ****
             **** DENSITY qm_input.solv.scfp WAS UPDATED ****
----------------
ORBITAL ENERGIES
----------------

  NO   OCC          E(Eh)            E(eV) 
   0   2.0000     -92.683379     -2522.0430 
   1   2.0000     -21.365425      -581.3828 
   2   2.0000     -21.340425      -580.7025 
   3   2.0000     -21.328700      -580.3834 
   4   2.0000     -16.377838      -445.6636 
   5   2.0000     -16.374690      -445.5780 
   6   2.0000     -12.169753      -331.1558 
   7   2.0000     -12.158773      -330.8570 
   8   2.0000     -12.073725      -328.5428 
   9   2.0000     -12.063552      -328.2659 
  10   2.0000     -12.060127      -328.1727 
  11   2.0000     -12.037689      -327.5622 
  12   2.0000     -12.018546      -327.0413 
  13   2.0000     -12.007596      -326.7433 
  14   2.0000     -11.997771      -326.4759 
  15   2.0000     -11.996212      -326.4335 
  16   2.0000     -11.995596      -326.4168 
  17   2.0000     -11.991440      -326.3037 
  18   2.0000     -11.988343      -326.2194 
  19   2.0000     -11.970406      -325.7313 
  20   2.0000      -9.690761      -263.6990 
  21   2.0000      -7.372905      -200.6270 
  22   2.0000      -7.370757      -200.5685 
  23   2.0000      -7.370374      -200.5581 
  24   2.0000      -2.212132       -60.1952 
  25   2.0000      -2.160692       -58.7954 
  26   2.0000      -2.128066       -57.9076 
  27   2.0000      -2.124520       -57.8111 
  28   2.0000      -2.018087       -54.9150 
  29   2.0000      -1.914116       -52.0857 
  30   2.0000      -1.878562       -51.1183 
  31   2.0000      -1.798524       -48.9403 
  32   2.0000      -1.794316       -48.8258 
  33   2.0000      -1.765632       -48.0453 
  34   2.0000      -1.759622       -47.8817 
  35   2.0000      -1.749687       -47.6114 
  36   2.0000      -1.685838       -45.8740 
  37   2.0000      -1.637115       -44.5482 
  38   2.0000      -1.616888       -43.9978 
  39   2.0000      -1.587580       -43.2002 
  40   2.0000      -1.583238       -43.0821 
  41   2.0000      -1.568009       -42.6677 
  42   2.0000      -1.517948       -41.3055 
  43   2.0000      -1.508287       -41.0426 
  44   2.0000      -1.481518       -40.3142 
  45   2.0000      -1.456104       -39.6226 
  46   2.0000      -1.447281       -39.3825 
  47   2.0000      -1.440960       -39.2105 
  48   2.0000      -1.430724       -38.9320 
  49   2.0000      -1.421519       -38.6815 
  50   2.0000      -1.412130       -38.4260 
  51   2.0000      -1.401065       -38.1249 
  52   2.0000      -1.393845       -37.9284 
  53   2.0000      -1.366324       -37.1796 
  54   2.0000      -1.360700       -37.0265 
  55   2.0000      -1.354513       -36.8582 
  56   2.0000      -1.345522       -36.6135 
  57   2.0000      -1.330816       -36.2134 
  58   2.0000      -1.327000       -36.1095 
  59   2.0000      -1.321370       -35.9563 
  60   2.0000      -1.313080       -35.7307 
  61   2.0000      -1.302055       -35.4307 
  62   2.0000      -1.289682       -35.0940 
  63   2.0000      -1.283035       -34.9132 
  64   2.0000      -1.272775       -34.6340 
  65   2.0000      -1.269645       -34.5488 
  66   2.0000      -1.249452       -33.9993 
  67   2.0000      -1.244829       -33.8735 
  68   2.0000      -1.235497       -33.6196 
  69   2.0000      -1.231508       -33.5110 
  70   2.0000      -1.226945       -33.3869 
  71   2.0000      -1.219272       -33.1781 
  72   2.0000      -1.133995       -30.8576 
  73   2.0000      -1.131012       -30.7764 
  74   2.0000      -1.101348       -29.9692 
  75   2.0000      -1.085811       -29.5464 
  76   2.0000      -1.072254       -29.1775 
  77   0.0000      -0.683176       -18.5902 
  78   0.0000      -0.647858       -17.6291 
  79   0.0000      -0.626145       -17.0383 
  80   0.0000      -0.619676       -16.8622 
  81   0.0000      -0.607315       -16.5259 
  82   0.0000      -0.589398       -16.0383 
  83   0.0000      -0.582674       -15.8554 
  84   0.0000      -0.578336       -15.7373 
  85   0.0000      -0.572003       -15.5650 
  86   0.0000      -0.566441       -15.4137 
  87   0.0000      -0.555847       -15.1254 
  88   0.0000      -0.547157       -14.8889 
  89   0.0000      -0.538066       -14.6415 
  90   0.0000      -0.535178       -14.5629 
  91   0.0000      -0.525758       -14.3066 
  92   0.0000      -0.519487       -14.1360 
  93   0.0000      -0.510484       -13.8910 
  94   0.0000      -0.506311       -13.7774 
  95   0.0000      -0.497125       -13.5275 
  96   0.0000      -0.493205       -13.4208 
  97   0.0000      -0.489506       -13.3201 
  98   0.0000      -0.482858       -13.1392 
  99   0.0000      -0.465932       -12.6787 
 100   0.0000      -0.458816       -12.4850 
 101   0.0000      -0.450866       -12.2687 
 102   0.0000      -0.438084       -11.9209 
 103   0.0000      -0.433192       -11.7878 
 104   0.0000      -0.424560       -11.5529 
 105   0.0000      -0.423413       -11.5216 
 106   0.0000      -0.411211       -11.1896 
 107   0.0000      -0.397892       -10.8272 
 108   0.0000      -0.391946       -10.6654 
 109   0.0000      -0.384152       -10.4533 
 110   0.0000      -0.376672       -10.2498 
 111   0.0000      -0.373444       -10.1619 
 112   0.0000      -0.364954        -9.9309 
 113   0.0000      -0.355147        -9.6640 
 114   0.0000      -0.348063        -9.4713 
 115   0.0000      -0.339865        -9.2482 
 116   0.0000      -0.337137        -9.1740 
 117   0.0000      -0.332284        -9.0419 
 118   0.0000      -0.327227        -8.9043 
 119   0.0000      -0.319875        -8.7042 
 120   0.0000      -0.314576        -8.5601 
 121   0.0000      -0.308195        -8.3864 
 122   0.0000      -0.296223        -8.0606 
 123   0.0000      -0.292391        -7.9564 
 124   0.0000      -0.286591        -7.7985 
 125   0.0000      -0.284205        -7.7336 
 126   0.0000      -0.277704        -7.5567 
 127   0.0000      -0.270985        -7.3739 
 128   0.0000      -0.265727        -7.2308 
 129   0.0000      -0.255365        -6.9488 
 130   0.0000      -0.255103        -6.9417 
 131   0.0000      -0.250105        -6.8057 
 132   0.0000      -0.247155        -6.7254 
 133   0.0000      -0.243747        -6.6327 
 134   0.0000      -0.233159        -6.3446 
 135   0.0000      -0.231877        -6.3097 
 136   0.0000      -0.225478        -6.1356 
 137   0.0000      -0.220965        -6.0128 
 138   0.0000      -0.213642        -5.8135 
 139   0.0000      -0.209422        -5.6987 
 140   0.0000      -0.205297        -5.5864 
 141   0.0000      -0.200658        -5.4602 
 142   0.0000      -0.195881        -5.3302 
 143   0.0000      -0.184971        -5.0333 
 144   0.0000      -0.174038        -4.7358 
 145   0.0000      -0.168641        -4.5889 
 146   0.0000      -0.167791        -4.5658 
 147   0.0000      -0.163214        -4.4413 
 148   0.0000      -0.159465        -4.3393 
 149   0.0000      -0.152528        -4.1505 
 150   0.0000      -0.145614        -3.9624 
 151   0.0000      -0.141909        -3.8615 
 152   0.0000      -0.134098        -3.6490 
 153   0.0000      -0.129608        -3.5268 
 154   0.0000      -0.125606        -3.4179 
 155   0.0000      -0.123381        -3.3574 
 156   0.0000      -0.116318        -3.1652 
 157   0.0000      -0.110831        -3.0159 
 158   0.0000      -0.109093        -2.9686 
 159   0.0000      -0.103122        -2.8061 
 160   0.0000      -0.094938        -2.5834 
 161   0.0000      -0.088845        -2.4176 
 162   0.0000      -0.088517        -2.4087 
 163   0.0000      -0.083605        -2.2750 
 164   0.0000      -0.082162        -2.2357 
 165   0.0000      -0.078799        -2.1442 
 166   0.0000      -0.067311        -1.8316 
 167   0.0000      -0.062772        -1.7081 
 168   0.0000      -0.061799        -1.6816 
 169   0.0000      -0.051622        -1.4047 
 170   0.0000      -0.046743        -1.2719 
 171   0.0000      -0.043988        -1.1970 
 172   0.0000      -0.029838        -0.8119 
 173   0.0000      -0.027467        -0.7474 
 174   0.0000      -0.024562        -0.6684 
 175   0.0000      -0.022410        -0.6098 
 176   0.0000      -0.015257        -0.4152 
 177   0.0000      -0.009359        -0.2547 
 178   0.0000      -0.007205        -0.1961 
 179   0.0000       0.004048         0.1101 
 180   0.0000       0.008817         0.2399 
 181   0.0000       0.018211         0.4955 
 182   0.0000       0.024132         0.6567 
 183   0.0000       0.039015         1.0617 
 184   0.0000       0.045496         1.2380 
 185   0.0000       0.050016         1.3610 
 186   0.0000       0.057851         1.5742 
 187   0.0000       0.060810         1.6547 
 188   0.0000       0.077254         2.1022 
 189   0.0000       0.082791         2.2529 
 190   0.0000       0.084867         2.3093 
 191   0.0000       0.093737         2.5507 
 192   0.0000       0.102494         2.7890 
 193   0.0000       0.107730         2.9315 
 194   0.0000       0.118004         3.2111 
 195   0.0000       0.125809         3.4234 
 196   0.0000       0.134420         3.6578 
 197   0.0000       0.140528         3.8240 
 198   0.0000       0.144252         3.9253 
 199   0.0000       0.149567         4.0699 
 200   0.0000       0.157605         4.2887 
 201   0.0000       0.160258         4.3608 
 202   0.0000       0.176241         4.7958 
 203   0.0000       0.185151         5.0382 
 204   0.0000       0.189043         5.1441 
 205   0.0000       0.196650         5.3511 
 206   0.0000       0.200120         5.4455 
 207   0.0000       0.205338         5.5875 
 208   0.0000       0.214345         5.8326 
 209   0.0000       0.225204         6.1281 
 210   0.0000       0.231975         6.3124 
 211   0.0000       0.236009         6.4221 
 212   0.0000       0.238648         6.4939 
 213   0.0000       0.245485         6.6800 
 214   0.0000       0.256480         6.9792 
 215   0.0000       0.266132         7.2418 
 216   0.0000       0.271274         7.3817 
 217   0.0000       0.276438         7.5223 
 218   0.0000       0.280604         7.6356 
 219   0.0000       0.285075         7.7573 
 220   0.0000       0.294322         8.0089 
 221   0.0000       0.297852         8.1050 
 222   0.0000       0.305872         8.3232 
 223   0.0000       0.314690         8.5632 
 224   0.0000       0.323951         8.8151 
 225   0.0000       0.326130         8.8744 
 226   0.0000       0.328157         8.9296 
 227   0.0000       0.345401         9.3989 
 228   0.0000       0.347093         9.4449 
 229   0.0000       0.363625         9.8947 
 230   0.0000       0.381021        10.3681 
 231   0.0000       0.386958        10.5297 
 232   0.0000       0.389817        10.6074 
 233   0.0000       0.397691        10.8217 
 234   0.0000       0.404840        11.0163 
 235   0.0000       0.413085        11.2406 
 236   0.0000       0.421188        11.4611 
 237   0.0000       0.427672        11.6375 
 238   0.0000       0.432997        11.7824 
 239   0.0000       0.445557        12.1242 
 240   0.0000       0.447574        12.1791 
 241   0.0000       0.452817        12.3218 
 242   0.0000       0.459875        12.5138 
 243   0.0000       0.471509        12.8304 
 244   0.0000       0.475392        12.9361 
 245   0.0000       0.482900        13.1404 
 246   0.0000       0.492309        13.3964 
 247   0.0000       0.499085        13.5808 
 248   0.0000       0.502516        13.6741 
 249   0.0000       0.514189        13.9918 
 250   0.0000       0.523185        14.2366 
 251   0.0000       0.529308        14.4032 
 252   0.0000       0.537260        14.6196 
 253   0.0000       0.549310        14.9475 
 254   0.0000       0.552121        15.0240 
 255   0.0000       0.563084        15.3223 
 256   0.0000       0.572426        15.5765 
 257   0.0000       0.573391        15.6028 
 258   0.0000       0.585332        15.9277 
 259   0.0000       0.591412        16.0931 
 260   0.0000       0.597167        16.2497 
 261   0.0000       0.605238        16.4694 
 262   0.0000       0.612823        16.6758 
 263   0.0000       0.615437        16.7469 
 264   0.0000       0.625508        17.0209 
 265   0.0000       0.632311        17.2061 
 266   0.0000       0.641143        17.4464 
 267   0.0000       0.646691        17.5973 
 268   0.0000       0.649211        17.6659 
 269   0.0000       0.663425        18.0527 
 270   0.0000       0.670888        18.2558 
 271   0.0000       0.678246        18.4560 
 272   0.0000       0.680610        18.5203 
 273   0.0000       0.689994        18.7757 
 274   0.0000       0.700390        19.0586 
 275   0.0000       0.716734        19.5033 
 276   0.0000       0.717824        19.5330 
 277   0.0000       0.728104        19.8127 
 278   0.0000       0.733842        19.9689 
 279   0.0000       0.738344        20.0913 
 280   0.0000       0.747300        20.3351 
 281   0.0000       0.755288        20.5524 
 282   0.0000       0.758869        20.6499 
 283   0.0000       0.768322        20.9071 
 284   0.0000       0.769742        20.9458 
 285   0.0000       0.779716        21.2172 
 286   0.0000       0.784006        21.3339 
 287   0.0000       0.793632        21.5958 
 288   0.0000       0.801576        21.8120 
 289   0.0000       0.805453        21.9175 
 290   0.0000       0.811552        22.0834 
 291   0.0000       0.814422        22.1616 
 292   0.0000       0.826425        22.4882 
 293   0.0000       0.836423        22.7602 
 294   0.0000       0.839946        22.8561 
 295   0.0000       0.848873        23.0990 
 296   0.0000       0.854049        23.2399 
 297   0.0000       0.862612        23.4729 
 298   0.0000       0.868900        23.6440 
 299   0.0000       0.879484        23.9320 
 300   0.0000       0.886016        24.1097 
 301   0.0000       0.886792        24.1308 
 302   0.0000       0.895454        24.3665 
 303   0.0000       0.903471        24.5847 
 304   0.0000       0.906469        24.6663 
 305   0.0000       0.919613        25.0239 
 306   0.0000       0.924917        25.1683 
 307   0.0000       0.935058        25.4442 
 308   0.0000       0.938693        25.5431 
 309   0.0000       0.951203        25.8835 
 310   0.0000       0.956670        26.0323 
 311   0.0000       0.959105        26.0986 
 312   0.0000       0.977170        26.5901 
 313   0.0000       0.993124        27.0243 
 314   0.0000       1.009538        27.4709 
 315   0.0000       1.012282        27.5456 
 316   0.0000       1.027439        27.9580 
 317   0.0000       1.032322        28.0909 
 318   0.0000       1.039813        28.2947 
 319   0.0000       1.054260        28.6879 
 320   0.0000       1.060744        28.8643 
 321   0.0000       1.073516        29.2119 
 322   0.0000       1.082677        29.4611 
 323   0.0000       1.088234        29.6123 
 324   0.0000       1.100220        29.9385 
 325   0.0000       1.114126        30.3169 
 326   0.0000       1.127097        30.6699 
 327   0.0000       1.130242        30.7555 
 328   0.0000       1.143145        31.1065 
 329   0.0000       1.157403        31.4945 
 330   0.0000       1.162564        31.6350 
 331   0.0000       1.169027        31.8109 
 332   0.0000       1.179815        32.1044 
 333   0.0000       1.181402        32.1476 
 334   0.0000       1.196684        32.5634 
 335   0.0000       1.208744        32.8916 
 336   0.0000       1.210913        32.9506 
 337   0.0000       1.231447        33.5094 
 338   0.0000       1.240406        33.7532 
 339   0.0000       1.251300        34.0496 
 340   0.0000       1.257040        34.2058 
 341   0.0000       1.270356        34.5681 
 342   0.0000       1.281184        34.8628 
 343   0.0000       1.299543        35.3624 
 344   0.0000       1.320323        35.9278 
 345   0.0000       1.324544        36.0427 
 346   0.0000       1.346466        36.6392 
 347   0.0000       1.367826        37.2205 
 348   0.0000       1.397835        38.0370 
 349   0.0000       1.417314        38.5671 
 350   0.0000       1.436605        39.0920 
 351   0.0000       1.449858        39.4526 
 352   0.0000       1.460900        39.7531 
 353   0.0000       1.471229        40.0342 
 354   0.0000       1.477593        40.2073 
 355   0.0000       1.479898        40.2701 
 356   0.0000       1.487126        40.4668 
 357   0.0000       1.496516        40.7223 
 358   0.0000       1.513803        41.1927 
 359   0.0000       1.528570        41.5945 
 360   0.0000       1.544879        42.0383 
 361   0.0000       1.553909        42.2840 
 362   0.0000       1.576826        42.9076 
 363   0.0000       1.582638        43.0658 
 364   0.0000       1.595947        43.4279 
 365   0.0000       1.611106        43.8404 
 366   0.0000       1.620625        44.0995 
 367   0.0000       1.621916        44.1346 
 368   0.0000       1.640502        44.6403 
 369   0.0000       1.643760        44.7290 
 370   0.0000       1.662078        45.2274 
 371   0.0000       1.676515        45.6203 
 372   0.0000       1.701827        46.3091 
 373   0.0000       1.728993        47.0483 
 374   0.0000       1.740762        47.3685 
 375   0.0000       1.752343        47.6837 
 376   0.0000       1.761449        47.9315 
 377   0.0000       1.776302        48.3356 
 378   0.0000       1.797781        48.9201 
 379   0.0000       1.823185        49.6114 
 380   0.0000       1.830720        49.8164 
 381   0.0000       1.844214        50.1836 
 382   0.0000       1.845148        50.2090 
 383   0.0000       1.860533        50.6277 
 384   0.0000       1.871597        50.9287 
 385   0.0000       1.877552        51.0908 
 386   0.0000       1.887768        51.3688 
 387   0.0000       1.894027        51.5391 
 388   0.0000       1.900276        51.7091 
 389   0.0000       1.916525        52.1513 
 390   0.0000       1.918746        52.2117 
 391   0.0000       1.928123        52.4669 
 392   0.0000       1.943704        52.8909 
 393   0.0000       1.948655        53.0256 
 394   0.0000       1.963688        53.4347 
 395   0.0000       1.973517        53.7021 
 396   0.0000       1.976228        53.7759 
 397   0.0000       1.987740        54.0892 
 398   0.0000       2.006297        54.5941 
 399   0.0000       2.018366        54.9225 
 400   0.0000       2.022762        55.0422 
 401   0.0000       2.032611        55.3102 
 402   0.0000       2.042961        55.5918 
 403   0.0000       2.050062        55.7850 
 404   0.0000       2.053591        55.8811 
 405   0.0000       2.069038        56.3014 
 406   0.0000       2.077757        56.5386 
 407   0.0000       2.087470        56.8030 
 408   0.0000       2.101931        57.1964 
 409   0.0000       2.104988        57.2796 
 410   0.0000       2.127545        57.8935 
 411   0.0000       2.130447        57.9724 
 412   0.0000       2.139677        58.2236 
 413   0.0000       2.146924        58.4208 
 414   0.0000       2.150234        58.5109 
 415   0.0000       2.159235        58.7558 
 416   0.0000       2.172772        59.1241 
 417   0.0000       2.190588        59.6089 
 418   0.0000       2.198430        59.8223 
 419   0.0000       2.203822        59.9690 
 420   0.0000       2.216449        60.3126 
 421   0.0000       2.221489        60.4498 
 422   0.0000       2.234785        60.8116 
 423   0.0000       2.235690        60.8362 
 424   0.0000       2.246416        61.1281 
 425   0.0000       2.262255        61.5591 
 426   0.0000       2.268368        61.7254 
 427   0.0000       2.278767        62.0084 
 428   0.0000       2.288908        62.2844 
 429   0.0000       2.293339        62.4049 
 430   0.0000       2.301705        62.6326 
 431   0.0000       2.306196        62.7548 
 432   0.0000       2.313143        62.9438 
 433   0.0000       2.313664        62.9580 
 434   0.0000       2.322813        63.2069 
 435   0.0000       2.336854        63.5890 
 436   0.0000       2.338594        63.6364 
 437   0.0000       2.349686        63.9382 
 438   0.0000       2.352260        64.0083 
 439   0.0000       2.364576        64.3434 
 440   0.0000       2.369511        64.4777 
 441   0.0000       2.376063        64.6560 
 442   0.0000       2.379904        64.7605 
 443   0.0000       2.391066        65.0642 
 444   0.0000       2.395335        65.1804 
 445   0.0000       2.408496        65.5385 
 446   0.0000       2.418510        65.8110 
 447   0.0000       2.424879        65.9843 
 448   0.0000       2.429327        66.1053 
 449   0.0000       2.435135        66.2634 
 450   0.0000       2.442562        66.4655 
 451   0.0000       2.454397        66.7875 
 452   0.0000       2.462297        67.0025 
 453   0.0000       2.467301        67.1387 
 454   0.0000       2.473772        67.3147 
 455   0.0000       2.481682        67.5300 
 456   0.0000       2.493275        67.8455 
 457   0.0000       2.498438        67.9859 
 458   0.0000       2.510543        68.3153 
 459   0.0000       2.512036        68.3560 
 460   0.0000       2.522017        68.6276 
 461   0.0000       2.529330        68.8266 
 462   0.0000       2.533909        68.9512 
 463   0.0000       2.538259        69.0696 
 464   0.0000       2.544433        69.2375 
 465   0.0000       2.548275        69.3421 
 466   0.0000       2.556342        69.5616 
 467   0.0000       2.565034        69.7981 
 468   0.0000       2.572989        70.0146 
 469   0.0000       2.580113        70.2085 
 470   0.0000       2.583593        70.3031 
 471   0.0000       2.588128        70.4265 
 472   0.0000       2.593168        70.5637 
 473   0.0000       2.598702        70.7143 
 474   0.0000       2.607693        70.9589 
 475   0.0000       2.615359        71.1675 
 476   0.0000       2.622697        71.3672 
 477   0.0000       2.629799        71.5605 
 478   0.0000       2.634152        71.6789 
 479   0.0000       2.642267        71.8998 
 480   0.0000       2.648171        72.0604 
 481   0.0000       2.652399        72.1754 
 482   0.0000       2.659091        72.3575 
 483   0.0000       2.661408        72.4206 
 484   0.0000       2.666951        72.5714 
 485   0.0000       2.674919        72.7882 
 486   0.0000       2.678705        72.8913 
 487   0.0000       2.689666        73.1895 
 488   0.0000       2.700952        73.4966 
 489   0.0000       2.702153        73.5293 
 490   0.0000       2.704877        73.6034 
 491   0.0000       2.706700        73.6530 
 492   0.0000       2.712010        73.7975 
 493   0.0000       2.719700        74.0068 
 494   0.0000       2.723092        74.0991 
 495   0.0000       2.734645        74.4135 
 496   0.0000       2.737778        74.4987 
 497   0.0000       2.740584        74.5751 
 498   0.0000       2.749676        74.8225 
 499   0.0000       2.756310        75.0030 
 500   0.0000       2.760560        75.1187 
 501   0.0000       2.769254        75.3552 
 502   0.0000       2.777943        75.5917 
 503   0.0000       2.778916        75.6181 
 504   0.0000       2.786359        75.8207 
 505   0.0000       2.795237        76.0623 
 506   0.0000       2.797968        76.1366 
 507   0.0000       2.803624        76.2905 
 508   0.0000       2.814503        76.5865 
 509   0.0000       2.818093        76.6842 
 510   0.0000       2.831499        77.0490 
 511   0.0000       2.834369        77.1271 
 512   0.0000       2.840401        77.2912 
 513   0.0000       2.847622        77.4877 
 514   0.0000       2.852506        77.6206 
 515   0.0000       2.866654        78.0056 
 516   0.0000       2.871432        78.1356 
 517   0.0000       2.883287        78.4582 
 518   0.0000       2.886968        78.5584 
 519   0.0000       2.895198        78.7824 
 520   0.0000       2.901305        78.9485 
 521   0.0000       2.911992        79.2393 
 522   0.0000       2.915820        79.3435 
 523   0.0000       2.919727        79.4498 
 524   0.0000       2.923977        79.5655 
 525   0.0000       2.935510        79.8793 
 526   0.0000       2.939468        79.9870 
 527   0.0000       2.942704        80.0751 
 528   0.0000       2.953535        80.3698 
 529   0.0000       2.958292        80.4992 
 530   0.0000       2.963714        80.6467 
 531   0.0000       2.971399        80.8559 
 532   0.0000       2.975599        80.9702 
 533   0.0000       2.988176        81.3124 
 534   0.0000       2.999996        81.6340 
 535   0.0000       3.001841        81.6842 
 536   0.0000       3.011035        81.9344 
 537   0.0000       3.024403        82.2982 
 538   0.0000       3.026197        82.3470 
 539   0.0000       3.035305        82.5948 
 540   0.0000       3.039143        82.6993 
 541   0.0000       3.048485        82.9535 
 542   0.0000       3.056069        83.1599 
 543   0.0000       3.060674        83.2852 
 544   0.0000       3.066510        83.4440 
 545   0.0000       3.074257        83.6548 
 546   0.0000       3.078623        83.7736 
 547   0.0000       3.081976        83.8648 
 548   0.0000       3.087533        84.0160 
 549   0.0000       3.093465        84.1775 
 550   0.0000       3.101997        84.4096 
 551   0.0000       3.113401        84.7199 
 552   0.0000       3.121237        84.9332 
 553   0.0000       3.137737        85.3822 
 554   0.0000       3.139593        85.4327 
 555   0.0000       3.150282        85.7235 
 556   0.0000       3.153348        85.8070 
 557   0.0000       3.170395        86.2708 
 558   0.0000       3.172869        86.3382 
 559   0.0000       3.187589        86.7387 
 560   0.0000       3.209627        87.3384 
 561   0.0000       3.215483        87.4977 
 562   0.0000       3.219590        87.6095 
 563   0.0000       3.232383        87.9576 
 564   0.0000       3.235367        88.0388 
 565   0.0000       3.242994        88.2464 
 566   0.0000       3.256608        88.6168 
 567   0.0000       3.262733        88.7835 
 568   0.0000       3.274065        89.0918 
 569   0.0000       3.281301        89.2887 
 570   0.0000       3.286727        89.4364 
 571   0.0000       3.295547        89.6764 
 572   0.0000       3.304420        89.9178 
 573   0.0000       3.308955        90.0412 
 574   0.0000       3.315188        90.2108 
 575   0.0000       3.334627        90.7398 
 576   0.0000       3.341058        90.9148 
 577   0.0000       3.343604        90.9841 
 578   0.0000       3.350854        91.1814 
 579   0.0000       3.354573        91.2826 
 580   0.0000       3.365834        91.5890 
 581   0.0000       3.377760        91.9135 
 582   0.0000       3.381086        92.0040 
 583   0.0000       3.387561        92.1802 
 584   0.0000       3.401020        92.5465 
 585   0.0000       3.405383        92.6652 
 586   0.0000       3.408140        92.7402 
 587   0.0000       3.416212        92.9598 
 588   0.0000       3.432114        93.3926 
 589   0.0000       3.437165        93.5300 
 590   0.0000       3.446597        93.7867 
 591   0.0000       3.458001        94.0970 
 592   0.0000       3.458424        94.1085 
 593   0.0000       3.463367        94.2430 
 594   0.0000       3.471790        94.4722 
 595   0.0000       3.479706        94.6876 
 596   0.0000       3.484754        94.8250 
 597   0.0000       3.499419        95.2240 
 598   0.0000       3.505684        95.3945 
 599   0.0000       3.518480        95.7427 
 600   0.0000       3.520613        95.8008 
 601   0.0000       3.526935        95.9728 
 602   0.0000       3.531510        96.0973 
 603   0.0000       3.536109        96.2224 
 604   0.0000       3.549698        96.5922 
 605   0.0000       3.553501        96.6957 
 606   0.0000       3.560888        96.8967 
 607   0.0000       3.573154        97.2305 
 608   0.0000       3.576587        97.3239 
 609   0.0000       3.582199        97.4766 
 610   0.0000       3.583897        97.5228 
 611   0.0000       3.587673        97.6255 
 612   0.0000       3.594801        97.8195 
 613   0.0000       3.605659        98.1150 
 614   0.0000       3.611832        98.2829 
 615   0.0000       3.618256        98.4577 
 616   0.0000       3.631439        98.8165 
 617   0.0000       3.637511        98.9817 
 618   0.0000       3.643135        99.1347 
 619   0.0000       3.651163        99.3532 
 620   0.0000       3.659575        99.5821 
 621   0.0000       3.667878        99.8080 
 622   0.0000       3.673441        99.9594 
 623   0.0000       3.689541       100.3975 
 624   0.0000       3.704948       100.8168 
 625   0.0000       3.716027       101.1182 
 626   0.0000       3.719135       101.2028 
 627   0.0000       3.721647       101.2712 
 628   0.0000       3.732615       101.5696 
 629   0.0000       3.741613       101.8145 
 630   0.0000       3.751063       102.0716 
 631   0.0000       3.763636       102.4137 
 632   0.0000       3.767777       102.5264 
 633   0.0000       3.773261       102.6757 
 634   0.0000       3.782883       102.9375 
 635   0.0000       3.786198       103.0277 
 636   0.0000       3.805208       103.5450 
 637   0.0000       3.812363       103.7397 
 638   0.0000       3.828072       104.1671 
 639   0.0000       3.831176       104.2516 
 640   0.0000       3.838093       104.4398 
 641   0.0000       3.843605       104.5898 
 642   0.0000       3.851714       104.8105 
 643   0.0000       3.857633       104.9715 
 644   0.0000       3.862506       105.1041 
 645   0.0000       3.874026       105.4176 
 646   0.0000       3.878537       105.5404 
 647   0.0000       3.885378       105.7265 
 648   0.0000       3.893749       105.9543 
 649   0.0000       3.906852       106.3109 
 650   0.0000       3.913008       106.4784 
 651   0.0000       3.928041       106.8874 
 652   0.0000       3.936265       107.1112 
 653   0.0000       3.942528       107.2816 
 654   0.0000       3.952384       107.5498 
 655   0.0000       3.960465       107.7697 
 656   0.0000       3.971205       108.0620 
 657   0.0000       3.982919       108.3807 
 658   0.0000       3.998410       108.8023 
 659   0.0000       4.007178       109.0409 
 660   0.0000       4.016381       109.2913 
 661   0.0000       4.034889       109.7949 
 662   0.0000       4.038276       109.8871 
 663   0.0000       4.051205       110.2389 
 664   0.0000       4.073905       110.8566 
 665   0.0000       4.087214       111.2187 
 666   0.0000       4.096007       111.4580 
 667   0.0000       4.107575       111.7728 
 668   0.0000       4.118807       112.0784 
 669   0.0000       4.142781       112.7308 
 670   0.0000       4.185552       113.8946 
 671   0.0000       4.195916       114.1767 
 672   0.0000       4.203485       114.3826 
 673   0.0000       4.224817       114.9631 
 674   0.0000       4.246356       115.5492 
 675   0.0000       4.262612       115.9916 
 676   0.0000       4.269495       116.1789 
 677   0.0000       4.274830       116.3240 
 678   0.0000       4.287735       116.6752 
 679   0.0000       4.303273       117.0980 
 680   0.0000       4.314475       117.4028 
 681   0.0000       4.321773       117.6014 
 682   0.0000       4.326226       117.7226 
 683   0.0000       4.350177       118.3743 
 684   0.0000       4.370487       118.9270 
 685   0.0000       4.384544       119.3095 
 686   0.0000       4.394313       119.5753 
 687   0.0000       4.400060       119.7317 
 688   0.0000       4.404208       119.8446 
 689   0.0000       4.413038       120.0849 
 690   0.0000       4.418989       120.2468 
 691   0.0000       4.426724       120.4573 
 692   0.0000       4.440308       120.8269 
 693   0.0000       4.450008       121.0909 
 694   0.0000       4.464140       121.4754 
 695   0.0000       4.470296       121.6429 
 696   0.0000       4.478996       121.8797 
 697   0.0000       4.490502       122.1928 
 698   0.0000       4.498751       122.4172 
 699   0.0000       4.520338       123.0046 
 700   0.0000       4.530255       123.2745 
 701   0.0000       4.544073       123.6505 
 702   0.0000       4.562548       124.1532 
 703   0.0000       4.594660       125.0271 
 704   0.0000       4.603059       125.2556 
 705   0.0000       4.606479       125.3487 
 706   0.0000       4.612447       125.5111 
 707   0.0000       4.621077       125.7459 
 708   0.0000       4.638449       126.2186 
 709   0.0000       4.641264       126.2952 
 710   0.0000       4.684518       127.4722 
 711   0.0000       4.691849       127.6717 
 712   0.0000       4.708798       128.1329 
 713   0.0000       4.711472       128.2057 
 714   0.0000       4.725258       128.5808 
 715   0.0000       4.747333       129.1815 
 716   0.0000       4.751314       129.2898 
 717   0.0000       4.775258       129.9414 
 718   0.0000       4.785224       130.2126 
 719   0.0000       4.787857       130.2842 
 720   0.0000       4.804867       130.7471 
 721   0.0000       4.827919       131.3744 
 722   0.0000       4.831502       131.4718 
 723   0.0000       4.835781       131.5883 
 724   0.0000       4.844436       131.8238 
 725   0.0000       4.851103       132.0052 
 726   0.0000       4.861208       132.2802 
 727   0.0000       4.878793       132.7587 
 728   0.0000       4.901067       133.3648 
 729   0.0000       4.909884       133.6047 
 730   0.0000       4.918771       133.8466 
 731   0.0000       4.928008       134.0979 
 732   0.0000       4.948108       134.6449 
 733   0.0000       4.972606       135.3115 
 734   0.0000       4.981515       135.5539 
 735   0.0000       4.996855       135.9713 
 736   0.0000       5.006132       136.2238 
 737   0.0000       5.018250       136.5535 
 738   0.0000       5.023948       136.7086 
 739   0.0000       5.034273       136.9895 
 740   0.0000       5.042676       137.2182 
 741   0.0000       5.057356       137.6177 
 742   0.0000       5.068746       137.9276 
 743   0.0000       5.088362       138.4614 
 744   0.0000       5.098982       138.7504 
 745   0.0000       5.113791       139.1533 
 746   0.0000       5.124153       139.4353 
 747   0.0000       5.144370       139.9854 
 748   0.0000       5.160757       140.4313 
 749   0.0000       5.174005       140.7918 
 750   0.0000       5.197330       141.4265 
 751   0.0000       5.207094       141.6922 
 752   0.0000       5.234300       142.4325 
 753   0.0000       5.242188       142.6472 
 754   0.0000       5.269212       143.3825 
 755   0.0000       5.277304       143.6028 
 756   0.0000       5.302995       144.3018 
 757   0.0000       5.310190       144.4976 
 758   0.0000       5.342630       145.3804 
 759   0.0000       5.380004       146.3974 
 760   0.0000       5.392516       146.7378 
 761   0.0000       5.416140       147.3807 
 762   0.0000       5.447608       148.2370 
 763   0.0000       5.452435       148.3683 
 764   0.0000       5.475154       148.9865 
 765   0.0000       5.495760       149.5472 
 766   0.0000       5.509643       149.9250 
 767   0.0000       5.514812       150.0657 
 768   0.0000       5.584888       151.9725 
 769   0.0000       5.587533       152.0445 
 770   0.0000       5.612788       152.7317 
 771   0.0000       5.614780       152.7859 
 772   0.0000       5.644813       153.6032 
 773   0.0000       5.683818       154.6646 
 774   0.0000       5.707582       155.3112 
 775   0.0000       5.718288       155.6025 
 776   0.0000       5.734829       156.0526 
 777   0.0000       5.772317       157.0727 
 778   0.0000       5.806851       158.0125 
 779   0.0000       5.877281       159.9290 
 780   0.0000       5.947905       161.8507 
 781   0.0000       5.964217       162.2946 
 782   0.0000       5.985448       162.8723 
 783   0.0000       6.057898       164.8438 
 784   0.0000       6.081183       165.4774 
 785   0.0000       6.087366       165.6457 
 786   0.0000       6.142258       167.1394 
 787   0.0000       6.160585       167.6380 
 788   0.0000       6.198060       168.6578 
 789   0.0000       6.223252       169.3433 
 790   0.0000       6.278300       170.8412 
 791   0.0000       6.339302       172.5012 
 792   0.0000       6.369461       173.3218 
 793   0.0000       6.430017       174.9697 
 794   0.0000       6.464625       175.9114 
 795   0.0000       6.469085       176.0327 
 796   0.0000       6.491992       176.6561 
 797   0.0000       6.518880       177.3877 
 798   0.0000       6.579829       179.0462 
 799   0.0000       6.593735       179.4247 
 800   0.0000       6.606995       179.7855 
 801   0.0000       6.732041       183.1881 
 802   0.0000       6.788739       184.7310 
 803   0.0000       6.807214       185.2337 
 804   0.0000       6.862218       186.7305 
 805   0.0000       7.018583       190.9854 
 806   0.0000       7.086009       192.8201 
 807   0.0000       7.175582       195.2575 
 808   0.0000       7.197364       195.8502 
 809   0.0000       8.583155       233.5595 
 810   0.0000       9.160194       249.2615 
 811   0.0000      10.366910       282.0980 
 812   0.0000      10.721751       291.7537 
 813   0.0000      11.010804       299.6192 
 814   0.0000      11.637914       316.6838 
 815   0.0000      11.971443       325.7595 
 816   0.0000      12.209600       332.2401 
 817   0.0000      12.388290       337.1025 
 818   0.0000      12.446916       338.6978 
 819   0.0000      12.893438       350.8483 
 820   0.0000      13.001580       353.7910 
 821   0.0000      13.159341       358.0839 
 822   0.0000      13.367112       363.7376 
 823   0.0000      13.543304       368.5320 
 824   0.0000      13.630523       370.9054 
 825   0.0000      13.992922       380.7668 
 826   0.0000      14.649312       398.6280 
 827   0.0000      14.927561       406.1996 

                    ********************************
                    * MULLIKEN POPULATION ANALYSIS *
                    ********************************

-----------------------
MULLIKEN ATOMIC CHARGES
-----------------------
   0 C :   -0.260807
   1 C :    0.018273
   2 O :   -0.330081
   3 C :    0.527976
   4 O :   -0.586997
   5 C :   -0.230927
   6 C :    0.164169
   7 C :   -0.303221
   8 N :   -0.113386
   9 C :    0.368397
  10 S :   -0.747831
  11 N :   -0.193374
  12 C :    0.130598
  13 C :   -0.033766
  14 C :   -0.222615
  15 C :   -0.169480
  16 C :   -0.281409
  17 C :    0.333712
  18 O :   -0.474788
  19 C :   -0.268211
  20 H :    0.110528
  21 H :    0.099853
  22 H :    0.095995
  23 H :    0.112639
  24 H :    0.111237
  25 H :    0.123825
  26 H :    0.118486
  27 H :    0.145604
  28 H :    0.246532
  29 H :    0.254361
  30 H :    0.171381
  31 H :    0.182386
  32 H :    0.204900
  33 H :    0.181573
  34 H :    0.331696
  35 H :    0.182773
Sum of atomic charges:    0.0000000

--------------------------------
MULLIKEN REDUCED ORBITAL CHARGES
--------------------------------
  0 C s       :     3.262320  s :     3.262320
      pz      :     0.958468  p :     2.922093
      px      :     0.957329
      py      :     1.006296
      dz2     :     0.003340  d :     0.071923
      dxz     :     0.021109
      dyz     :     0.025761
      dx2y2   :     0.015207
      dxy     :     0.006507
      f0      :     0.000250  f :     0.004470
      f+1     :     0.000607
      f-1     :     0.000151
      f+2     :     0.002055
      f-2     :     0.000747
      f+3     :     0.000452
      f-3     :     0.000207
  1 C s       :     3.179163  s :     3.179163
      pz      :     0.934480  p :     2.644048
      px      :     0.693611
      py      :     1.015957
      dz2     :     0.018668  d :     0.147149
      dxz     :     0.033034
      dyz     :     0.034760
      dx2y2   :     0.035164
      dxy     :     0.025522
      f0      :     0.000934  f :     0.011367
      f+1     :     0.002337
      f-1     :     0.000359
      f+2     :     0.002905
      f-2     :     0.001752
      f+3     :     0.001528
      f-3     :     0.001552
  2 O s       :     3.738084  s :     3.738084
      pz      :     1.583809  p :     4.553368
      px      :     1.239360
      py      :     1.730199
      dz2     :     0.004231  d :     0.036481
      dxz     :     0.017278
      dyz     :     0.004355
      dx2y2   :     0.005946
      dxy     :     0.004671
      f0      :     0.000166  f :     0.002147
      f+1     :     0.000322
      f-1     :     0.000038
      f+2     :     0.000515
      f-2     :     0.000306
[...]
 15 C s       :     2.715833  s :     2.715833
      pz      :     0.917559  p :     2.799856
      px      :     0.920720
      py      :     0.961577
      dz2     :     0.058237  d :     0.401883
      dxz     :     0.067158
      dyz     :     0.085807
      dx2y2   :     0.097366
      dxy     :     0.093315
      f0      :     0.002513  f :     0.038609
      f+1     :     0.004509
      f-1     :     0.007336
      f+2     :     0.005818
      f-2     :     0.004831
      f+3     :     0.008356
      f-3     :     0.005246
 16 C s       :     2.707493  s :     2.707493
      pz      :     0.953578  p :     2.858623
      px      :     0.951257
      py      :     0.953788
      dz2     :     0.074533  d :     0.386550
      dxz     :     0.081576
      dyz     :     0.076901
      dx2y2   :     0.079501
      dxy     :     0.074038
      f0      :     0.005238  f :     0.039649
      f+1     :     0.006167
      f-1     :     0.004876
      f+2     :     0.006852
      f-2     :     0.005847
      f+3     :     0.006230
      f-3     :     0.004439
 17 C s       :     2.703637  s :     2.703637
      pz      :     0.938121  p :     2.691806
      px      :     0.823443
      py      :     0.930242
      dz2     :     0.119705  d :     0.705218
      dxz     :     0.122894
      dyz     :     0.147270
      dx2y2   :     0.168008
      dxy     :     0.147341
      f0      :     0.009786  f :     0.099413
      f+1     :     0.010946
      f-1     :     0.013906
      f+2     :     0.015007
      f-2     :     0.015176
      f+3     :     0.020885
      f-3     :     0.013707
 18 O s       :     3.175106  s :     3.175106
      pz      :     1.524502  p :     4.402805
      px      :     1.455352
      py      :     1.422951
      dz2     :     0.009771  d :     0.072260
      dxz     :     0.015218
      dyz     :     0.017875
      dx2y2   :     0.012408
      dxy     :     0.016987
      f0      :     0.000626  f :     0.004849
      f+1     :     0.000650
      f-1     :     0.000657
      f+2     :     0.000577
      f-2     :     0.001013
      f+3     :     0.000696
      f-3     :     0.000630
 19 C s       :     2.696854  s :     2.696854
      pz      :     0.938931  p :     2.851875
      px      :     0.950494
      py      :     0.962451
      dz2     :     0.051498  d :     0.391814
      dxz     :     0.073266
      dyz     :     0.080313
      dx2y2   :     0.096993
      dxy     :     0.089745
      f0      :     0.003128  f :     0.040906
      f+1     :     0.004396
      f-1     :     0.007123
      f+2     :     0.006098
      f-2     :     0.005390
      f+3     :     0.008963
      f-3     :     0.005808
 20 H s       :     0.840609  s :     0.840609
      pz      :     0.046065  p :     0.149917
      px      :     0.065681
      py      :     0.038172
      dz2     :     0.004168  d :     0.027331
      dxz     :     0.007768
      dyz     :     0.002509
      dx2y2   :     0.006331
      dxy     :     0.006555
 21 H s       :     0.846158  s :     0.846158
      pz      :     0.049705  p :     0.150735
      px      :     0.038828
      py      :     0.062201
      dz2     :     0.005246  d :     0.027636
      dxz     :     0.003498
      dyz     :     0.007473
      dx2y2   :     0.005368
      dxy     :     0.006051
 22 H s       :     0.850497  s :     0.850497
      pz      :     0.050034  p :     0.151681
      px      :     0.041538
      py      :     0.060109
      dz2     :     0.004991  d :     0.027541
      dxz     :     0.003520
      dyz     :     0.007198
      dx2y2   :     0.006221
      dxy     :     0.005611
 23 H s       :     0.856334  s :     0.856334
      pz      :     0.056957  p :     0.146091
      px      :     0.026136
      py      :     0.062998
      dz2     :     0.006674  d :     0.026840
      dxz     :     0.003407
      dyz     :     0.008056
      dx2y2   :     0.005252
      dxy     :     0.003452
 24 H s       :     0.850057  s :     0.850057
      pz      :     0.047865  p :     0.148368
      px      :     0.033512
      py      :     0.066991
      dz2     :     0.004501  d :     0.027522
      dxz     :     0.002607
      dyz     :     0.008437
      dx2y2   :     0.005807
      dxy     :     0.006171
 25 H s       :     0.826492  s :     0.826492
      pz      :     0.051033  p :     0.150410
      px      :     0.050221
      py      :     0.049157
      dz2     :     0.005404  d :     0.027911
      dxz     :     0.005905
      dyz     :     0.005452
      dx2y2   :     0.005569
      dxy     :     0.005581
 26 H s       :     0.817320  s :     0.817320
      pz      :     0.047773  p :     0.156125
      px      :     0.050606
      py      :     0.057746
      dz2     :     0.003977  d :     0.029268
      dxz     :     0.004965
      dyz     :     0.005959
      dx2y2   :     0.007933
      dxy     :     0.006435
 27 H s       :     0.828365  s :     0.828365
      pz      :     0.054629  p :     0.148511
      px      :     0.049350
      py      :     0.044532
      dz2     :     0.006330  d :     0.026876
      dxz     :     0.006034
      dyz     :     0.005355
      dx2y2   :     0.004349
      dxy     :     0.004809
 28 H s       :     0.708872  s :     0.708872
      pz      :     0.119267  p :     0.246248
      px      :     0.043563
      py      :     0.083417
      dz2     :     0.021584  d :     0.060435
      dxz     :     0.014950
      dyz     :     0.020392
      dx2y2   :     0.001972
      dxy     :     0.001538
 29 H s       :     0.714946  s :     0.714946
      pz      :     0.055876  p :     0.246262
      px      :     0.101969
      py      :     0.088418
      dz2     :     0.007832  d :     0.060203
      dxz     :     0.013221
      dyz     :     0.005955
      dx2y2   :     0.017977
      dxy     :     0.015218
 30 H s       :     0.820630  s :     0.820630
      pz      :     0.062113  p :     0.148064
      px      :     0.037030
      py      :     0.048921
      dz2     :     0.007300  d :     0.028335
      dxz     :     0.006510
      dyz     :     0.007567
      dx2y2   :     0.003733
      dxy     :     0.003226
 31 H s       :     0.837355  s :     0.837355
      pz      :     0.043711  p :     0.159620
      px      :     0.067927
      py      :     0.047981
      dz2     :     0.003809  d :     0.027732
      dxz     :     0.006014
      dyz     :     0.003189
      dx2y2   :     0.007741
      dxy     :     0.006979
 32 H s       :     0.834522  s :     0.834522
      pz      :     0.065323  p :     0.152946
      px      :     0.047904
      py      :     0.039718
      dz2     :     0.007090  d :     0.026601
      dxz     :     0.006947
      dyz     :     0.006129
      dx2y2   :     0.003345
      dxy     :     0.003089
 33 H s       :     0.833391  s :     0.833391
      pz      :     0.046862  p :     0.157215
      px      :     0.039309
      py      :     0.071045
      dz2     :     0.004475  d :     0.027535
      dxz     :     0.002304
      dyz     :     0.007700
      dx2y2   :     0.006384
      dxy     :     0.006673
 34 H s       :     0.668809  s :     0.668809
      pz      :     0.143159  p :     0.341638
      px      :     0.085834
      py      :     0.112644
      dz2     :     0.026572  d :     0.098915
      dxz     :     0.020174
      dyz     :     0.023951
      dx2y2   :     0.015866
      dxy     :     0.012352
 35 H s       :     0.834099  s :     0.834099
      pz      :     0.065784  p :     0.161148
      px      :     0.054697
      py      :     0.040667
      dz2     :     0.007561  d :     0.028057
      dxz     :     0.007085
      dyz     :     0.005448
      dx2y2   :     0.004026
      dxy     :     0.003937


                      *****************************
                      * MAYER POPULATION ANALYSIS *
                      *****************************

  NA   - Mulliken gross atomic population
  ZA   - Total nuclear charge
  QA   - Mulliken gross atomic charge
  VA   - Mayer's total valence
  BVA  - Mayer's bonded valence
  FA   - Mayer's free valence

  ATOM       NA         ZA         QA         VA         BVA        FA
  0 C      6.2608     6.0000    -0.2608     3.8930     3.8930     0.0000
  1 C      5.9817     6.0000     0.0183     3.8270     3.8270     0.0000
  2 O      8.3301     8.0000    -0.3301     2.0745     2.0745    -0.0000
  3 C      5.4720     6.0000     0.5280     4.1934     4.1934    -0.0000
  4 O      8.5870     8.0000    -0.5870     1.9653     1.9653    -0.0000
  5 C      6.2309     6.0000    -0.2309     3.5851     3.5851     0.0000
  6 C      5.8358     6.0000     0.1642     3.8261     3.8261     0.0000
  7 C      6.3032     6.0000    -0.3032     3.8832     3.8832    -0.0000
  8 N      7.1134     7.0000    -0.1134     3.3833     3.3833    -0.0000
  9 C      5.6316     6.0000     0.3684     4.0134     4.0134    -0.0000
 10 S     16.7478    16.0000    -0.7478     1.3894     1.3894    -0.0000
 11 N      7.1934     7.0000    -0.1934     3.4177     3.4177     0.0000
 12 C      5.8694     6.0000     0.1306     3.8982     3.8982     0.0000
 13 C      6.0338     6.0000    -0.0338     3.7459     3.7459     0.0000
 14 C      6.2226     6.0000    -0.2226     3.8437     3.8437     0.0000
 15 C      6.1695     6.0000    -0.1695     3.7529     3.7529    -0.0000
 16 C      6.2814     6.0000    -0.2814     3.7683     3.7683    -0.0000
 17 C      5.6663     6.0000     0.3337     3.8260     3.8260     0.0000
 18 O      8.4748     8.0000    -0.4748     2.0124     2.0124     0.0000
 19 C      6.2682     6.0000    -0.2682     3.8494     3.8494     0.0000
 20 H      0.8895     1.0000     0.1105     0.9842     0.9842    -0.0000
 21 H      0.9001     1.0000     0.0999     0.9830     0.9830     0.0000
 22 H      0.9040     1.0000     0.0960     0.9900     0.9900     0.0000
 23 H      0.8874     1.0000     0.1126     0.9803     0.9803    -0.0000
 24 H      0.8888     1.0000     0.1112     0.9813     0.9813     0.0000
 25 H      0.8762     1.0000     0.1238     0.9825     0.9825     0.0000
 26 H      0.8815     1.0000     0.1185     0.9834     0.9834    -0.0000
 27 H      0.8544     1.0000     0.1456     0.9788     0.9788    -0.0000
 28 H      0.7535     1.0000     0.2465     0.9698     0.9698    -0.0000
 29 H      0.7456     1.0000     0.2544     0.9654     0.9654    -0.0000
 30 H      0.8286     1.0000     0.1714     0.9847     0.9847    -0.0000
 31 H      0.8176     1.0000     0.1824     0.9746     0.9746     0.0000
 32 H      0.7951     1.0000     0.2049     0.9622     0.9622     0.0000
 33 H      0.8184     1.0000     0.1816     0.9747     0.9747     0.0000
 34 H      0.6683     1.0000     0.3317     0.9344     0.9344    -0.0000
 35 H      0.8172     1.0000     0.1828     0.9865     0.9865     0.0000

  Mayer bond orders larger than 0.100000
B(  0-C ,  1-C ) :   0.9671 B(  0-C , 20-H ) :   0.9768 B(  0-C , 21-H ) :   0.9776 
B(  0-C , 22-H ) :   0.9783 B(  1-C ,  2-O ) :   0.8809 B(  1-C , 23-H ) :   0.9737 
B(  1-C , 24-H ) :   0.9814 B(  2-O ,  3-C ) :   1.2051 B(  3-C ,  4-O ) :   1.8915 
B(  3-C ,  5-C ) :   1.0477 B(  5-C ,  6-C ) :   1.6118 B(  5-C , 12-C ) :   0.9751 
B(  6-C ,  7-C ) :   0.9452 B(  6-C ,  8-N ) :   1.1998 B(  7-C , 25-H ) :   0.9763 
B(  7-C , 26-H ) :   0.9786 B(  7-C , 27-H ) :   0.9602 B(  8-N ,  9-C ) :   1.2168 
B(  8-N , 28-H ) :   0.9306 B(  9-C , 10-S ) :   1.2278 B(  9-C , 11-N ) :   1.5013 
B( 11-N , 12-C ) :   0.9272 B( 11-N , 29-H ) :   0.9201 B( 12-C , 13-C ) :   0.9437 
B( 12-C , 30-H ) :   0.9964 B( 13-C , 14-C ) :   1.3567 B( 13-C , 19-C ) :   1.3930 
B( 14-C , 15-C ) :   1.4050 B( 14-C , 31-H ) :   0.9586 B( 15-C , 16-C ) :   1.3269 
B( 15-C , 32-H ) :   0.9537 B( 16-C , 17-C ) :   1.3553 B( 16-C , 33-H ) :   0.9681 
B( 17-C , 18-O ) :   1.0490 B( 17-C , 19-C ) :   1.3575 B( 18-O , 34-H ) :   0.9147 
B( 19-C , 35-H ) :   0.9473 

-------
TIMINGS
-------

Total SCF time: 0 days 1 hours 23 min 1 sec 

Total time                  ....    4981.379 sec
Sum of individual times     ....    4974.453 sec  ( 99.9%)

Fock matrix formation       ....    4960.936 sec  ( 99.6%)
Diagonalization             ....       1.210 sec  (  0.0%)
Density matrix formation    ....       0.169 sec  (  0.0%)
Population analysis         ....       0.326 sec  (  0.0%)
Initial guess               ....       5.048 sec  (  0.1%)
Orbital Transformation      ....       0.000 sec  (  0.0%)
Orbital Orthonormalization  ....       0.000 sec  (  0.0%)
DIIS solution               ....       3.428 sec  (  0.1%)
SOSCF solution              ....       2.007 sec  (  0.0%)

Maximum memory used throughout the entire SCF-calculation: 729.6 MB

------------------------------------------------------------------------------
                                ORCA  MP2 
------------------------------------------------------------------------------

Freezing NCore=48 chemical core electrons

-------------
RI-MP2 ENERGY
-------------
Dimension of the basis                    ...  828
Memory devoted to MP2                     ...  256 MB   
Data format for buffers                   ... DOUBLE
Compression type for matrix containers    ... UNCOMPRESSED
Overall scaling of the MP2 energy         ...   1.000e+00
Calculating two index integrals           ... done (    0.031 sec)
Cholesky decomposition of V**-1           ... done (    0.467 sec)

-----------------
RI-TRANSFORMATION (AUX index driven)
-----------------

Dimension of the orbital-basis         ... 828
Dimension of the aux-basis             ... 2141
Transformation of internal/external MOs...   24-  76 to   77- 827
Number Format for Storage              ... Double (8 Byte)
Integral mode                          ... Direct

First Phase: integral generation and transformation of MO indices
  Aux angular momentum 0               ... done (    3.377 sec)
  Aux angular momentum 1               ... done (    5.742 sec)
  Aux angular momentum 2               ... done (    8.058 sec)
  Aux angular momentum 3               ... done (    6.574 sec)
  Aux angular momentum 4               ... done (    2.393 sec)
Closing buffer VIA ( 0.63 GB; CompressionRatio= 1.00)
  Phase 1 completed in    26.543 sec
Second Phase: sorting and transformation of aux index

IA-Transformation
Memory available                       ... 157 MB 
Max. # MO pairs treated in a batch     ... 11    
# of internal orbitals                 ... 53
# batches for internal orbitals        ... 5
Closing buffer IAV ( 0.63 GB; CompressionRatio= 1.00)
(ia|v) transformation done in    25.822 sec

  Phase 2 completed in    25.830 sec
RI-Integral transformation completed in    52.389 sec
Opening buffers                              ... done

Starting loop over batches of integrals:

Operator 0  - window                       ... ( 24- 76)x( 77-827)
Operator 0  - Memory available             ...   256 MB
Operator 0  - Memory needed per MO         ...  12.3 MB
Operator 0  - Number of orbitals per batch ... 13
Operator 0  - Number of batches            ... 5

OPERATOR  0   PASS   0:  MOs    24 ...   36
  Reading integrals       ... ok
  Internal MO  26
  Internal MO  29
  Internal MO  32
  Internal MO  35
OPERATOR  0   PASS   1:  MOs    37 ...   49
  Reading integrals       ... ok
  Internal MO  38
  Internal MO  41
  Internal MO  44
  Internal MO  47
OPERATOR  0   PASS   2:  MOs    50 ...   62
  Reading integrals       ... ok
  Internal MO  50
  Internal MO  53
  Internal MO  56
  Internal MO  59
  Internal MO  62
OPERATOR  0   PASS   3:  MOs    63 ...   75
  Reading integrals       ... ok
  Internal MO  65
  Internal MO  68
  Internal MO  71
  Internal MO  74
OPERATOR  0   PASS   4:  MOs    76 ...   76
  Reading integrals       ... ok
Time spent in pair loops =    71.213 sec
Deleting buffer (Ka|jb)[aa] ...done

-----------------------------------------------
 RI-MP2 CORRELATION ENERGY:     -3.526113382 Eh
-----------------------------------------------


-------
TIMINGS
-------

Total time                :  124.200 sec
Integral trafo            :   52.407 sec ( 42.2%)
I/O of integrals          :    1.935 sec (  1.6%)
K(i,j) Operators          :   42.908 sec ( 34.5%)
T(i,j) pair energies      :    6.998 sec (  5.6%)
V-calculation             :    0.031 sec (  0.0%)
V**(-1/2)                 :    0.467 sec (  0.4%)
Gamma(ia|P)               :    0.000 sec (  0.0%)
Gamma-Trafo               :    0.000 sec (  0.0%)
D(virtual)                :    0.000 sec (  0.0%)
D(internal)               :    0.000 sec (  0.0%)
W(virtual)                :    0.000 sec (  0.0%)
W(internal)               :    0.000 sec (  0.0%)
L(virtual)                :    0.000 sec (  0.0%)
L(internal)               :    0.000 sec (  0.0%)
G(D)                      :    0.000 sec (  0.0%)
G(Z)                      :    0.000 sec (  0.0%)
Z-Vector Solution         :    0.000 sec (  0.0%)
3-Index Derivative        :    0.000 sec (  0.0%)
2-Index Derivative        :    0.000 sec (  0.0%)
Separable Gradient        :    0.000 sec (  0.0%)


---------------------------------------
MP2 TOTAL ENERGY:    -1274.454568646 Eh
---------------------------------------

Maximum memory used throughout the entire MP2-calculation: 303.8 MB

-------------------------   --------------------
FINAL SINGLE POINT ENERGY     -1274.454568645573
-------------------------   --------------------


                            ***************************************
                            *     ORCA property calculations      *
                            ***************************************


  WARNING: The energy has been calculated at the MP2 level but the densities
           used in the property calculations are still SCF densities
           MP2 response densities have not been calculated 
           use %mp2 Density relaxed end
           or  %mp2 Density unrelaxed end

                                    ---------------------
                                    Active property flags
                                    ---------------------
   (+) Dipole Moment


------------------------------------------------------------------------------
                       ORCA ELECTRIC PROPERTIES CALCULATION
------------------------------------------------------------------------------

Dipole Moment Calculation                       ... on
Quadrupole Moment Calculation                   ... off
Polarizability Calculation                      ... off
GBWName                                         ... qm_input.solv.gbw
Electron density file                           ... qm_input.solv.scfp
The origin for moment calculation is the CENTER OF MASS  = (21.220971,  9.881004 19.400558)

-------------
DIPOLE MOMENT
-------------
                                X             Y             Z
Electronic contribution:    -15.26421      -0.82845      -0.77228
Nuclear contribution   :     18.44248       0.76591       1.60071
                        -----------------------------------------
Total Dipole Moment    :      3.17827      -0.06254       0.82843
                        -----------------------------------------
Magnitude (a.u.)       :      3.28506
Magnitude (Debye)      :      8.34996



--------------------
Rotational spectrum 
--------------------
 
Rotational constants in cm-1:     0.011556     0.008802     0.005929 
Rotational constants in MHz :   346.432374   263.875560   177.756748 

 Dipole components along the rotational axes: 
x,y,z [a.u.] :    -2.789708     1.733092    -0.074493 
x,y,z [Debye]:    -7.090874     4.405169    -0.189347 

 

Timings for individual modules:

Sum of individual times         ...     5312.667 sec (=  88.544 min)
GTO integral calculation        ...      205.800 sec (=   3.430 min)   3.9 %
SCF iterations                  ...     4981.514 sec (=  83.025 min)  93.8 %
MP2 module                      ...      125.354 sec (=   2.089 min)   2.4 %
                             ****ORCA TERMINATED NORMALLY****
TOTAL RUN TIME: 0 days 1 hours 28 minutes 34 seconds 956 msec
