
                                        *****************
                                        * O   R   C   A *
                                        *****************

                                            #,                                       
                                            ###                                      
                                            ####                                     
                                            #####                                    
                                            ######                                   
                                           ########,                                 
                                     ,,################,,,,,                         
                               ,,#################################,,                 
                          ,,##########################################,,             
                       ,#########################################, ''#####,          
                    ,#############################################,,   '####,        
                  ,##################################################,,,,####,       
                ,###########''''           ''''###############################       
              ,#####''   ,,,,##########,,,,          '''####'''          '####       
            ,##' ,,,,###########################,,,                        '##       
           ' ,,###''''                  '''############,,,                           
         ,,##''                                '''############,,,,        ,,,,,,###''
      ,#''                                            '''#######################'''  
     '                                                          ''''####''''         
             ,#######,   #######,   ,#######,      ##                                
            ,#'     '#,  ##    ##  ,#'     '#,    #''#        ######   ,####,        
            ##       ##  ##   ,#'  ##            #'  '#       #        #'  '#        
            ##       ##  #######   ##           ,######,      #####,   #    #        
            '#,     ,#'  ##    ##  '#,     ,#' ,#      #,         ##   #,  ,#        
             '#######'   ##     ##  '#######'  #'      '#     #####' # '####'        



                  #######################################################
                  #                        -***-                        #
                  #          Department of theory and spectroscopy      #
                  #    Directorship and core code : Frank Neese         #
                  #        Max Planck Institute fuer Kohlenforschung    #
                  #                Kaiser Wilhelm Platz 1               #
                  #                 D-45470 Muelheim/Ruhr               #
                  #                      Germany                        #
                  #                                                     #
                  #                  All rights reserved                #
                  #                        -***-                        #
                  #######################################################


                         Program Version 5.0.0 -  RELEASE  -
                                (SVN: $Rev: 19529$)
                ($Date: 2021-06-28 11:36:33 +0200 (Mo, 28 Jun 2021) $)


 With contributions from (in alphabetic order):
   Daniel Aravena         : Magnetic Suceptibility
   Michael Atanasov       : Ab Initio Ligand Field Theory (pilot matlab implementation)
   Alexander A. Auer      : GIAO ZORA, VPT2 properties, NMR spectrum
   Ute Becker             : Parallelization
   Giovanni Bistoni       : ED, misc. LED, open-shell LED, HFLD
   Martin Brehm           : Molecular dynamics
   Dmytro Bykov           : SCF Hessian
   Vijay G. Chilkuri      : MRCI spin determinant printing, contributions to CSF-ICE
   Dipayan Datta          : RHF DLPNO-CCSD density
   Achintya Kumar Dutta   : EOM-CC, STEOM-CC
   Dmitry Ganyushin       : Spin-Orbit,Spin-Spin,Magnetic field MRCI
   Miquel Garcia          : C-PCM Hessian, Gaussian charge scheme
   Yang Guo               : DLPNO-NEVPT2, F12-NEVPT2, CIM, IAO-localization
   Andreas Hansen         : Spin unrestricted coupled pair/coupled cluster methods
   Benjamin Helmich-Paris : MC-RPA, TRAH-SCF, COSX integrals
   Lee Huntington         : MR-EOM, pCC
   Robert Izsak           : Overlap fitted RIJCOSX, COSX-SCS-MP3, EOM
   Marcus Kettner         : VPT2
   Christian Kollmar      : KDIIS, OOCD, Brueckner-CCSD(T), CCSD density, CASPT2, CASPT2-K
   Simone Kossmann        : Meta GGA functionals, TD-DFT gradient, OOMP2, MP2 Hessian
   Martin Krupicka        : Initial AUTO-CI
   Lucas Lang             : DCDCAS
   Marvin Lechner         : AUTO-CI (C++ implementation), FIC-MRCC
   Dagmar Lenk            : GEPOL surface, SMD
   Dimitrios Liakos       : Extrapolation schemes; Compound Job, initial MDCI parallelization
   Dimitrios Manganas     : Further ROCIS development; embedding schemes
   Dimitrios Pantazis     : SARC Basis sets
   Anastasios Papadopoulos: AUTO-CI, single reference methods and gradients
   Taras Petrenko         : DFT Hessian,TD-DFT gradient, ASA, ECA, R-Raman, ABS, FL, XAS/XES, NRVS
   Peter Pinski           : DLPNO-MP2, DLPNO-MP2 Gradient
   Christoph Reimann      : Effective Core Potentials
   Marius Retegan         : Local ZFS, SOC
   Christoph Riplinger    : Optimizer, TS searches, QM/MM, DLPNO-CCSD(T), (RO)-DLPNO pert. Triples
   Tobias Risthaus        : Range-separated hybrids, TD-DFT gradient, RPA, STAB
   Michael Roemelt        : Original ROCIS implementation
   Masaaki Saitow         : Open-shell DLPNO-CCSD energy and density
   Barbara Sandhoefer     : DKH picture change effects
   Avijit Sen             : IP-ROCIS
   Kantharuban Sivalingam : CASSCF convergence, NEVPT2, FIC-MRCI
   Bernardo de Souza      : ESD, SOC TD-DFT
   Georgi Stoychev        : AutoAux, RI-MP2 NMR
   Willem Van den Heuvel  : Paramagnetic NMR
   Boris Wezisla          : Elementary symmetry handling
   Frank Wennmohs         : Technical directorship


 We gratefully acknowledge several colleagues who have allowed us to
 interface, adapt or use parts of their codes:
   Stefan Grimme, W. Hujo, H. Kruse, P. Pracht,  : VdW corrections, initial TS optimization,
                  C. Bannwarth, S. Ehlert          DFT functionals, gCP, sTDA/sTD-DF
   Ed Valeev, F. Pavosevic, A. Kumar             : LibInt (2-el integral package), F12 methods
   Garnet Chan, S. Sharma, J. Yang, R. Olivares  : DMRG
   Ulf Ekstrom                                   : XCFun DFT Library
   Mihaly Kallay                                 : mrcc  (arbitrary order and MRCC methods)
   Jiri Pittner, Ondrej Demel                    : Mk-CCSD
   Frank Weinhold                                : gennbo (NPA and NBO analysis)
   Christopher J. Cramer and Donald G. Truhlar   : smd solvation model
   Lars Goerigk                                  : TD-DFT with DH, B97 family of functionals
   V. Asgeirsson, H. Jonsson                     : NEB implementation
   FAccTs GmbH                                   : IRC, NEB, NEB-TS, DLPNO-Multilevel, CI-OPT
                                                   MM, QMMM, 2- and 3-layer-ONIOM, Crystal-QMMM,
                                                   LR-CPCM, SF, NACMEs, symmetry and pop. for TD-DFT,
                                                   nearIR, NL-DFT gradient (VV10), updates on ESD,
                                                   ML-optimized integration grids
   S Lehtola, MJT Oliveira, MAL Marques          : LibXC Library
   Liviu Ungur et al                             : ANISO software


 Your calculation uses the libint2 library for the computation of 2-el integrals
 For citations please refer to: http://libint.valeyev.net

 Your ORCA version has been built with support for libXC version: 5.1.0
 For citations please refer to: https://tddft.org/programs/libxc/

 This ORCA versions uses:
   CBLAS   interface :  Fast vector & matrix operations
   LAPACKE interface :  Fast linear algebra routines
   SCALAPACK package :  Parallel linear algebra routines
   Shared memory     :  Shared parallel matrices
   BLAS/LAPACK       :  OpenBLAS 0.3.15  USE64BITINT DYNAMIC_ARCH NO_AFFINITY SkylakeX SINGLE_THREADED
        Core in use  :  SkylakeX
   Copyright (c) 2011-2014, The OpenBLAS Project


================================================================================

----- Orbital basis set information -----
Your calculation utilizes the basis: cc-pVTZ 
       H, B-Ne : Obtained from the ccRepo (grant-hill.group.shef.ac.uk/ccrepo) Feb. 2017
                 T. H. Dunning, Jr., J. Chem. Phys. 90, 1007 (1989)
            He : Obtained from the ccRepo (grant-hill.group.shef.ac.uk/ccrepo) Feb. 2017
                 D. E. Woon, T. H. Dunning, Jr., J. Chem. Phys. 100, 2975 (1994)
  Li-Be, Na-Mg : Obtained from the ccRepo (grant-hill.group.shef.ac.uk/ccrepo) Feb. 2017
                 B. P. Prascher, D. E. Woon, K. A. Peterson, T. H. Dunning, Jr., A. K. Wilson, Theor. Chem. Acc. 128, 69 (2011)
         Al-Ar : Obtained from the ccRepo (grant-hill.group.shef.ac.uk/ccrepo) Feb. 2017
                 D. E. Woon, T. H. Dunning, Jr., J. Chem. Phys. 98, 1358 (1993)
            Ca : Obtained from the Peterson Research Group Website (tyr0.chem.wsu.edu/~kipeters) Feb. 2017
                 J. Koput, K. A. Peterson, J. Phys. Chem. 106, 9595 (2002)
         Sc-Zn : Obtained from the ccRepo (grant-hill.group.shef.ac.uk/ccrepo) Feb. 2017
                 N. B. Balabanov, K. A. Peterson, J. Chem. Phys. 123, 064107 (2005)
                 N. B. Balabanov, K. A. Peterson, J. Chem. Phys. 125, 074110 (2006)
         Ga-Kr : Obtained from the ccRepo (grant-hill.group.shef.ac.uk/ccrepo) Feb. 2017
                 A. K. Wilson, D. E. Woon, K. A. Peterson, T. H. Dunning, Jr., J. Chem. Phys. 110, 7667 (1999)
             Y : Obtained from the ccRepo (grant-hill.group.shef.ac.uk/ccrepo) Feb. 2017
                 K. A. Peterson, D. Figgen, M. Dolg, H. Stoll, J. Chem. Phys. 126, 124101 (2007)
        Ag, Au : Obtained from the Peterson Research Group Website (tyr0.chem.wsu.edu/~kipeters) Feb. 2017
                 K. A. Peterson, C. Puzzarini, Theor. Chem. Acc. 114, 283 (2005)

----- AuxC basis set information -----
Your calculation utilizes the auxiliary basis: cc-pVTZ/C 
  Obtained from the EMSL Basis Set Exchange (bse.pnl.gov) Feb. 2017
  H-He, B-F, Al-Ar, Ga-Kr : F. Weigend, A. Kohn, C. Hattig, J. Chem. Phys. 116, 3175 (2002)
             Li-Be, Na-Mg : C. Haettig, Phys. Chem. Chem. Phys. 7, 59 (2005)
                       Ne : C. Haettig, Phys. Chem. Chem. Phys. 7, 59 (2005)
                            F. Weigend, A. Kohn, C. Hattig, J. Chem. Phys. 116, 3175 (2002)
                    Sc-Zn : J. G. Hill, J. A. Platts, J. Chem. Phys. 128, 044104 (2008)

================================================================================
                                        WARNINGS
                       Please study these warnings very carefully!
================================================================================


WARNING: No MP2 level density has been requested!
         To caclulate MP2 level properties use
         %mp2 Density relaxed end
         or
         %mp2 Density unrelaxed end

WARNING: Post HF methods need fully converged wavefunctions
  ===> : Setting SCFConvForced true
         You can overwrite this default with %scf ConvForced false 


INFO   : the flag for use of the SHARK integral package has been found!

================================================================================
                                       INPUT FILE
================================================================================
NAME = qm_input.solv
|  1> ! RI-MP2 cc-pVTZ cc-pVTZ/c TightSCF KeepDens NoKeepInts
|  2> 
|  3> %pointcharges "srfp_output"
|  4> 
|  5> *xyz  0  1
|  6>     C    12.5061292   -4.7979614  -10.4746934
|  7>     C    12.1653919   -3.2718212  -10.7361609
|  8>     O    10.8823982   -3.2375597  -11.4442698
|  9>     C    10.4224118   -2.0271200  -11.8329173
| 10>     O    11.0634903   -0.9853114  -11.7651443
| 11>     C     9.0144594   -2.0338891  -12.2809103
| 12>     C     8.3823958   -0.8977238  -12.8061258
| 13>     C     9.1073101    0.4388572  -13.0896946
| 14>     N     7.0314275   -0.9884532  -13.1555719
| 15>     C     6.2250624   -2.0469904  -12.8656809
| 16>     S     4.5943980   -1.9621420  -13.0214834
| 17>     N     6.7934696   -3.1873571  -12.2919482
| 18>     C     8.2217132   -3.3691960  -12.2441934
| 19>     C     8.6314390   -4.3413510  -13.3213049
| 20>     C     8.2001565   -4.2689239  -14.6675893
| 21>     C     8.4501870   -5.2629462  -15.6145727
| 22>     C     9.1888887   -6.4001632  -15.2440497
| 23>     C     9.7408493   -6.4107617  -13.9304926
| 24>     O    10.4417011   -7.5299542  -13.4781008
| 25>     C     9.4456086   -5.4229543  -12.9634535
| 26>     H    12.4763579   -5.3077201  -11.4454917
| 27>     H    11.7407462   -5.3665193   -9.9323573
| 28>     H    13.5067589   -4.9554173  -10.0538156
| 29>     H    12.1814728   -2.7216989   -9.7873208
| 30>     H    12.9662448   -2.8417937  -11.3500831
| 31>     H     9.6551209    0.9114372  -12.2652164
| 32>     H     8.2820301    1.1491212  -13.2224653
| 33>     H     9.6673995    0.3341258  -14.0269890
| 34>     H     6.5311909   -0.1880979  -13.5232145
| 35>     H     6.1924318   -3.9928324  -12.1657355
| 36>     H     8.4678823   -3.8828424  -11.3067726
| 37>     H     7.6318764   -3.3933134  -14.9671904
| 38>     H     8.1274692   -5.2024623  -16.6497508
| 39>     H     9.3568260   -7.2271407  -15.9276469
| 40>     H    10.8107782   -7.3686326  -12.5923884
| 41>     H     9.8590967   -5.5270693  -11.9646597
| 42> *
| 43> 
| 44>                          ****END OF INPUT****
================================================================================

                       ****************************
                       * Single Point Calculation *
                       ****************************

---------------------------------
CARTESIAN COORDINATES (ANGSTROEM)
---------------------------------
  C     12.506129   -4.797961  -10.474693
  C     12.165392   -3.271821  -10.736161
  O     10.882398   -3.237560  -11.444270
  C     10.422412   -2.027120  -11.832917
  O     11.063490   -0.985311  -11.765144
  C      9.014459   -2.033889  -12.280910
  C      8.382396   -0.897724  -12.806126
  C      9.107310    0.438857  -13.089695
  N      7.031427   -0.988453  -13.155572
  C      6.225062   -2.046990  -12.865681
  S      4.594398   -1.962142  -13.021483
  N      6.793470   -3.187357  -12.291948
  C      8.221713   -3.369196  -12.244193
  C      8.631439   -4.341351  -13.321305
  C      8.200157   -4.268924  -14.667589
  C      8.450187   -5.262946  -15.614573
  C      9.188889   -6.400163  -15.244050
  C      9.740849   -6.410762  -13.930493
  O     10.441701   -7.529954  -13.478101
  C      9.445609   -5.422954  -12.963453
  H     12.476358   -5.307720  -11.445492
  H     11.740746   -5.366519   -9.932357
  H     13.506759   -4.955417  -10.053816
  H     12.181473   -2.721699   -9.787321
  H     12.966245   -2.841794  -11.350083
  H      9.655121    0.911437  -12.265216
  H      8.282030    1.149121  -13.222465
  H      9.667400    0.334126  -14.026989
  H      6.531191   -0.188098  -13.523214
  H      6.192432   -3.992832  -12.165735
  H      8.467882   -3.882842  -11.306773
  H      7.631876   -3.393313  -14.967190
  H      8.127469   -5.202462  -16.649751
  H      9.356826   -7.227141  -15.927647
  H     10.810778   -7.368633  -12.592388
  H      9.859097   -5.527069  -11.964660

----------------------------
CARTESIAN COORDINATES (A.U.)
----------------------------
  NO LB      ZA    FRAG     MASS         X           Y           Z
   0 C     6.0000    0    12.011   23.633159   -9.066833  -19.794302
   1 C     6.0000    0    12.011   22.989259   -6.182846  -20.288404
   2 O     8.0000    0    15.999   20.564752   -6.118101  -21.626536
   3 C     6.0000    0    12.011   19.695504   -3.830702  -22.360973
   4 O     8.0000    0    15.999   20.906967   -1.861969  -22.232901
   5 C     6.0000    0    12.011   17.034860   -3.843493  -23.207557
   6 C     6.0000    0    12.011   15.840432   -1.696452  -24.200071
   7 C     6.0000    0    12.011   17.210322    0.829320  -24.735938
   8 N     7.0000    0    14.007   13.287472   -1.867906  -24.860428
   9 C     6.0000    0    12.011   11.763663   -3.868251  -24.312613
  10 S    16.0000    0    32.060    8.682154   -3.707911  -24.607037
  11 N     7.0000    0    14.007   12.837797   -6.023232  -23.228416
  12 C     6.0000    0    12.011   15.536786   -6.366858  -23.138172
  13 C     6.0000    0    12.011   16.311056   -8.203964  -25.173618
  14 C     6.0000    0    12.011   15.496050   -8.067097  -27.717727
  15 C     6.0000    0    12.011   15.968539   -9.945527  -29.507266
  16 C     6.0000    0    12.011   17.364483  -12.094556  -28.807079
  17 C     6.0000    0    12.011   18.407537  -12.114584  -26.324816
  18 O     8.0000    0    15.999   19.731955  -14.229551  -25.469919
  19 C     6.0000    0    12.011   17.849613  -10.247898  -24.497377
  20 H     1.0000    0     1.008   23.576900  -10.030137  -21.628845
  21 H     1.0000    0     1.008   22.186795  -10.141252  -18.769435
  22 H     1.0000    0     1.008   25.524075   -9.364382  -18.998958
  23 H     1.0000    0     1.008   23.019647   -5.143266  -18.495356
  24 H     1.0000    0     1.008   24.502652   -5.370212  -21.448549
  25 H     1.0000    0     1.008   18.245534    1.722367  -23.177900
  26 H     1.0000    0     1.008   15.650769    2.171524  -24.986838
  27 H     1.0000    0     1.008   18.268737    0.631406  -26.507168
  28 H     1.0000    0     1.008   12.342162   -0.355454  -25.555172
  29 H     1.0000    0     1.008   11.702000   -7.545360  -22.989908
  30 H     1.0000    0     1.008   16.001978   -7.337509  -21.366704
  31 H     1.0000    0     1.008   14.422156   -6.412433  -28.283891
  32 H     1.0000    0     1.008   15.358691   -9.831229  -31.463469
  33 H     1.0000    0     1.008   17.681839  -13.657317  -30.098891
  34 H     1.0000    0     1.008   20.429410  -13.924698  -23.796165
  35 H     1.0000    0     1.008   18.630993  -10.444647  -22.609930

--------------------------------
INTERNAL COORDINATES (ANGSTROEM)
--------------------------------
 C      0   0   0     0.000000000000     0.00000000     0.00000000
 C      1   0   0     1.585424571282     0.00000000     0.00000000
 O      2   1   0     1.465832493459   106.87466914     0.00000000
 C      3   2   1     1.351961033010   117.23195174   183.20510026
 O      4   3   2     1.225128557224   124.56995322     8.30040683
 C      4   3   2     1.477522761053   114.03387116   192.09428870
 C      6   4   3     1.402222273682   122.64215748   184.38611682
 C      7   6   4     1.546725824521   123.88893615     5.54582384
 N      7   6   4     1.398377541451   118.45740490   182.41947744
 C      9   7   6     1.361896644450   124.69820415     9.02756710
 S     10   9   7     1.640286577222   121.88341928   166.96679312
 N     10   9   7     1.397387622147   118.74066896   353.57573083
 C     12  10   9     1.440564364205   121.32597119   347.72123188
 C     13  12  10     1.507690206456   109.09536412   257.59999428
 C     14  13  12     1.415532396416   124.31014040    47.78514309
 C     15  14  13     1.395483121970   123.66752104   188.26698092
 C     16  15  14     1.405784478574   119.44051079   358.86613622
 C     17  16  15     1.424852654528   116.90793083   354.75895620
 O     18  17  16     1.395866554627   119.94994055   177.52377677
 C     14  13  12     1.400284064259   118.26098622   230.66898534
 H      1   2   3     1.096899996268   107.19086447    54.85682074
 H      1   2   3     1.096903672938   115.50087651   304.14100087
 H      1   2   3     1.096900305178   113.42284805   173.12242771
 H      2   1   3     1.096900485764   109.69184752   125.00096153
 H      2   1   3     1.096899943408   108.22621433   240.30334129
 H      8   7   6     1.096901468352   117.94084104   304.82775268
 H      8   7   6     1.096900217374   103.24498484   194.75705939
 H      8   7   6     1.096899992893   108.26804526    78.12214415
 H      9   7   6     1.012899967199   121.10155623   178.92023998
 H     12  10   9     1.012900064952   117.30621113   185.61864350
 H     13  12  10     1.096899998314   108.05574527   144.74120914
 H     15  14  13     1.086000386228   117.58506955     7.39437572
 H     16  15  14     1.086001279611   123.63731473   180.62037759
 H     17  16  15     1.086001774439   122.09743109   176.17595786
 H     19  18  17     0.973000010218   110.64254078   176.03571818
 H     20  14  13     1.086002484797   122.03669400   354.26470821

---------------------------
INTERNAL COORDINATES (A.U.)
---------------------------
 C      0   0   0     0.000000000000     0.00000000     0.00000000
 C      1   0   0     2.996018245712     0.00000000     0.00000000
 O      2   1   0     2.770021970841   106.87466914     0.00000000
 C      3   2   1     2.554836096122   117.23195174   183.20510026
 O      4   3   2     2.315157451999   124.56995322     8.30040683
 C      4   3   2     2.792113375025   114.03387116   192.09428870
 C      6   4   3     2.649816076143   122.64215748   184.38611682
 C      7   6   4     2.922888212607   123.88893615     5.54582384
 N      7   6   4     2.642550585168   118.45740490   182.41947744
 C      9   7   6     2.573611680716   124.69820415     9.02756710
 S     10   9   7     3.099692412098   121.88341928   166.96679312
 N     10   9   7     2.640679908790   118.74066896   353.57573083
 C     12  10   9     2.722272126634   121.32597119   347.72123188
 C     13  12  10     2.849121584997   109.09536412   257.59999428
 C     14  13  12     2.674968562920   124.31014040    47.78514309
 C     15  14  13     2.637080925033   123.66752104   188.26698092
 C     16  15  14     2.656547667823   119.44051079   358.86613622
 C     17  16  15     2.692581298248   116.90793083   354.75895620
 O     18  17  16     2.637805507746   119.94994055   177.52377677
 C     14  13  12     2.646153391143   118.26098622   230.66898534
 H      1   2   3     2.072840589245   107.19086447    54.85682074
 H      1   2   3     2.072847537145   115.50087651   304.14100087
 H      1   2   3     2.072841173001   113.42284805   173.12242771
 H      2   1   3     2.072841514260   109.69184752   125.00096153
 H      2   1   3     2.072840489354   108.22621433   240.30334129
 H      8   7   6     2.072843371081   117.94084104   304.82775268
 H      8   7   6     2.072841007075   103.24498484   194.75705939
 H      8   7   6     2.072840582869   108.26804526    78.12214415
 H      9   7   6     1.914103539065   121.10155623   178.92023998
 H     12  10   9     1.914103723791   117.30621113   185.61864350
 H     13  12  10     2.072840593111   108.05574527   144.74120914
 H     15  14  13     2.052243311304   117.58506955     7.39437572
 H     16  15  14     2.052244999552   123.63731473   180.62037759
 H     17  16  15     2.052245934643   122.09743109   176.17595786
 H     19  18  17     1.838703547615   110.64254078   176.03571818
 H     20  14  13     2.052247277024   122.03669400   354.26470821

---------------------
BASIS SET INFORMATION
---------------------
There are 5 groups of distinct atoms

 Group   1 Type C   : 18s5p2d1f contracted to 4s3p2d1f pattern {8811/311/11/1}
 Group   2 Type O   : 18s5p2d1f contracted to 4s3p2d1f pattern {8811/311/11/1}
 Group   3 Type N   : 18s5p2d1f contracted to 4s3p2d1f pattern {8811/311/11/1}
 Group   4 Type S   : 41s16p2d1f contracted to 5s4p2d1f pattern {13131311/7711/11/1}
 Group   5 Type H   : 5s2p1d contracted to 3s2p1d pattern {311/11/1}

Atom   0C    basis set group =>   1
Atom   1C    basis set group =>   1
Atom   2O    basis set group =>   2
Atom   3C    basis set group =>   1
Atom   4O    basis set group =>   2
Atom   5C    basis set group =>   1
Atom   6C    basis set group =>   1
Atom   7C    basis set group =>   1
Atom   8N    basis set group =>   3
Atom   9C    basis set group =>   1
Atom  10S    basis set group =>   4
Atom  11N    basis set group =>   3
Atom  12C    basis set group =>   1
Atom  13C    basis set group =>   1
Atom  14C    basis set group =>   1
Atom  15C    basis set group =>   1
Atom  16C    basis set group =>   1
Atom  17C    basis set group =>   1
Atom  18O    basis set group =>   2
Atom  19C    basis set group =>   1
Atom  20H    basis set group =>   5
Atom  21H    basis set group =>   5
Atom  22H    basis set group =>   5
Atom  23H    basis set group =>   5
Atom  24H    basis set group =>   5
Atom  25H    basis set group =>   5
Atom  26H    basis set group =>   5
Atom  27H    basis set group =>   5
Atom  28H    basis set group =>   5
Atom  29H    basis set group =>   5
Atom  30H    basis set group =>   5
Atom  31H    basis set group =>   5
Atom  32H    basis set group =>   5
Atom  33H    basis set group =>   5
Atom  34H    basis set group =>   5
Atom  35H    basis set group =>   5
---------------------------------
AUXILIARY/C BASIS SET INFORMATION
---------------------------------
There are 5 groups of distinct atoms

 Group   1 Type C   : 8s6p5d3f1g contracted to 8s6p5d3f1g pattern {11111111/111111/11111/111/1}
 Group   2 Type O   : 8s6p5d3f1g contracted to 8s6p5d3f1g pattern {11111111/111111/11111/111/1}
 Group   3 Type N   : 8s6p5d3f1g contracted to 8s6p5d3f1g pattern {11111111/111111/11111/111/1}
 Group   4 Type S   : 10s8p7d5f2g contracted to 10s8p7d5f2g pattern {1111111111/11111111/1111111/11111/11}
 Group   5 Type H   : 4s3p2d1f contracted to 4s3p2d1f pattern {1111/111/11/1}

Atom   0C    basis set group =>   1
Atom   1C    basis set group =>   1
Atom   2O    basis set group =>   2
Atom   3C    basis set group =>   1
Atom   4O    basis set group =>   2
Atom   5C    basis set group =>   1
Atom   6C    basis set group =>   1
Atom   7C    basis set group =>   1
Atom   8N    basis set group =>   3
Atom   9C    basis set group =>   1
Atom  10S    basis set group =>   4
Atom  11N    basis set group =>   3
Atom  12C    basis set group =>   1
Atom  13C    basis set group =>   1
Atom  14C    basis set group =>   1
Atom  15C    basis set group =>   1
Atom  16C    basis set group =>   1
Atom  17C    basis set group =>   1
Atom  18O    basis set group =>   2
Atom  19C    basis set group =>   1
Atom  20H    basis set group =>   5
Atom  21H    basis set group =>   5
Atom  22H    basis set group =>   5
Atom  23H    basis set group =>   5
Atom  24H    basis set group =>   5
Atom  25H    basis set group =>   5
Atom  26H    basis set group =>   5
Atom  27H    basis set group =>   5
Atom  28H    basis set group =>   5
Atom  29H    basis set group =>   5
Atom  30H    basis set group =>   5
Atom  31H    basis set group =>   5
Atom  32H    basis set group =>   5
Atom  33H    basis set group =>   5
Atom  34H    basis set group =>   5
Atom  35H    basis set group =>   5
------------------------------------------------------------------------------
                           ORCA GTO INTEGRAL CALCULATION
------------------------------------------------------------------------------
------------------------------------------------------------------------------
                   ___                                                        
                  /   \      - P O W E R E D   B Y -                         
                 /     \                                                     
                 |  |  |   _    _      __       _____    __    __             
                 |  |  |  | |  | |    /  \     |  _  \  |  |  /  |          
                  \  \/   | |  | |   /    \    | | | |  |  | /  /          
                 / \  \   | |__| |  /  /\  \   | |_| |  |  |/  /          
                |  |  |   |  __  | /  /__\  \  |    /   |      \           
                |  |  |   | |  | | |   __   |  |    \   |  |\   \          
                \     /   | |  | | |  |  |  |  | |\  \  |  | \   \       
                 \___/    |_|  |_| |__|  |__|  |_| \__\ |__|  \__/        
                                                                              
                      - O R C A' S   B I G   F R I E N D -                    
                                      &                                       
                       - I N T E G R A L  F E E D E R -                       
                                                                              
 v1 FN, 2020, v2 2021                                                         
------------------------------------------------------------------------------


Reading SHARK input file qm_input.solv.SHARKINP.tmp ... ok
----------------------
SHARK INTEGRAL PACKAGE
----------------------

Number of atoms                             ...     36
Number of basis functions                   ...    828
Number of shells                            ...    298
Maximum angular momentum                    ...      3
Integral batch strategy                     ... SHARK/LIBINT Hybrid
RI-J (if used) integral strategy            ... SPLIT-RIJ (Revised 2003 algorithm where possible)
Printlevel                                  ...      1
Contraction scheme used                     ... SEGMENTED contraction
Coulomb Range Separation                    ... NOT USED
Exchange Range Separation                   ... NOT USED
Finite Nucleus Model                        ... NOT USED
Auxiliary Coulomb fitting basis             ... NOT available
Auxiliary J/K fitting basis                 ... NOT available
Auxiliary Correlation fitting basis         ... AVAILABLE
   # of basis functions in Aux-C            ...   2141
   # of shells in Aux-C                     ...    629
   Maximum angular momentum in Aux-C        ...      4
Auxiliary 'external' fitting basis          ... NOT available
Integral threshold                          ...     2.500000e-11
Primitive cut-off                           ...     2.500000e-12
Primitive pair pre-selection threshold      ...     2.500000e-12

Calculating pre-screening integrals         ... done (  0.6 sec) Dimension = 298
Organizing shell pair data                  ... done (  0.4 sec)
Shell pair information
Total number of shell pairs                 ...     44551
Shell pairs after pre-screening             ...     32704
Total number of primitive shell pairs       ...    234348
Primitive shell pairs kept                  ...     94143
          la=0 lb=0:   6550 shell pairs
          la=1 lb=0:   9090 shell pairs
          la=1 lb=1:   3213 shell pairs
          la=2 lb=0:   5222 shell pairs
          la=2 lb=1:   3585 shell pairs
          la=2 lb=2:   1016 shell pairs
          la=3 lb=0:   1884 shell pairs
          la=3 lb=1:   1284 shell pairs
          la=3 lb=2:    717 shell pairs
          la=3 lb=3:    143 shell pairs

Reading point charge file                   ... ok (42195 point charges)
Calculating one electron integrals          ... done (221.7 sec)
Calculating RI/C V-Matrix + Cholesky decomp.... done (  0.4 sec)
Calculating Nuclear repulsion               ... (+Point charges) done (  0.0 sec) ENN=   1510.101293794207 Eh

SHARK setup successfully completed in 223.4 seconds

Maximum memory used throughout the entire GTOINT-calculation: 483.7 MB
ENUC WAS=  0.000000000
ENUC IS =  0.000000000
-------------------------------------------------------------------------------
                                 ORCA SCF
-------------------------------------------------------------------------------

------------
SCF SETTINGS
------------
Hamiltonian:
 Ab initio Hamiltonian  Method          .... Hartree-Fock(GTOs)


General Settings:
 Integral files         IntName         .... qm_input.solv
 Hartree-Fock type      HFTyp           .... RHF
 Total Charge           Charge          ....    0
 Multiplicity           Mult            ....    1
 Number of Electrons    NEL             ....  154
 Basis Dimension        Dim             ....  828
 Nuclear Repulsion      ENuc            ....   1510.1012937942 Eh

Convergence Acceleration:
 DIIS                   CNVDIIS         .... on
   Start iteration      DIISMaxIt       ....    12
   Startup error        DIISStart       ....  0.200000
   # of expansion vecs  DIISMaxEq       ....     5
   Bias factor          DIISBfac        ....   1.050
   Max. coefficient     DIISMaxC        ....  10.000
 Trust-Rad. Augm. Hess. CNVTRAH         .... auto
   Auto Start mean grad. ratio tolernc. ....  1.125000
   Auto Start start iteration           ....    20
   Auto Start num. interpolation iter.  ....    10
   Max. Number of Micro iterations      ....    16
   Max. Number of Macro iterations      .... Maxiter - #DIIS iter
   Number of Davidson start vectors     ....     2
   Converg. threshold I  (grad. norm)   ....   1.000e-05
   Converg. threshold II (energy diff.) ....   1.000e-08
   Grad. Scal. Fac. for Micro threshold ....   0.100
   Minimum threshold for Micro iter.    ....   0.010
   NR start threshold (gradient norm)   ....   0.001
   Initial trust radius                 ....   0.400
   Minimum AH scaling param. (alpha)    ....   1.000
   Maximum AH scaling param. (alpha)    .... 1000.000
   Orbital update algorithm             .... Taylor
   White noise on init. David. guess    .... on
   Maximum white noise                  ....   0.010
   Quad. conv. algorithm                .... NR
 SOSCF                  CNVSOSCF        .... on
   Start iteration      SOSCFMaxIt      ....   150
   Startup grad/error   SOSCFStart      ....  0.003300
 Level Shifting         CNVShift        .... on
   Level shift para.    LevelShift      ....    0.2500
   Turn off err/grad.   ShiftErr        ....    0.0010
 Zerner damping         CNVZerner       .... off
 Static damping         CNVDamp         .... on
   Fraction old density DampFac         ....    0.7000
   Max. Damping (<1)    DampMax         ....    0.9800
   Min. Damping (>=0)   DampMin         ....    0.0000
   Turn off err/grad.   DampErr         ....    0.1000
 Fernandez-Rico         CNVRico         .... off

SCF Procedure:
 Maximum # iterations   MaxIter         ....   125
 SCF integral mode      SCFMode         .... Direct
   Integral package                     .... SHARK and LIBINT hybrid scheme
 Reset frequency        DirectResetFreq ....    20
 Integral Threshold     Thresh          ....  2.500e-11 Eh
 Primitive CutOff       TCut            ....  2.500e-12 Eh

Convergence Tolerance:
 Convergence Check Mode ConvCheckMode   .... Total+1el-Energy
 Convergence forced     ConvForced      .... 1
 Energy Change          TolE            ....  1.000e-08 Eh
 1-El. energy change                    ....  1.000e-05 Eh
 Orbital Gradient       TolG            ....  1.000e-05
 Orbital Rotation angle TolX            ....  1.000e-05
 DIIS Error             TolErr          ....  5.000e-07


Diagonalization of the overlap matrix:
Smallest eigenvalue                        ... 3.440e-05
Time for diagonalization                   ...    0.156 sec
Threshold for overlap eigenvalues          ... 1.000e-08
Number of eigenvalues below threshold      ... 0
Time for construction of square roots      ...    0.067 sec
Total time needed                          ...    0.226 sec

Time for model grid setup =    1.505 sec

------------------------------
INITIAL GUESS: MODEL POTENTIAL
------------------------------
Loading Hartree-Fock densities                     ... done
Calculating cut-offs                               ... done
Initializing the effective Hamiltonian             ... done
Setting up the integral package (SHARK)            ... done
Starting the Coulomb interaction                   ... done (   4.5 sec)
Reading the grid                                   ... done
Mapping shells                                     ... done
Starting the XC term evaluation                    ... done (   1.6 sec)
Transforming the Hamiltonian                       ... done (   0.1 sec)
Diagonalizing the Hamiltonian                      ... done (   0.2 sec)
Back transforming the eigenvectors                 ... done (   0.0 sec)
Now organizing SCF variables                       ... done
                      ------------------
                      INITIAL GUESS DONE (   7.9 sec)
                      ------------------
--------------
SCF ITERATIONS
--------------
ITER       Energy         Delta-E        Max-DP      RMS-DP      [F,P]     Damp
               ***  Starting incremental Fock matrix formation  ***
  0  -1270.0484477685   0.000000000000 0.06064738  0.00048863  0.3764184 0.7000
  1  -1270.3319574064  -0.283509637944 0.05615732  0.00040076  0.2186036 0.7000
                               ***Turning on DIIS***
  2  -1270.5077572671  -0.175799860693 0.03157695  0.00026118  0.1152949 0.7000
  3  -1272.4901465927  -1.982389325615 0.06424982  0.00052789  0.0843013 0.0000
  4  -1270.8458411304   1.644305462341 0.01871554  0.00010824  0.0078710 0.0000
  5  -1270.8902598430  -0.044418712649 0.00571791  0.00005525  0.0048456 0.0000
  6  -1270.8713232156   0.018936627433 0.00221742  0.00002719  0.0034181 0.0000
                      *** Initiating the SOSCF procedure ***
                           *** Shutting down DIIS ***
                      *** Re-Reading the Fockian *** 
                      *** Removing any level shift *** 
ITER      Energy       Delta-E        Grad      Rot      Max-DP    RMS-DP
  7  -1270.88872546  -0.0174022422  0.001191  0.001191  0.001350  0.000015
               *** Restarting incremental Fock matrix formation ***
  8  -1270.88906069  -0.0003352310  0.000515  0.001208  0.000621  0.000008
  9  -1270.88907656  -0.0000158739  0.000251  0.001518  0.000727  0.000010
 10  -1270.88908297  -0.0000064072  0.000065  0.000156  0.000161  0.000002
 11  -1270.88908354  -0.0000005720  0.000031  0.000074  0.000064  0.000001
 12  -1270.88908367  -0.0000001246  0.000012  0.000054  0.000039  0.000000
 13  -1270.88908369  -0.0000000235  0.000010  0.000052  0.000024  0.000000
                 **** Energy Check signals convergence ****
              ***Rediagonalizing the Fockian in SOSCF/NRSCF***

               *****************************************************
               *                     SUCCESS                       *
               *           SCF CONVERGED AFTER  14 CYCLES          *
               *****************************************************


----------------
TOTAL SCF ENERGY
----------------

Total Energy       :        -1270.88908370 Eh          -34582.65012 eV

Components:
Nuclear Repulsion  :         1510.10129379 Eh           41091.94528 eV
Electronic Energy  :        -2780.99037749 Eh          -75674.59539 eV
One Electron Energy:        -4921.28393244 Eh         -133914.94391 eV
Two Electron Energy:         2140.29355495 Eh           58240.34851 eV

Virial components:
Potential Energy   :        -2539.52281122 Eh          -69103.92887 eV
Kinetic Energy     :         1268.63372753 Eh           34521.27875 eV
Virial Ratio       :            2.00177778


---------------
SCF CONVERGENCE
---------------

  Last Energy change         ...   -5.4038e-09  Tolerance :   1.0000e-08
  Last MAX-Density change    ...    4.6409e-06  Tolerance :   1.0000e-07
  Last RMS-Density change    ...    4.9339e-08  Tolerance :   5.0000e-09
  Last Orbital Gradient      ...    3.2150e-06  Tolerance :   1.0000e-05
  Last Orbital Rotation      ...    5.0041e-06  Tolerance :   1.0000e-05

             **** THE GBW FILE WAS UPDATED (qm_input.solv.gbw) ****
             **** DENSITY qm_input.solv.scfp WAS UPDATED ****
             **** ENERGY FILE WAS UPDATED (qm_input.solv.en.tmp) ****
             **** THE GBW FILE WAS UPDATED (qm_input.solv.gbw) ****
             **** DENSITY qm_input.solv.scfp WAS UPDATED ****
----------------
ORBITAL ENERGIES
----------------

  NO   OCC          E(Eh)            E(eV) 
   0   2.0000     -90.737457     -2469.0917 
   1   2.0000     -19.449823      -529.2566 
   2   2.0000     -19.417887      -528.3876 
   3   2.0000     -19.386619      -527.5367 
   4   2.0000     -14.466789      -393.6613 
   5   2.0000     -14.438997      -392.9051 
   6   2.0000     -10.239318      -278.6260 
   7   2.0000     -10.229463      -278.3578 
   8   2.0000     -10.179433      -276.9965 
   9   2.0000     -10.148116      -276.1443 
  10   2.0000     -10.132164      -275.7102 
  11   2.0000     -10.129789      -275.6456 
  12   2.0000     -10.090057      -274.5644 
  13   2.0000     -10.088311      -274.5169 
  14   2.0000     -10.082433      -274.3569 
  15   2.0000     -10.077890      -274.2333 
  16   2.0000     -10.075474      -274.1676 
  17   2.0000     -10.071168      -274.0504 
  18   2.0000     -10.067677      -273.9554 
  19   2.0000     -10.055364      -273.6204 
  20   2.0000      -7.744310      -210.7334 
  21   2.0000      -5.426215      -147.6548 
  22   2.0000      -5.424168      -147.5991 
  23   2.0000      -5.423644      -147.5849 
  24   2.0000      -0.296340        -8.0638 
  25   2.0000      -0.222848        -6.0640 
  26   2.0000      -0.201314        -5.4780 
  27   2.0000      -0.173044        -4.7088 
  28   2.0000      -0.073175        -1.9912 
  29   2.0000       0.013901         0.3783 
  30   2.0000       0.053309         1.4506 
  31   2.0000       0.126175         3.4334 
  32   2.0000       0.135980         3.7002 
  33   2.0000       0.162374         4.4184 
  34   2.0000       0.173420         4.7190 
  35   2.0000       0.181689         4.9440 
  36   2.0000       0.249025         6.7763 
  37   2.0000       0.281833         7.6691 
  38   2.0000       0.318808         8.6752 
  39   2.0000       0.324766         8.8373 
  40   2.0000       0.341615         9.2958 
  41   2.0000       0.358995         9.7688 
  42   2.0000       0.397118        10.8061 
  43   2.0000       0.438332        11.9276 
  44   2.0000       0.450162        12.2495 
  45   2.0000       0.469460        12.7747 
  46   2.0000       0.473186        12.8760 
  47   2.0000       0.486078        13.2268 
  48   2.0000       0.496168        13.5014 
  49   2.0000       0.505966        13.7680 
  50   2.0000       0.516832        14.0637 
  51   2.0000       0.529547        14.4097 
  52   2.0000       0.539813        14.6891 
  53   2.0000       0.563573        15.3356 
  54   2.0000       0.569120        15.4866 
  55   2.0000       0.577582        15.7168 
  56   2.0000       0.582453        15.8493 
  57   2.0000       0.594722        16.1832 
  58   2.0000       0.596987        16.2448 
  59   2.0000       0.602693        16.4001 
  60   2.0000       0.610101        16.6017 
  61   2.0000       0.622417        16.9368 
  62   2.0000       0.634777        17.2732 
  63   2.0000       0.643085        17.4992 
  64   2.0000       0.655642        17.8409 
  65   2.0000       0.658998        17.9322 
  66   2.0000       0.662912        18.0388 
  67   2.0000       0.668111        18.1802 
  68   2.0000       0.686211        18.6728 
  69   2.0000       0.696524        18.9534 
  70   2.0000       0.703762        19.1503 
  71   2.0000       0.711883        19.3713 
  72   2.0000       0.809391        22.0247 
  73   2.0000       0.816351        22.2140 
  74   2.0000       0.822072        22.3697 
  75   2.0000       0.834388        22.7049 
  76   2.0000       0.852570        23.1996 
  77   0.0000       1.229098        33.4455 
  78   0.0000       1.284531        34.9539 
  79   0.0000       1.295211        35.2445 
  80   0.0000       1.315677        35.8014 
  81   0.0000       1.318549        35.8795 
  82   0.0000       1.328624        36.1537 
  83   0.0000       1.338074        36.4108 
  84   0.0000       1.348806        36.7029 
  85   0.0000       1.352863        36.8133 
  86   0.0000       1.365369        37.1536 
  87   0.0000       1.368051        37.2266 
  88   0.0000       1.376282        37.4505 
  89   0.0000       1.383161        37.6377 
  90   0.0000       1.389425        37.8082 
  91   0.0000       1.393989        37.9324 
  92   0.0000       1.396402        37.9980 
  93   0.0000       1.403830        38.2001 
  94   0.0000       1.416722        38.5510 
  95   0.0000       1.420647        38.6578 
  96   0.0000       1.429700        38.9041 
  97   0.0000       1.435675        39.0667 
  98   0.0000       1.444500        39.3068 
  99   0.0000       1.455903        39.6171 
 100   0.0000       1.467219        39.9251 
 101   0.0000       1.483622        40.3714 
 102   0.0000       1.485699        40.4279 
 103   0.0000       1.491509        40.5860 
 104   0.0000       1.497343        40.7448 
 105   0.0000       1.505818        40.9754 
 106   0.0000       1.513865        41.1943 
 107   0.0000       1.523571        41.4585 
 108   0.0000       1.527015        41.5522 
 109   0.0000       1.538104        41.8539 
 110   0.0000       1.555206        42.3193 
 111   0.0000       1.562981        42.5309 
 112   0.0000       1.565984        42.6126 
 113   0.0000       1.570230        42.7281 
 114   0.0000       1.575497        42.8715 
 115   0.0000       1.585220        43.1360 
 116   0.0000       1.590411        43.2773 
 117   0.0000       1.595750        43.4226 
 118   0.0000       1.597916        43.4815 
 119   0.0000       1.602387        43.6032 
 120   0.0000       1.609046        43.7844 
 121   0.0000       1.613730        43.9118 
 122   0.0000       1.620705        44.1016 
 123   0.0000       1.623152        44.1682 
 124   0.0000       1.629154        44.3315 
 125   0.0000       1.639518        44.6135 
 126   0.0000       1.650293        44.9068 
 127   0.0000       1.652953        44.9791 
 128   0.0000       1.654992        45.0346 
 129   0.0000       1.663413        45.2638 
 130   0.0000       1.667016        45.3618 
 131   0.0000       1.670638        45.4604 
 132   0.0000       1.675400        45.5900 
 133   0.0000       1.680426        45.7267 
 134   0.0000       1.684917        45.8489 
 135   0.0000       1.694808        46.1181 
 136   0.0000       1.703133        46.3446 
 137   0.0000       1.708436        46.4889 
 138   0.0000       1.711157        46.5630 
 139   0.0000       1.718925        46.7743 
 140   0.0000       1.721450        46.8430 
 141   0.0000       1.723957        46.9113 
 142   0.0000       1.733082        47.1595 
 143   0.0000       1.736608        47.2555 
 144   0.0000       1.745612        47.5005 
 145   0.0000       1.746955        47.5371 
 146   0.0000       1.753176        47.7063 
 147   0.0000       1.758745        47.8579 
 148   0.0000       1.765402        48.0390 
 149   0.0000       1.772394        48.2293 
 150   0.0000       1.778755        48.4024 
 151   0.0000       1.780890        48.4605 
 152   0.0000       1.783016        48.5183 
 153   0.0000       1.788739        48.6741 
 154   0.0000       1.792395        48.7736 
 155   0.0000       1.795967        48.8707 
 156   0.0000       1.797309        48.9073 
 157   0.0000       1.802896        49.0593 
 158   0.0000       1.807076        49.1730 
 159   0.0000       1.818095        49.4729 
 160   0.0000       1.820415        49.5360 
 161   0.0000       1.827035        49.7161 
 162   0.0000       1.829807        49.7916 
 163   0.0000       1.831127        49.8275 
 164   0.0000       1.837409        49.9984 
 165   0.0000       1.843092        50.1531 
 166   0.0000       1.843481        50.1637 
 167   0.0000       1.859415        50.5972 
 168   0.0000       1.863752        50.7153 
 169   0.0000       1.864587        50.7380 
 170   0.0000       1.873218        50.9728 
 171   0.0000       1.876187        51.0537 
 172   0.0000       1.884857        51.2896 
 173   0.0000       1.892621        51.5008 
 174   0.0000       1.903477        51.7962 
 175   0.0000       1.905051        51.8391 
 176   0.0000       1.909476        51.9595 
 177   0.0000       1.915899        52.1343 
 178   0.0000       1.920860        52.2693 
 179   0.0000       1.923688        52.3462 
 180   0.0000       1.934329        52.6358 
 181   0.0000       1.946247        52.9601 
 182   0.0000       1.949100        53.0377 
 183   0.0000       1.953737        53.1639 
 184   0.0000       1.965322        53.4791 
 185   0.0000       1.974004        53.7154 
 186   0.0000       1.975935        53.7679 
 187   0.0000       1.993013        54.2327 
 188   0.0000       1.997536        54.3557 
 189   0.0000       2.002138        54.4809 
 190   0.0000       2.014105        54.8066 
 191   0.0000       2.016170        54.8628 
 192   0.0000       2.019796        54.9614 
 193   0.0000       2.031433        55.2781 
 194   0.0000       2.031978        55.2929 
 195   0.0000       2.051571        55.8261 
 196   0.0000       2.059163        56.0327 
 197   0.0000       2.063838        56.1599 
 198   0.0000       2.069713        56.3197 
 199   0.0000       2.075828        56.4862 
 200   0.0000       2.077770        56.5390 
 201   0.0000       2.092621        56.9431 
 202   0.0000       2.094502        56.9943 
 203   0.0000       2.107955        57.3604 
 204   0.0000       2.111885        57.4673 
 205   0.0000       2.115006        57.5522 
 206   0.0000       2.125635        57.8415 
 207   0.0000       2.128839        57.9287 
 208   0.0000       2.132234        58.0210 
 209   0.0000       2.144443        58.3532 
 210   0.0000       2.151126        58.5351 
 211   0.0000       2.156011        58.6680 
 212   0.0000       2.159982        58.7761 
 213   0.0000       2.170034        59.0496 
 214   0.0000       2.172837        59.1259 
 215   0.0000       2.179784        59.3149 
 216   0.0000       2.186851        59.5072 
 217   0.0000       2.197721        59.8030 
 218   0.0000       2.201313        59.9008 
 219   0.0000       2.214623        60.2630 
 220   0.0000       2.220186        60.4143 
 221   0.0000       2.226013        60.5729 
 222   0.0000       2.231405        60.7196 
 223   0.0000       2.239205        60.9319 
 224   0.0000       2.250594        61.2418 
 225   0.0000       2.259778        61.4917 
 226   0.0000       2.272416        61.8356 
 227   0.0000       2.275827        61.9284 
 228   0.0000       2.284059        62.1524 
 229   0.0000       2.295926        62.4753 
 230   0.0000       2.299063        62.5607 
 231   0.0000       2.307704        62.7958 
 232   0.0000       2.311665        62.9036 
 233   0.0000       2.327951        63.3468 
 234   0.0000       2.332772        63.4780 
 235   0.0000       2.337929        63.6183 
 236   0.0000       2.341664        63.7199 
 237   0.0000       2.349823        63.9419 
 238   0.0000       2.354359        64.0654 
 239   0.0000       2.358917        64.1894 
 240   0.0000       2.360890        64.2431 
 241   0.0000       2.374005        64.6000 
 242   0.0000       2.380092        64.7656 
 243   0.0000       2.387833        64.9762 
 244   0.0000       2.404441        65.4282 
 245   0.0000       2.408840        65.5479 
 246   0.0000       2.414504        65.7020 
 247   0.0000       2.417272        65.7773 
 248   0.0000       2.423508        65.9470 
 249   0.0000       2.431104        66.1537 
 250   0.0000       2.435468        66.2724 
 251   0.0000       2.439170        66.3732 
 252   0.0000       2.444396        66.5154 
 253   0.0000       2.455759        66.8246 
 254   0.0000       2.461019        66.9677 
 255   0.0000       2.462985        67.0212 
 256   0.0000       2.467385        67.1410 
 257   0.0000       2.483216        67.5717 
 258   0.0000       2.489762        67.7499 
 259   0.0000       2.500113        68.0315 
 260   0.0000       2.502721        68.1025 
 261   0.0000       2.514525        68.4237 
 262   0.0000       2.520516        68.5867 
 263   0.0000       2.526808        68.7579 
 264   0.0000       2.532178        68.9041 
 265   0.0000       2.541944        69.1698 
 266   0.0000       2.553537        69.4853 
 267   0.0000       2.565935        69.8226 
 268   0.0000       2.572929        70.0130 
 269   0.0000       2.577161        70.1281 
 270   0.0000       2.590683        70.4961 
 271   0.0000       2.599310        70.7308 
 272   0.0000       2.605734        70.9056 
 273   0.0000       2.619291        71.2745 
 274   0.0000       2.623818        71.3977 
 275   0.0000       2.634723        71.6944 
 276   0.0000       2.645188        71.9792 
 277   0.0000       2.647342        72.0378 
 278   0.0000       2.656391        72.2841 
 279   0.0000       2.668956        72.6260 
 280   0.0000       2.669333        72.6362 
 281   0.0000       2.674587        72.7792 
 282   0.0000       2.677202        72.8504 
 283   0.0000       2.681488        72.9670 
 284   0.0000       2.689646        73.1890 
 285   0.0000       2.693447        73.2924 
 286   0.0000       2.704124        73.5830 
 287   0.0000       2.705394        73.6175 
 288   0.0000       2.709322        73.7244 
 289   0.0000       2.715295        73.8869 
 290   0.0000       2.722485        74.0826 
 291   0.0000       2.743282        74.6485 
 292   0.0000       2.746267        74.7297 
 293   0.0000       2.752978        74.9123 
 294   0.0000       2.761101        75.1334 
 295   0.0000       2.774586        75.5003 
 296   0.0000       2.775927        75.5368 
 297   0.0000       2.781263        75.6820 
 298   0.0000       2.788989        75.8922 
 299   0.0000       2.796339        76.0923 
 300   0.0000       2.799089        76.1671 
 301   0.0000       2.812179        76.5233 
 302   0.0000       2.820780        76.7573 
 303   0.0000       2.825898        76.8966 
 304   0.0000       2.835984        77.1711 
 305   0.0000       2.846285        77.4513 
 306   0.0000       2.854091        77.6638 
 307   0.0000       2.858063        77.7718 
 308   0.0000       2.867509        78.0289 
 309   0.0000       2.875358        78.2425 
 310   0.0000       2.880343        78.3781 
 311   0.0000       2.888001        78.5865 
 312   0.0000       2.894291        78.7577 
 313   0.0000       2.910134        79.1888 
 314   0.0000       2.913096        79.2694 
 315   0.0000       2.936261        79.8997 
 316   0.0000       2.943741        80.1033 
 317   0.0000       2.953906        80.3799 
 318   0.0000       2.958685        80.5099 
 319   0.0000       2.965004        80.6819 
 320   0.0000       2.979615        81.0794 
 321   0.0000       2.990358        81.3718 
 322   0.0000       2.997766        81.5734 
 323   0.0000       3.016054        82.0710 
 324   0.0000       3.023776        82.2811 
 325   0.0000       3.028931        82.4214 
 326   0.0000       3.039189        82.7005 
 327   0.0000       3.051503        83.0356 
 328   0.0000       3.066467        83.4428 
 329   0.0000       3.072630        83.6105 
 330   0.0000       3.077809        83.7514 
 331   0.0000       3.086280        83.9820 
 332   0.0000       3.096436        84.2583 
 333   0.0000       3.119943        84.8980 
 334   0.0000       3.131973        85.2253 
 335   0.0000       3.133496        85.2668 
 336   0.0000       3.136175        85.3397 
 337   0.0000       3.154847        85.8477 
 338   0.0000       3.158974        85.9601 
 339   0.0000       3.172493        86.3279 
 340   0.0000       3.176122        86.4267 
 341   0.0000       3.188238        86.7564 
 342   0.0000       3.203915        87.1830 
 343   0.0000       3.232643        87.9647 
 344   0.0000       3.258871        88.6784 
 345   0.0000       3.269937        88.9795 
 346   0.0000       3.289099        89.5009 
 347   0.0000       3.293497        89.6206 
 348   0.0000       3.308365        90.0252 
 349   0.0000       3.318705        90.3066 
 350   0.0000       3.335259        90.7570 
 351   0.0000       3.347339        91.0857 
 352   0.0000       3.363729        91.5317 
 353   0.0000       3.373983        91.8107 
 354   0.0000       3.382098        92.0316 
 355   0.0000       3.426342        93.2355 
 356   0.0000       3.431137        93.3660 
 357   0.0000       3.443921        93.7139 
 358   0.0000       3.450593        93.8954 
 359   0.0000       3.460162        94.1558 
 360   0.0000       3.471270        94.4581 
 361   0.0000       3.477690        94.6328 
 362   0.0000       3.494118        95.0798 
 363   0.0000       3.506841        95.4260 
 364   0.0000       3.509389        95.4953 
 365   0.0000       3.534312        96.1735 
 366   0.0000       3.555612        96.7531 
 367   0.0000       3.567544        97.0778 
 368   0.0000       3.575815        97.3029 
 369   0.0000       3.600156        97.9652 
 370   0.0000       3.609721        98.2255 
 371   0.0000       3.624574        98.6297 
 372   0.0000       3.634114        98.8893 
 373   0.0000       3.640573        99.0650 
 374   0.0000       3.651559        99.3640 
 375   0.0000       3.670231        99.8721 
 376   0.0000       3.684318       100.2554 
 377   0.0000       3.688874       100.3794 
 378   0.0000       3.695984       100.5729 
 379   0.0000       3.709924       100.9522 
 380   0.0000       3.731084       101.5280 
 381   0.0000       3.745960       101.9328 
 382   0.0000       3.761790       102.3635 
 383   0.0000       3.769638       102.5771 
 384   0.0000       3.777263       102.7845 
 385   0.0000       3.789320       103.1126 
 386   0.0000       3.792878       103.2095 
 387   0.0000       3.801222       103.4365 
 388   0.0000       3.816781       103.8599 
 389   0.0000       3.823807       104.0511 
 390   0.0000       3.825950       104.1094 
 391   0.0000       3.843510       104.5872 
 392   0.0000       3.850347       104.7733 
 393   0.0000       3.875410       105.4553 
 394   0.0000       3.878014       105.5261 
 395   0.0000       3.884449       105.7012 
 396   0.0000       3.893472       105.9467 
 397   0.0000       3.906650       106.3053 
 398   0.0000       3.920054       106.6701 
 399   0.0000       3.922850       106.7462 
 400   0.0000       3.937709       107.1505 
 401   0.0000       3.944080       107.3239 
 402   0.0000       3.952985       107.5662 
 403   0.0000       3.969519       108.0161 
 404   0.0000       3.979021       108.2747 
 405   0.0000       3.986416       108.4759 
 406   0.0000       3.994118       108.6855 
 407   0.0000       4.008616       109.0800 
 408   0.0000       4.017151       109.3122 
 409   0.0000       4.021703       109.4361 
 410   0.0000       4.030053       109.6633 
 411   0.0000       4.044931       110.0682 
 412   0.0000       4.050141       110.2099 
 413   0.0000       4.063035       110.5608 
 414   0.0000       4.072926       110.8300 
 415   0.0000       4.084412       111.1425 
 416   0.0000       4.086374       111.1959 
 417   0.0000       4.096155       111.4620 
 418   0.0000       4.109242       111.8182 
 419   0.0000       4.114373       111.9578 
 420   0.0000       4.121598       112.1544 
 421   0.0000       4.134169       112.4965 
 422   0.0000       4.139991       112.6549 
 423   0.0000       4.151158       112.9587 
 424   0.0000       4.156376       113.1007 
 425   0.0000       4.163506       113.2948 
 426   0.0000       4.178660       113.7071 
 427   0.0000       4.181093       113.7733 
 428   0.0000       4.193979       114.1240 
 429   0.0000       4.207688       114.4970 
 430   0.0000       4.218100       114.7803 
 431   0.0000       4.232911       115.1834 
 432   0.0000       4.236389       115.2780 
 433   0.0000       4.245310       115.5208 
 434   0.0000       4.250621       115.6653 
 435   0.0000       4.262122       115.9782 
 436   0.0000       4.265177       116.0614 
 437   0.0000       4.273429       116.2859 
 438   0.0000       4.275351       116.3382 
 439   0.0000       4.280418       116.4761 
 440   0.0000       4.285278       116.6083 
 441   0.0000       4.292538       116.8059 
 442   0.0000       4.297762       116.9480 
 443   0.0000       4.301759       117.0568 
 444   0.0000       4.318573       117.5144 
 445   0.0000       4.328263       117.7780 
 446   0.0000       4.339478       118.0832 
 447   0.0000       4.344539       118.2209 
 448   0.0000       4.350010       118.3698 
 449   0.0000       4.359307       118.6228 
 450   0.0000       4.359850       118.6375 
 451   0.0000       4.366976       118.8315 
 452   0.0000       4.380850       119.2090 
 453   0.0000       4.390879       119.4819 
 454   0.0000       4.397099       119.6512 
 455   0.0000       4.403335       119.8208 
 456   0.0000       4.417912       120.2175 
 457   0.0000       4.422677       120.3471 
 458   0.0000       4.429182       120.5242 
 459   0.0000       4.433629       120.6452 
 460   0.0000       4.440470       120.8313 
 461   0.0000       4.446403       120.9928 
 462   0.0000       4.454500       121.2131 
 463   0.0000       4.460456       121.3752 
 464   0.0000       4.461871       121.4137 
 465   0.0000       4.468844       121.6034 
 466   0.0000       4.473108       121.7195 
 467   0.0000       4.478036       121.8536 
 468   0.0000       4.480593       121.9231 
 469   0.0000       4.489141       122.1557 
 470   0.0000       4.496739       122.3625 
 471   0.0000       4.502633       122.5229 
 472   0.0000       4.508937       122.6944 
 473   0.0000       4.512425       122.7893 
 474   0.0000       4.517961       122.9400 
 475   0.0000       4.532909       123.3467 
 476   0.0000       4.541956       123.5929 
 477   0.0000       4.547957       123.7562 
 478   0.0000       4.550763       123.8326 
 479   0.0000       4.561966       124.1374 
 480   0.0000       4.568527       124.3159 
 481   0.0000       4.572682       124.4290 
 482   0.0000       4.576962       124.5455 
 483   0.0000       4.580589       124.6442 
 484   0.0000       4.584826       124.7595 
 485   0.0000       4.587790       124.8401 
 486   0.0000       4.589731       124.8929 
 487   0.0000       4.593666       125.0000 
 488   0.0000       4.597848       125.1138 
 489   0.0000       4.608871       125.4138 
 490   0.0000       4.615273       125.5880 
 491   0.0000       4.616840       125.6306 
 492   0.0000       4.626030       125.8807 
 493   0.0000       4.629211       125.9672 
 494   0.0000       4.634471       126.1104 
 495   0.0000       4.642445       126.3274 
 496   0.0000       4.649936       126.5312 
 497   0.0000       4.654148       126.6458 
 498   0.0000       4.663654       126.9045 
 499   0.0000       4.667558       127.0107 
 500   0.0000       4.670932       127.1025 
 501   0.0000       4.681648       127.3941 
 502   0.0000       4.684262       127.4653 
 503   0.0000       4.690999       127.6486 
 504   0.0000       4.695584       127.7733 
 505   0.0000       4.723343       128.5287 
 506   0.0000       4.730055       128.7113 
 507   0.0000       4.739088       128.9571 
 508   0.0000       4.740546       128.9968 
 509   0.0000       4.746398       129.1561 
 510   0.0000       4.756208       129.4230 
 511   0.0000       4.759865       129.5225 
 512   0.0000       4.767424       129.7282 
 513   0.0000       4.775416       129.9457 
 514   0.0000       4.780176       130.0752 
 515   0.0000       4.789857       130.3386 
 516   0.0000       4.794613       130.4681 
 517   0.0000       4.803702       130.7154 
 518   0.0000       4.812569       130.9567 
 519   0.0000       4.814391       131.0062 
 520   0.0000       4.824309       131.2761 
 521   0.0000       4.828833       131.3992 
 522   0.0000       4.834201       131.5453 
 523   0.0000       4.844855       131.8352 
 524   0.0000       4.847604       131.9100 
 525   0.0000       4.855221       132.1173 
 526   0.0000       4.856801       132.1603 
 527   0.0000       4.862760       132.3224 
 528   0.0000       4.863337       132.3381 
 529   0.0000       4.875339       132.6647 
 530   0.0000       4.878283       132.7448 
 531   0.0000       4.888429       133.0209 
 532   0.0000       4.896349       133.2364 
 533   0.0000       4.901645       133.3805 
 534   0.0000       4.902978       133.4168 
 535   0.0000       4.909214       133.5865 
 536   0.0000       4.919719       133.8724 
 537   0.0000       4.928540       134.1124 
 538   0.0000       4.933685       134.2524 
 539   0.0000       4.940505       134.4380 
 540   0.0000       4.944190       134.5383 
 541   0.0000       4.955630       134.8495 
 542   0.0000       4.960452       134.9808 
 543   0.0000       4.964476       135.0903 
 544   0.0000       4.970567       135.2560 
 545   0.0000       4.973822       135.3446 
 546   0.0000       4.976846       135.4269 
 547   0.0000       4.985840       135.6716 
 548   0.0000       4.989739       135.7777 
 549   0.0000       5.002757       136.1319 
 550   0.0000       5.005664       136.2110 
 551   0.0000       5.015464       136.4777 
 552   0.0000       5.024684       136.7286 
 553   0.0000       5.031739       136.9206 
 554   0.0000       5.045932       137.3068 
 555   0.0000       5.046988       137.3355 
 556   0.0000       5.059826       137.6849 
 557   0.0000       5.068135       137.9110 
 558   0.0000       5.086107       138.4000 
 559   0.0000       5.101117       138.8084 
 560   0.0000       5.108602       139.0121 
 561   0.0000       5.111179       139.0823 
 562   0.0000       5.116562       139.2287 
 563   0.0000       5.127159       139.5171 
 564   0.0000       5.133008       139.6762 
 565   0.0000       5.138633       139.8293 
 566   0.0000       5.143265       139.9554 
 567   0.0000       5.160434       140.4225 
 568   0.0000       5.174328       140.8006 
 569   0.0000       5.178912       140.9254 
 570   0.0000       5.184448       141.0760 
 571   0.0000       5.197562       141.4329 
 572   0.0000       5.201586       141.5423 
 573   0.0000       5.220204       142.0490 
 574   0.0000       5.224864       142.1758 
 575   0.0000       5.233984       142.4240 
 576   0.0000       5.236067       142.4806 
 577   0.0000       5.244326       142.7054 
 578   0.0000       5.253649       142.9590 
 579   0.0000       5.260226       143.1380 
 580   0.0000       5.265587       143.2839 
 581   0.0000       5.281108       143.7063 
 582   0.0000       5.281899       143.7278 
 583   0.0000       5.288562       143.9091 
 584   0.0000       5.294797       144.0788 
 585   0.0000       5.307471       144.4236 
 586   0.0000       5.316388       144.6663 
 587   0.0000       5.324916       144.8983 
 588   0.0000       5.327679       144.9735 
 589   0.0000       5.333045       145.1195 
 590   0.0000       5.342103       145.3660 
 591   0.0000       5.351753       145.6286 
 592   0.0000       5.359453       145.8381 
 593   0.0000       5.365445       146.0012 
 594   0.0000       5.370171       146.1298 
 595   0.0000       5.372004       146.1797 
 596   0.0000       5.383736       146.4989 
 597   0.0000       5.385941       146.5589 
 598   0.0000       5.401275       146.9762 
 599   0.0000       5.407884       147.1560 
 600   0.0000       5.418070       147.4332 
 601   0.0000       5.423737       147.5874 
 602   0.0000       5.433241       147.8460 
 603   0.0000       5.441883       148.0812 
 604   0.0000       5.449760       148.2955 
 605   0.0000       5.467732       148.7845 
 606   0.0000       5.474525       148.9694 
 607   0.0000       5.478390       149.0746 
 608   0.0000       5.489757       149.3839 
 609   0.0000       5.492991       149.4719 
 610   0.0000       5.502992       149.7440 
 611   0.0000       5.507100       149.8558 
 612   0.0000       5.511478       149.9750 
 613   0.0000       5.520888       150.2310 
 614   0.0000       5.531580       150.5219 
 615   0.0000       5.542236       150.8119 
 616   0.0000       5.543659       150.8506 
 617   0.0000       5.545532       150.9016 
 618   0.0000       5.555929       151.1845 
 619   0.0000       5.573758       151.6697 
 620   0.0000       5.575389       151.7140 
 621   0.0000       5.579545       151.8271 
 622   0.0000       5.588449       152.0694 
 623   0.0000       5.604387       152.5031 
 624   0.0000       5.613197       152.7429 
 625   0.0000       5.620482       152.9411 
 626   0.0000       5.624107       153.0397 
 627   0.0000       5.627638       153.1358 
 628   0.0000       5.644047       153.5823 
 629   0.0000       5.658411       153.9732 
 630   0.0000       5.660952       154.0423 
 631   0.0000       5.664281       154.1329 
 632   0.0000       5.674161       154.4018 
 633   0.0000       5.685881       154.7207 
 634   0.0000       5.705502       155.2546 
 635   0.0000       5.705794       155.2625 
 636   0.0000       5.717210       155.5732 
 637   0.0000       5.721037       155.6773 
 638   0.0000       5.728654       155.8846 
 639   0.0000       5.732185       155.9807 
 640   0.0000       5.745172       156.3341 
 641   0.0000       5.751542       156.5074 
 642   0.0000       5.757705       156.6751 
 643   0.0000       5.761916       156.7897 
 644   0.0000       5.766425       156.9124 
 645   0.0000       5.779216       157.2605 
 646   0.0000       5.781326       157.3179 
 647   0.0000       5.794303       157.6710 
 648   0.0000       5.803058       157.9092 
 649   0.0000       5.807942       158.0421 
 650   0.0000       5.811886       158.1494 
 651   0.0000       5.824741       158.4992 
 652   0.0000       5.835040       158.7795 
 653   0.0000       5.844012       159.0236 
 654   0.0000       5.853882       159.2922 
 655   0.0000       5.863070       159.5422 
 656   0.0000       5.863616       159.5571 
 657   0.0000       5.872754       159.8058 
 658   0.0000       5.889560       160.2631 
 659   0.0000       5.901482       160.5875 
 660   0.0000       5.904793       160.6776 
 661   0.0000       5.917332       161.0188 
 662   0.0000       5.932053       161.4194 
 663   0.0000       5.940670       161.6538 
 664   0.0000       5.953942       162.0150 
 665   0.0000       5.966438       162.3550 
 666   0.0000       5.979181       162.7018 
 667   0.0000       6.005473       163.4172 
 668   0.0000       6.021625       163.8568 
 669   0.0000       6.048727       164.5942 
 670   0.0000       6.061808       164.9502 
 671   0.0000       6.079857       165.4413 
 672   0.0000       6.084869       165.5777 
 673   0.0000       6.117462       166.4646 
 674   0.0000       6.157979       167.5671 
 675   0.0000       6.176585       168.0734 
 676   0.0000       6.178920       168.1370 
 677   0.0000       6.186618       168.3464 
 678   0.0000       6.192289       168.5008 
 679   0.0000       6.214730       169.1114 
 680   0.0000       6.218975       169.2269 
 681   0.0000       6.223383       169.3469 
 682   0.0000       6.243951       169.9065 
 683   0.0000       6.251667       170.1165 
 684   0.0000       6.262545       170.4125 
 685   0.0000       6.267259       170.5408 
 686   0.0000       6.271914       170.6674 
 687   0.0000       6.287055       171.0795 
 688   0.0000       6.290533       171.1741 
 689   0.0000       6.303749       171.5337 
 690   0.0000       6.330599       172.2643 
 691   0.0000       6.349163       172.7695 
 692   0.0000       6.354806       172.9231 
 693   0.0000       6.372639       173.4083 
 694   0.0000       6.378318       173.5628 
 695   0.0000       6.388267       173.8336 
 696   0.0000       6.398612       174.1151 
 697   0.0000       6.401570       174.1956 
 698   0.0000       6.411916       174.4771 
 699   0.0000       6.426610       174.8769 
 700   0.0000       6.433911       175.0756 
 701   0.0000       6.450491       175.5268 
 702   0.0000       6.457604       175.7204 
 703   0.0000       6.465470       175.9344 
 704   0.0000       6.491008       176.6293 
 705   0.0000       6.494468       176.7235 
 706   0.0000       6.515873       177.3059 
 707   0.0000       6.529414       177.6744 
 708   0.0000       6.530942       177.7160 
 709   0.0000       6.541201       177.9951 
 710   0.0000       6.548225       178.1863 
 711   0.0000       6.576212       178.9478 
 712   0.0000       6.604012       179.7043 
 713   0.0000       6.615351       180.0128 
 714   0.0000       6.626830       180.3252 
 715   0.0000       6.634968       180.5467 
 716   0.0000       6.643467       180.7779 
 717   0.0000       6.669032       181.4736 
 718   0.0000       6.680710       181.7914 
 719   0.0000       6.693555       182.1409 
 720   0.0000       6.701555       182.3586 
 721   0.0000       6.728653       183.0960 
 722   0.0000       6.732456       183.1994 
 723   0.0000       6.745019       183.5413 
 724   0.0000       6.759803       183.9436 
 725   0.0000       6.782016       184.5480 
 726   0.0000       6.788990       184.7378 
 727   0.0000       6.791708       184.8118 
 728   0.0000       6.794756       184.8947 
 729   0.0000       6.808262       185.2622 
 730   0.0000       6.816970       185.4992 
 731   0.0000       6.832660       185.9261 
 732   0.0000       6.843961       186.2336 
 733   0.0000       6.856313       186.5698 
 734   0.0000       6.887063       187.4065 
 735   0.0000       6.893218       187.5740 
 736   0.0000       6.902294       187.8210 
 737   0.0000       6.915276       188.1742 
 738   0.0000       6.917326       188.2300 
 739   0.0000       6.931894       188.6264 
 740   0.0000       6.937607       188.7819 
 741   0.0000       6.947554       189.0526 
 742   0.0000       6.958665       189.3549 
 743   0.0000       6.963912       189.4977 
 744   0.0000       6.977315       189.8624 
 745   0.0000       7.007290       190.6781 
 746   0.0000       7.019376       191.0069 
 747   0.0000       7.039748       191.5613 
 748   0.0000       7.068102       192.3328 
 749   0.0000       7.074855       192.5166 
 750   0.0000       7.087373       192.8572 
 751   0.0000       7.102361       193.2651 
 752   0.0000       7.117916       193.6883 
 753   0.0000       7.134451       194.1383 
 754   0.0000       7.179090       195.3530 
 755   0.0000       7.190179       195.6547 
 756   0.0000       7.207895       196.1368 
 757   0.0000       7.215421       196.3416 
 758   0.0000       7.244578       197.1350 
 759   0.0000       7.252510       197.3508 
 760   0.0000       7.286531       198.2766 
 761   0.0000       7.332658       199.5318 
 762   0.0000       7.339063       199.7061 
 763   0.0000       7.361813       200.3251 
 764   0.0000       7.383493       200.9151 
 765   0.0000       7.420812       201.9306 
 766   0.0000       7.452369       202.7893 
 767   0.0000       7.464998       203.1329 
 768   0.0000       7.486440       203.7164 
 769   0.0000       7.507936       204.3013 
 770   0.0000       7.517870       204.5716 
 771   0.0000       7.532666       204.9743 
 772   0.0000       7.559757       205.7114 
 773   0.0000       7.581438       206.3014 
 774   0.0000       7.629718       207.6152 
 775   0.0000       7.645918       208.0560 
 776   0.0000       7.671891       208.7628 
 777   0.0000       7.705871       209.6874 
 778   0.0000       7.717771       210.0112 
 779   0.0000       7.766695       211.3425 
 780   0.0000       7.792754       212.0516 
 781   0.0000       7.842525       213.4060 
 782   0.0000       7.857769       213.8208 
 783   0.0000       7.902941       215.0500 
 784   0.0000       7.924529       215.6374 
 785   0.0000       7.996672       217.6005 
 786   0.0000       8.009873       217.9597 
 787   0.0000       8.072043       219.6515 
 788   0.0000       8.091172       220.1720 
 789   0.0000       8.152250       221.8340 
 790   0.0000       8.205349       223.2789 
 791   0.0000       8.241976       224.2756 
 792   0.0000       8.251493       224.5345 
 793   0.0000       8.283687       225.4106 
 794   0.0000       8.384798       228.1620 
 795   0.0000       8.401978       228.6294 
 796   0.0000       8.426307       229.2915 
 797   0.0000       8.448762       229.9025 
 798   0.0000       8.463386       230.3004 
 799   0.0000       8.498487       231.2556 
 800   0.0000       8.601777       234.0662 
 801   0.0000       8.627812       234.7747 
 802   0.0000       8.721008       237.3107 
 803   0.0000       8.743048       237.9104 
 804   0.0000       8.858579       241.0542 
 805   0.0000       8.883233       241.7251 
 806   0.0000       9.014480       245.2965 
 807   0.0000       9.074990       246.9430 
 808   0.0000       9.145704       248.8673 
 809   0.0000      10.494956       285.5823 
 810   0.0000      10.579780       287.8904 
 811   0.0000      11.907661       324.0239 
 812   0.0000      12.716369       346.0300 
 813   0.0000      13.162646       358.1738 
 814   0.0000      13.572737       369.3329 
 815   0.0000      13.797928       375.4607 
 816   0.0000      13.968151       380.0927 
 817   0.0000      14.106807       383.8657 
 818   0.0000      14.248276       387.7153 
 819   0.0000      14.454420       393.3248 
 820   0.0000      14.599425       397.2705 
 821   0.0000      14.855042       404.2262 
 822   0.0000      14.878772       404.8720 
 823   0.0000      15.079615       410.3372 
 824   0.0000      15.155746       412.4088 
 825   0.0000      15.403773       419.1580 
 826   0.0000      15.535997       422.7560 
 827   0.0000      16.868613       459.0183 

                    ********************************
                    * MULLIKEN POPULATION ANALYSIS *
                    ********************************

-----------------------
MULLIKEN ATOMIC CHARGES
-----------------------
   0 C :   -0.304354
   1 C :    0.036376
   2 O :   -0.329199
   3 C :    0.491895
   4 O :   -0.565532
   5 C :   -0.187280
   6 C :    0.145213
   7 C :   -0.269369
   8 N :   -0.122970
   9 C :    0.281514
  10 S :   -0.603373
  11 N :   -0.199081
  12 C :    0.018549
  13 C :    0.030567
  14 C :   -0.255506
  15 C :   -0.121806
  16 C :   -0.266926
  17 C :    0.251055
  18 O :   -0.461241
  19 C :   -0.266997
  20 H :    0.093287
  21 H :    0.111697
  22 H :    0.131326
  23 H :    0.113167
  24 H :    0.106502
  25 H :    0.146136
  26 H :    0.107243
  27 H :    0.139231
  28 H :    0.261061
  29 H :    0.239684
  30 H :    0.178508
  31 H :    0.182852
  32 H :    0.193304
  33 H :    0.183297
  34 H :    0.324672
  35 H :    0.186497
Sum of atomic charges:    0.0000000

--------------------------------
MULLIKEN REDUCED ORBITAL CHARGES
--------------------------------
  0 C s       :     3.270881  s :     3.270881
      pz      :     1.020772  p :     2.958147
      px      :     1.038016
      py      :     0.899359
      dz2     :     0.010803  d :     0.071211
      dxz     :     0.009488
      dyz     :     0.021143
      dx2y2   :     0.017843
      dxy     :     0.011934
      f0      :     0.000719  f :     0.004115
      f+1     :     0.000065
      f-1     :     0.000729
      f+2     :     0.000875
      f-2     :     0.000280
      f+3     :     0.000702
      f-3     :     0.000745
  1 C s       :     3.176773  s :     3.176773
      pz      :     0.935183  p :     2.636020
      px      :     0.710972
      py      :     0.989865
      dz2     :     0.019618  d :     0.140120
      dxz     :     0.031147
      dyz     :     0.030428
      dx2y2   :     0.031114
      dxy     :     0.027813
      f0      :     0.001051  f :     0.010711
      f+1     :     0.002163
      f-1     :     0.000811
      f+2     :     0.002312
      f-2     :     0.001117
      f+3     :     0.001556
      f-3     :     0.001702
  2 O s       :     3.717409  s :     3.717409
      pz      :     1.651356  p :     4.574144
      px      :     1.463526
      py      :     1.459262
      dz2     :     0.004038  d :     0.035456
      dxz     :     0.005045
      dyz     :     0.006191
      dx2y2   :     0.012634
      dxy     :     0.007546
      f0      :     0.000329  f :     0.002189
      f+1     :     0.000215
      f-1     :     0.000231
      f+2     :     0.000416
      f-2     :     0.000269
[...]
 15 C s       :     2.704583  s :     2.704583
      pz      :     0.971470  p :     2.794865
      px      :     0.860353
      py      :     0.963042
      dz2     :     0.109160  d :     0.420443
      dxz     :     0.055496
      dyz     :     0.094444
      dx2y2   :     0.083911
      dxy     :     0.077431
      f0      :     0.006314  f :     0.041801
      f+1     :     0.003681
      f-1     :     0.008903
      f+2     :     0.005830
      f-2     :     0.007371
      f+3     :     0.004966
      f-3     :     0.004735
 16 C s       :     2.709854  s :     2.709854
      pz      :     0.962621  p :     2.866031
      px      :     0.927481
      py      :     0.975928
      dz2     :     0.086886  d :     0.379253
      dxz     :     0.069133
      dyz     :     0.112769
      dx2y2   :     0.063732
      dxy     :     0.046733
      f0      :     0.007432  f :     0.038467
      f+1     :     0.006208
      f-1     :     0.007415
      f+2     :     0.003538
      f-2     :     0.005318
      f+3     :     0.003852
      f-3     :     0.004704
 17 C s       :     2.720961  s :     2.720961
      pz      :     1.008183  p :     2.692366
      px      :     0.825081
      py      :     0.859102
      dz2     :     0.149804  d :     0.667708
      dxz     :     0.108498
      dyz     :     0.162619
      dx2y2   :     0.125038
      dxy     :     0.121748
      f0      :     0.011687  f :     0.089450
      f+1     :     0.008977
      f-1     :     0.019396
      f+2     :     0.011174
      f-2     :     0.013410
      f+3     :     0.011277
      f-3     :     0.013530
 18 O s       :     3.191298  s :     3.191298
      pz      :     1.391772  p :     4.416186
      px      :     1.536395
      py      :     1.488020
      dz2     :     0.016431  d :     0.068179
      dxz     :     0.010657
      dyz     :     0.013987
      dx2y2   :     0.011850
      dxy     :     0.015253
      f0      :     0.000598  f :     0.004212
      f+1     :     0.000502
      f-1     :     0.000850
      f+2     :     0.000476
      f-2     :     0.000470
      f+3     :     0.000715
      f-3     :     0.000601
 19 C s       :     2.700487  s :     2.700487
      pz      :     0.963745  p :     2.851231
      px      :     0.921332
      py      :     0.966154
      dz2     :     0.088873  d :     0.394999
      dxz     :     0.067781
      dyz     :     0.098767
      dx2y2   :     0.072347
      dxy     :     0.067231
      f0      :     0.005278  f :     0.040534
      f+1     :     0.004300
      f-1     :     0.008264
      f+2     :     0.005427
      f-2     :     0.007525
      f+3     :     0.005354
      f-3     :     0.004386
 20 H s       :     0.843969  s :     0.843969
      pz      :     0.068050  p :     0.156827
      px      :     0.041231
      py      :     0.047547
      dz2     :     0.008529  d :     0.028471
      dxz     :     0.008172
      dyz     :     0.007732
      dx2y2   :     0.002403
      dxy     :     0.001634
 21 H s       :     0.846299  s :     0.846299
      pz      :     0.052197  p :     0.154676
      px      :     0.054664
      py      :     0.047816
      dz2     :     0.006240  d :     0.027765
      dxz     :     0.005566
      dyz     :     0.003825
      dx2y2   :     0.006458
      dxy     :     0.005676
 22 H s       :     0.842130  s :     0.842130
      pz      :     0.045733  p :     0.150868
      px      :     0.067990
      py      :     0.037144
      dz2     :     0.004545  d :     0.027122
      dxz     :     0.007936
      dyz     :     0.001314
      dx2y2   :     0.006357
      dxy     :     0.006969
 23 H s       :     0.852205  s :     0.852205
      pz      :     0.070802  p :     0.149234
      px      :     0.025785
      py      :     0.052647
      dz2     :     0.009316  d :     0.027005
      dxz     :     0.005496
      dyz     :     0.008087
      dx2y2   :     0.002789
      dxy     :     0.001317
 24 H s       :     0.851505  s :     0.851505
      pz      :     0.047230  p :     0.148939
      px      :     0.053526
      py      :     0.048183
      dz2     :     0.004946  d :     0.027350
      dxz     :     0.006888
      dyz     :     0.003680
      dx2y2   :     0.005994
      dxy     :     0.005841
 25 H s       :     0.829184  s :     0.829184
      pz      :     0.059619  p :     0.153961
      px      :     0.050969
      py      :     0.043373
      dz2     :     0.006819  d :     0.027890
      dxz     :     0.006627
      dyz     :     0.006278
      dx2y2   :     0.004194
      dxy     :     0.003973
 26 H s       :     0.830226  s :     0.830226
      pz      :     0.042758  p :     0.156337
      px      :     0.059220
      py      :     0.054359
      dz2     :     0.002429  d :     0.028654
      dxz     :     0.006177
      dyz     :     0.003821
      dx2y2   :     0.009250
      dxy     :     0.006977
 27 H s       :     0.828313  s :     0.828313
      pz      :     0.066119  p :     0.151003
      px      :     0.048725
      py      :     0.036160
      dz2     :     0.009096  d :     0.027363
      dxz     :     0.007506
      dyz     :     0.005725
      dx2y2   :     0.002122
      dxy     :     0.002913
 28 H s       :     0.711967  s :     0.711967
      pz      :     0.087328  p :     0.249016
      px      :     0.064090
      py      :     0.097598
      dz2     :     0.009996  d :     0.060506
      dxz     :     0.007116
      dyz     :     0.014689
      dx2y2   :     0.013627
      dxy     :     0.015078
 29 H s       :     0.725829  s :     0.725829
      pz      :     0.082239  p :     0.251291
      px      :     0.072677
      py      :     0.096376
      dz2     :     0.005786  d :     0.060849
      dxz     :     0.008441
      dyz     :     0.014825
      dx2y2   :     0.015877
      dxy     :     0.015921
 30 H s       :     0.820912  s :     0.820912
      pz      :     0.070129  p :     0.150501
      px      :     0.033658
      py      :     0.046715
      dz2     :     0.009895  d :     0.029208
      dxz     :     0.005847
      dyz     :     0.008294
      dx2y2   :     0.002921
      dxy     :     0.002251
 31 H s       :     0.837206  s :     0.837206
      pz      :     0.037118  p :     0.158611
      px      :     0.055421
      py      :     0.066072
      dz2     :     0.003526  d :     0.027839
      dxz     :     0.003068
      dyz     :     0.006329
      dx2y2   :     0.007763
      dxy     :     0.007152
 32 H s       :     0.832259  s :     0.832259
      pz      :     0.076198  p :     0.151625
      px      :     0.041906
      py      :     0.033522
      dz2     :     0.009907  d :     0.026726
      dxz     :     0.007569
      dyz     :     0.007627
      dx2y2   :     0.000737
      dxy     :     0.000885
 33 H s       :     0.840898  s :     0.840898
      pz      :     0.053177  p :     0.157569
      px      :     0.042452
      py      :     0.061940
      dz2     :     0.006215  d :     0.027284
      dxz     :     0.003523
      dyz     :     0.007728
      dx2y2   :     0.004858
      dxy     :     0.004961
 34 H s       :     0.682185  s :     0.682185
      pz      :     0.161821  p :     0.344563
      px      :     0.101508
      py      :     0.081234
      dz2     :     0.033683  d :     0.098688
      dxz     :     0.028093
      dyz     :     0.025867
      dx2y2   :     0.005192
      dxy     :     0.005853
 35 H s       :     0.835292  s :     0.835292
      pz      :     0.076362  p :     0.158090
      px      :     0.046014
      py      :     0.035715
      dz2     :     0.009582  d :     0.028135
      dxz     :     0.008120
      dyz     :     0.007633
      dx2y2   :     0.001390
      dxy     :     0.001410


                      *****************************
                      * MAYER POPULATION ANALYSIS *
                      *****************************

  NA   - Mulliken gross atomic population
  ZA   - Total nuclear charge
  QA   - Mulliken gross atomic charge
  VA   - Mayer's total valence
  BVA  - Mayer's bonded valence
  FA   - Mayer's free valence

  ATOM       NA         ZA         QA         VA         BVA        FA
  0 C      6.3044     6.0000    -0.3044     3.8839     3.8839    -0.0000
  1 C      5.9636     6.0000     0.0364     3.8357     3.8357     0.0000
  2 O      8.3292     8.0000    -0.3292     2.1068     2.1068    -0.0000
  3 C      5.5081     6.0000     0.4919     4.2459     4.2459     0.0000
  4 O      8.5655     8.0000    -0.5655     1.9578     1.9578     0.0000
  5 C      6.1873     6.0000    -0.1873     3.5927     3.5927     0.0000
  6 C      5.8548     6.0000     0.1452     3.8631     3.8631     0.0000
  7 C      6.2694     6.0000    -0.2694     3.8648     3.8648     0.0000
  8 N      7.1230     7.0000    -0.1230     3.4020     3.4020     0.0000
  9 C      5.7185     6.0000     0.2815     4.0864     4.0864     0.0000
 10 S     16.6034    16.0000    -0.6034     1.5774     1.5774    -0.0000
 11 N      7.1991     7.0000    -0.1991     3.2950     3.2950     0.0000
 12 C      5.9815     6.0000     0.0185     3.9104     3.9104     0.0000
 13 C      5.9694     6.0000     0.0306     3.6089     3.6089     0.0000
 14 C      6.2555     6.0000    -0.2555     3.8548     3.8548     0.0000
 15 C      6.1218     6.0000    -0.1218     3.8088     3.8088     0.0000
 16 C      6.2669     6.0000    -0.2669     3.7928     3.7928     0.0000
 17 C      5.7489     6.0000     0.2511     3.8612     3.8612    -0.0000
 18 O      8.4612     8.0000    -0.4612     2.0283     2.0283     0.0000
 19 C      6.2670     6.0000    -0.2670     3.8045     3.8045    -0.0000
 20 H      0.9067     1.0000     0.0933     0.9770     0.9770    -0.0000
 21 H      0.8883     1.0000     0.1117     0.9776     0.9776     0.0000
 22 H      0.8687     1.0000     0.1313     0.9816     0.9816     0.0000
 23 H      0.8868     1.0000     0.1132     0.9797     0.9797    -0.0000
 24 H      0.8935     1.0000     0.1065     0.9811     0.9811     0.0000
 25 H      0.8539     1.0000     0.1461     0.9820     0.9820    -0.0000
 26 H      0.8928     1.0000     0.1072     0.9848     0.9848     0.0000
 27 H      0.8608     1.0000     0.1392     0.9788     0.9788    -0.0000
 28 H      0.7389     1.0000     0.2611     0.9671     0.9671    -0.0000
 29 H      0.7603     1.0000     0.2397     0.9833     0.9833     0.0000
 30 H      0.8215     1.0000     0.1785     0.9886     0.9886     0.0000
 31 H      0.8171     1.0000     0.1829     0.9737     0.9737     0.0000
 32 H      0.8067     1.0000     0.1933     0.9650     0.9650     0.0000
 33 H      0.8167     1.0000     0.1833     0.9791     0.9791    -0.0000
 34 H      0.6753     1.0000     0.3247     0.9446     0.9446    -0.0000
 35 H      0.8135     1.0000     0.1865     0.9781     0.9781    -0.0000

  Mayer bond orders larger than 0.100000
B(  0-C ,  1-C ) :   0.9737 B(  0-C , 20-H ) :   0.9739 B(  0-C , 21-H ) :   0.9741 
B(  0-C , 22-H ) :   0.9741 B(  1-C ,  2-O ) :   0.8805 B(  1-C , 23-H ) :   0.9747 
B(  1-C , 24-H ) :   0.9753 B(  2-O ,  3-C ) :   1.2342 B(  3-C ,  4-O ) :   1.8764 
B(  3-C ,  5-C ) :   1.0841 B(  5-C ,  6-C ) :   1.6047 B(  5-C , 12-C ) :   0.9630 
B(  6-C ,  7-C ) :   0.9473 B(  6-C ,  8-N ) :   1.1881 B(  7-C , 25-H ) :   0.9606 
B(  7-C , 26-H ) :   0.9828 B(  7-C , 27-H ) :   0.9619 B(  8-N ,  9-C ) :   1.2436 
B(  8-N , 28-H ) :   0.9167 B(  9-C , 10-S ) :   1.4326 B(  9-C , 11-N ) :   1.3293 
B( 11-N , 12-C ) :   0.9923 B( 11-N , 29-H ) :   0.9296 B( 12-C , 13-C ) :   0.9004 
B( 12-C , 30-H ) :   1.0054 B( 13-C , 14-C ) :   1.3444 B( 13-C , 19-C ) :   1.3356 
B( 14-C , 15-C ) :   1.4230 B( 14-C , 31-H ) :   0.9628 B( 15-C , 16-C ) :   1.3578 
B( 15-C , 32-H ) :   0.9604 B( 16-C , 17-C ) :   1.3628 B( 16-C , 33-H ) :   0.9573 
B( 17-C , 18-O ) :   1.0712 B( 17-C , 19-C ) :   1.3627 B( 18-O , 34-H ) :   0.9198 
B( 19-C , 35-H ) :   0.9544 

-------
TIMINGS
-------

Total SCF time: 0 days 2 hours 6 min 29 sec 

Total time                  ....    7589.363 sec
Sum of individual times     ....    7585.519 sec  ( 99.9%)

Fock matrix formation       ....    7571.619 sec  ( 99.8%)
Diagonalization             ....       1.789 sec  (  0.0%)
Density matrix formation    ....       0.216 sec  (  0.0%)
Population analysis         ....       0.271 sec  (  0.0%)
Initial guess               ....       6.348 sec  (  0.1%)
Orbital Transformation      ....       0.000 sec  (  0.0%)
Orbital Orthonormalization  ....       0.000 sec  (  0.0%)
DIIS solution               ....       1.946 sec  (  0.0%)
SOSCF solution              ....       1.826 sec  (  0.0%)

Maximum memory used throughout the entire SCF-calculation: 726.1 MB

------------------------------------------------------------------------------
                                ORCA  MP2 
------------------------------------------------------------------------------

Freezing NCore=48 chemical core electrons

-------------
RI-MP2 ENERGY
-------------
Dimension of the basis                    ...  828
Memory devoted to MP2                     ...  256 MB   
Data format for buffers                   ... DOUBLE
Compression type for matrix containers    ... UNCOMPRESSED
Overall scaling of the MP2 energy         ...   1.000e+00
Calculating two index integrals           ... done (    0.047 sec)
Cholesky decomposition of V**-1           ... done (    0.615 sec)

-----------------
RI-TRANSFORMATION (AUX index driven)
-----------------

Dimension of the orbital-basis         ... 828
Dimension of the aux-basis             ... 2141
Transformation of internal/external MOs...   24-  76 to   77- 827
Number Format for Storage              ... Double (8 Byte)
Integral mode                          ... Direct

First Phase: integral generation and transformation of MO indices
  Aux angular momentum 0               ... done (    5.346 sec)
  Aux angular momentum 1               ... done (    8.889 sec)
  Aux angular momentum 2               ... done (   11.318 sec)
  Aux angular momentum 3               ... done (    8.876 sec)
  Aux angular momentum 4               ... done (    3.221 sec)
Closing buffer VIA ( 0.63 GB; CompressionRatio= 1.00)
  Phase 1 completed in    37.841 sec
Second Phase: sorting and transformation of aux index

IA-Transformation
Memory available                       ... 157 MB 
Max. # MO pairs treated in a batch     ... 11    
# of internal orbitals                 ... 53
# batches for internal orbitals        ... 5
Closing buffer IAV ( 0.63 GB; CompressionRatio= 1.00)
(ia|v) transformation done in    18.682 sec

  Phase 2 completed in    18.705 sec
RI-Integral transformation completed in    56.557 sec
Opening buffers                              ... done

Starting loop over batches of integrals:

Operator 0  - window                       ... ( 24- 76)x( 77-827)
Operator 0  - Memory available             ...   256 MB
Operator 0  - Memory needed per MO         ...  12.3 MB
Operator 0  - Number of orbitals per batch ... 13
Operator 0  - Number of batches            ... 5

OPERATOR  0   PASS   0:  MOs    24 ...   36
  Reading integrals       ... ok
  Internal MO  26
  Internal MO  29
  Internal MO  32
  Internal MO  35
OPERATOR  0   PASS   1:  MOs    37 ...   49
  Reading integrals       ... ok
  Internal MO  38
  Internal MO  41
  Internal MO  44
  Internal MO  47
OPERATOR  0   PASS   2:  MOs    50 ...   62
  Reading integrals       ... ok
  Internal MO  50
  Internal MO  53
  Internal MO  56
  Internal MO  59
  Internal MO  62
OPERATOR  0   PASS   3:  MOs    63 ...   75
  Reading integrals       ... ok
  Internal MO  65
  Internal MO  68
  Internal MO  71
  Internal MO  74
OPERATOR  0   PASS   4:  MOs    76 ...   76
  Reading integrals       ... ok
Time spent in pair loops =    96.288 sec
Deleting buffer (Ka|jb)[aa] ...done

-----------------------------------------------
 RI-MP2 CORRELATION ENERGY:     -3.529459949 Eh
-----------------------------------------------


-------
TIMINGS
-------

Total time                :  153.642 sec
Integral trafo            :   56.584 sec ( 36.8%)
I/O of integrals          :    0.907 sec (  0.6%)
K(i,j) Operators          :   67.245 sec ( 43.8%)
T(i,j) pair energies      :   10.278 sec (  6.7%)
V-calculation             :    0.047 sec (  0.0%)
V**(-1/2)                 :    0.615 sec (  0.4%)
Gamma(ia|P)               :    0.000 sec (  0.0%)
Gamma-Trafo               :    0.000 sec (  0.0%)
D(virtual)                :    0.000 sec (  0.0%)
D(internal)               :    0.000 sec (  0.0%)
W(virtual)                :    0.000 sec (  0.0%)
W(internal)               :    0.000 sec (  0.0%)
L(virtual)                :    0.000 sec (  0.0%)
L(internal)               :    0.000 sec (  0.0%)
G(D)                      :    0.000 sec (  0.0%)
G(Z)                      :    0.000 sec (  0.0%)
Z-Vector Solution         :    0.000 sec (  0.0%)
3-Index Derivative        :    0.000 sec (  0.0%)
2-Index Derivative        :    0.000 sec (  0.0%)
Separable Gradient        :    0.000 sec (  0.0%)


---------------------------------------
MP2 TOTAL ENERGY:    -1274.418543645 Eh
---------------------------------------

Maximum memory used throughout the entire MP2-calculation: 303.6 MB

-------------------------   --------------------
FINAL SINGLE POINT ENERGY     -1274.418543644771
-------------------------   --------------------


                            ***************************************
                            *     ORCA property calculations      *
                            ***************************************


  WARNING: The energy has been calculated at the MP2 level but the densities
           used in the property calculations are still SCF densities
           MP2 response densities have not been calculated 
           use %mp2 Density relaxed end
           or  %mp2 Density unrelaxed end

                                    ---------------------
                                    Active property flags
                                    ---------------------
   (+) Dipole Moment


------------------------------------------------------------------------------
                       ORCA ELECTRIC PROPERTIES CALCULATION
------------------------------------------------------------------------------

Dipole Moment Calculation                       ... on
Quadrupole Moment Calculation                   ... off
Polarizability Calculation                      ... off
GBWName                                         ... qm_input.solv.gbw
Electron density file                           ... qm_input.solv.scfp
The origin for moment calculation is the CENTER OF MASS  = (16.648778, -6.252886 -24.242873)

-------------
DIPOLE MOMENT
-------------
                                X             Y             Z
Electronic contribution:    -13.87927       2.43635      -3.07730
Nuclear contribution   :     15.66092      -2.52811       3.86046
                        -----------------------------------------
Total Dipole Moment    :      1.78166      -0.09177       0.78316
                        -----------------------------------------
Magnitude (a.u.)       :      1.94835
Magnitude (Debye)      :      4.95230



--------------------
Rotational spectrum 
--------------------
 
Rotational constants in cm-1:     0.011964     0.008411     0.005700 
Rotational constants in MHz :   358.657468   252.151677   170.889370 

 Dipole components along the rotational axes: 
x,y,z [a.u.] :     1.491399     1.253304     0.031768 
x,y,z [Debye]:     3.790836     3.185646     0.080747 

 

Timings for individual modules:

Sum of individual times         ...     7967.064 sec (= 132.784 min)
GTO integral calculation        ...      223.485 sec (=   3.725 min)   2.8 %
SCF iterations                  ...     7589.513 sec (= 126.492 min)  95.3 %
MP2 module                      ...      154.066 sec (=   2.568 min)   1.9 %
                             ****ORCA TERMINATED NORMALLY****
TOTAL RUN TIME: 0 days 2 hours 12 minutes 48 seconds 70 msec
