
                                        *****************
                                        * O   R   C   A *
                                        *****************

                                            #,                                       
                                            ###                                      
                                            ####                                     
                                            #####                                    
                                            ######                                   
                                           ########,                                 
                                     ,,################,,,,,                         
                               ,,#################################,,                 
                          ,,##########################################,,             
                       ,#########################################, ''#####,          
                    ,#############################################,,   '####,        
                  ,##################################################,,,,####,       
                ,###########''''           ''''###############################       
              ,#####''   ,,,,##########,,,,          '''####'''          '####       
            ,##' ,,,,###########################,,,                        '##       
           ' ,,###''''                  '''############,,,                           
         ,,##''                                '''############,,,,        ,,,,,,###''
      ,#''                                            '''#######################'''  
     '                                                          ''''####''''         
             ,#######,   #######,   ,#######,      ##                                
            ,#'     '#,  ##    ##  ,#'     '#,    #''#        ######   ,####,        
            ##       ##  ##   ,#'  ##            #'  '#       #        #'  '#        
            ##       ##  #######   ##           ,######,      #####,   #    #        
            '#,     ,#'  ##    ##  '#,     ,#' ,#      #,         ##   #,  ,#        
             '#######'   ##     ##  '#######'  #'      '#     #####' # '####'        



                  #######################################################
                  #                        -***-                        #
                  #          Department of theory and spectroscopy      #
                  #    Directorship and core code : Frank Neese         #
                  #        Max Planck Institute fuer Kohlenforschung    #
                  #                Kaiser Wilhelm Platz 1               #
                  #                 D-45470 Muelheim/Ruhr               #
                  #                      Germany                        #
                  #                                                     #
                  #                  All rights reserved                #
                  #                        -***-                        #
                  #######################################################


                         Program Version 5.0.0 -  RELEASE  -
                                (SVN: $Rev: 19529$)
                ($Date: 2021-06-28 11:36:33 +0200 (Mo, 28 Jun 2021) $)


 With contributions from (in alphabetic order):
   Daniel Aravena         : Magnetic Suceptibility
   Michael Atanasov       : Ab Initio Ligand Field Theory (pilot matlab implementation)
   Alexander A. Auer      : GIAO ZORA, VPT2 properties, NMR spectrum
   Ute Becker             : Parallelization
   Giovanni Bistoni       : ED, misc. LED, open-shell LED, HFLD
   Martin Brehm           : Molecular dynamics
   Dmytro Bykov           : SCF Hessian
   Vijay G. Chilkuri      : MRCI spin determinant printing, contributions to CSF-ICE
   Dipayan Datta          : RHF DLPNO-CCSD density
   Achintya Kumar Dutta   : EOM-CC, STEOM-CC
   Dmitry Ganyushin       : Spin-Orbit,Spin-Spin,Magnetic field MRCI
   Miquel Garcia          : C-PCM Hessian, Gaussian charge scheme
   Yang Guo               : DLPNO-NEVPT2, F12-NEVPT2, CIM, IAO-localization
   Andreas Hansen         : Spin unrestricted coupled pair/coupled cluster methods
   Benjamin Helmich-Paris : MC-RPA, TRAH-SCF, COSX integrals
   Lee Huntington         : MR-EOM, pCC
   Robert Izsak           : Overlap fitted RIJCOSX, COSX-SCS-MP3, EOM
   Marcus Kettner         : VPT2
   Christian Kollmar      : KDIIS, OOCD, Brueckner-CCSD(T), CCSD density, CASPT2, CASPT2-K
   Simone Kossmann        : Meta GGA functionals, TD-DFT gradient, OOMP2, MP2 Hessian
   Martin Krupicka        : Initial AUTO-CI
   Lucas Lang             : DCDCAS
   Marvin Lechner         : AUTO-CI (C++ implementation), FIC-MRCC
   Dagmar Lenk            : GEPOL surface, SMD
   Dimitrios Liakos       : Extrapolation schemes; Compound Job, initial MDCI parallelization
   Dimitrios Manganas     : Further ROCIS development; embedding schemes
   Dimitrios Pantazis     : SARC Basis sets
   Anastasios Papadopoulos: AUTO-CI, single reference methods and gradients
   Taras Petrenko         : DFT Hessian,TD-DFT gradient, ASA, ECA, R-Raman, ABS, FL, XAS/XES, NRVS
   Peter Pinski           : DLPNO-MP2, DLPNO-MP2 Gradient
   Christoph Reimann      : Effective Core Potentials
   Marius Retegan         : Local ZFS, SOC
   Christoph Riplinger    : Optimizer, TS searches, QM/MM, DLPNO-CCSD(T), (RO)-DLPNO pert. Triples
   Tobias Risthaus        : Range-separated hybrids, TD-DFT gradient, RPA, STAB
   Michael Roemelt        : Original ROCIS implementation
   Masaaki Saitow         : Open-shell DLPNO-CCSD energy and density
   Barbara Sandhoefer     : DKH picture change effects
   Avijit Sen             : IP-ROCIS
   Kantharuban Sivalingam : CASSCF convergence, NEVPT2, FIC-MRCI
   Bernardo de Souza      : ESD, SOC TD-DFT
   Georgi Stoychev        : AutoAux, RI-MP2 NMR
   Willem Van den Heuvel  : Paramagnetic NMR
   Boris Wezisla          : Elementary symmetry handling
   Frank Wennmohs         : Technical directorship


 We gratefully acknowledge several colleagues who have allowed us to
 interface, adapt or use parts of their codes:
   Stefan Grimme, W. Hujo, H. Kruse, P. Pracht,  : VdW corrections, initial TS optimization,
                  C. Bannwarth, S. Ehlert          DFT functionals, gCP, sTDA/sTD-DF
   Ed Valeev, F. Pavosevic, A. Kumar             : LibInt (2-el integral package), F12 methods
   Garnet Chan, S. Sharma, J. Yang, R. Olivares  : DMRG
   Ulf Ekstrom                                   : XCFun DFT Library
   Mihaly Kallay                                 : mrcc  (arbitrary order and MRCC methods)
   Jiri Pittner, Ondrej Demel                    : Mk-CCSD
   Frank Weinhold                                : gennbo (NPA and NBO analysis)
   Christopher J. Cramer and Donald G. Truhlar   : smd solvation model
   Lars Goerigk                                  : TD-DFT with DH, B97 family of functionals
   V. Asgeirsson, H. Jonsson                     : NEB implementation
   FAccTs GmbH                                   : IRC, NEB, NEB-TS, DLPNO-Multilevel, CI-OPT
                                                   MM, QMMM, 2- and 3-layer-ONIOM, Crystal-QMMM,
                                                   LR-CPCM, SF, NACMEs, symmetry and pop. for TD-DFT,
                                                   nearIR, NL-DFT gradient (VV10), updates on ESD,
                                                   ML-optimized integration grids
   S Lehtola, MJT Oliveira, MAL Marques          : LibXC Library
   Liviu Ungur et al                             : ANISO software


 Your calculation uses the libint2 library for the computation of 2-el integrals
 For citations please refer to: http://libint.valeyev.net

 Your ORCA version has been built with support for libXC version: 5.1.0
 For citations please refer to: https://tddft.org/programs/libxc/

 This ORCA versions uses:
   CBLAS   interface :  Fast vector & matrix operations
   LAPACKE interface :  Fast linear algebra routines
   SCALAPACK package :  Parallel linear algebra routines
   Shared memory     :  Shared parallel matrices
   BLAS/LAPACK       :  OpenBLAS 0.3.15  USE64BITINT DYNAMIC_ARCH NO_AFFINITY SkylakeX SINGLE_THREADED
        Core in use  :  SkylakeX
   Copyright (c) 2011-2014, The OpenBLAS Project


================================================================================

----- Orbital basis set information -----
Your calculation utilizes the basis: cc-pVTZ 
       H, B-Ne : Obtained from the ccRepo (grant-hill.group.shef.ac.uk/ccrepo) Feb. 2017
                 T. H. Dunning, Jr., J. Chem. Phys. 90, 1007 (1989)
            He : Obtained from the ccRepo (grant-hill.group.shef.ac.uk/ccrepo) Feb. 2017
                 D. E. Woon, T. H. Dunning, Jr., J. Chem. Phys. 100, 2975 (1994)
  Li-Be, Na-Mg : Obtained from the ccRepo (grant-hill.group.shef.ac.uk/ccrepo) Feb. 2017
                 B. P. Prascher, D. E. Woon, K. A. Peterson, T. H. Dunning, Jr., A. K. Wilson, Theor. Chem. Acc. 128, 69 (2011)
         Al-Ar : Obtained from the ccRepo (grant-hill.group.shef.ac.uk/ccrepo) Feb. 2017
                 D. E. Woon, T. H. Dunning, Jr., J. Chem. Phys. 98, 1358 (1993)
            Ca : Obtained from the Peterson Research Group Website (tyr0.chem.wsu.edu/~kipeters) Feb. 2017
                 J. Koput, K. A. Peterson, J. Phys. Chem. 106, 9595 (2002)
         Sc-Zn : Obtained from the ccRepo (grant-hill.group.shef.ac.uk/ccrepo) Feb. 2017
                 N. B. Balabanov, K. A. Peterson, J. Chem. Phys. 123, 064107 (2005)
                 N. B. Balabanov, K. A. Peterson, J. Chem. Phys. 125, 074110 (2006)
         Ga-Kr : Obtained from the ccRepo (grant-hill.group.shef.ac.uk/ccrepo) Feb. 2017
                 A. K. Wilson, D. E. Woon, K. A. Peterson, T. H. Dunning, Jr., J. Chem. Phys. 110, 7667 (1999)
             Y : Obtained from the ccRepo (grant-hill.group.shef.ac.uk/ccrepo) Feb. 2017
                 K. A. Peterson, D. Figgen, M. Dolg, H. Stoll, J. Chem. Phys. 126, 124101 (2007)
        Ag, Au : Obtained from the Peterson Research Group Website (tyr0.chem.wsu.edu/~kipeters) Feb. 2017
                 K. A. Peterson, C. Puzzarini, Theor. Chem. Acc. 114, 283 (2005)

----- AuxC basis set information -----
Your calculation utilizes the auxiliary basis: cc-pVTZ/C 
  Obtained from the EMSL Basis Set Exchange (bse.pnl.gov) Feb. 2017
  H-He, B-F, Al-Ar, Ga-Kr : F. Weigend, A. Kohn, C. Hattig, J. Chem. Phys. 116, 3175 (2002)
             Li-Be, Na-Mg : C. Haettig, Phys. Chem. Chem. Phys. 7, 59 (2005)
                       Ne : C. Haettig, Phys. Chem. Chem. Phys. 7, 59 (2005)
                            F. Weigend, A. Kohn, C. Hattig, J. Chem. Phys. 116, 3175 (2002)
                    Sc-Zn : J. G. Hill, J. A. Platts, J. Chem. Phys. 128, 044104 (2008)

================================================================================
                                        WARNINGS
                       Please study these warnings very carefully!
================================================================================


WARNING: No MP2 level density has been requested!
         To caclulate MP2 level properties use
         %mp2 Density relaxed end
         or
         %mp2 Density unrelaxed end

WARNING: Post HF methods need fully converged wavefunctions
  ===> : Setting SCFConvForced true
         You can overwrite this default with %scf ConvForced false 


INFO   : the flag for use of the SHARK integral package has been found!

================================================================================
                                       INPUT FILE
================================================================================
NAME = qm_input.vacu
|  1> ! RI-MP2 cc-pVTZ cc-pVTZ/c TightSCF KeepDens NoKeepInts
|  2> 
|  3> *xyz  0  1
|  4>     C    -4.7093702   13.3756858   -9.0952310
|  5>     C    -6.2006784   13.0452802   -9.1626177
|  6>     O    -6.8714193   13.8710836   -8.2158162
|  7>     C    -7.2040997   15.1242647   -8.5267183
|  8>     O    -7.1738870   15.5305451   -9.6700477
|  9>     C    -7.9169144   15.8405969   -7.4321065
| 10>     C    -8.5722419   17.0643409   -7.6366096
| 11>     C    -8.9241427   17.7458537   -8.9706402
| 12>     N    -9.0007154   17.7253070   -6.5306165
| 13>     C    -8.7761427   17.4254777   -5.2370380
| 14>     S    -9.1356996   18.4717433   -3.9780444
| 15>     N    -8.1765657   16.2215979   -5.0207477
| 16>     C    -7.8770448   15.2183910   -6.0230678
| 17>     C    -8.7993172   13.9391217   -5.8595541
| 18>     C    -8.1934191   12.6444380   -5.9090777
| 19>     C    -9.0579645   11.4910893   -5.7548290
| 20>     C   -10.4394446   11.6238937   -5.6188315
| 21>     C   -11.0202837   12.9435458   -5.5844607
| 22>     O   -12.3723474   13.0916501   -5.4758816
| 23>     C   -10.1740478   14.1111439   -5.7328773
| 24>     H    -4.5494166   14.4382238   -9.3157267
| 25>     H    -4.2065491   12.8749654   -9.9316756
| 26>     H    -4.2149476   13.1625907   -8.1395482
| 27>     H    -6.6375569   13.1247739  -10.1656178
| 28>     H    -6.2463157   12.0082131   -8.8082188
| 29>     H    -9.4117876   17.0683708   -9.6822614
| 30>     H    -8.0393602   18.1699882   -9.4610075
| 31>     H    -9.5373585   18.6421206   -8.8161680
| 32>     H    -9.5570044   18.5461820   -6.7371934
| 33>     H    -8.0771254   15.9321850   -4.0551814
| 34>     H    -6.8098418   15.0142390   -5.8727706
| 35>     H    -7.1252840   12.4606303   -5.9776214
| 36>     H    -8.5645872   10.5278024   -5.6650885
| 37>     H   -11.0240956   10.7497682   -5.3477395
| 38>     H   -12.7838897   12.2100239   -5.4857737
| 39>     H   -10.5924683   15.0997446   -5.8971605
| 40> *
| 41> 
| 42>                          ****END OF INPUT****
================================================================================

                       ****************************
                       * Single Point Calculation *
                       ****************************

---------------------------------
CARTESIAN COORDINATES (ANGSTROEM)
---------------------------------
  C     -4.709370   13.375686   -9.095231
  C     -6.200678   13.045280   -9.162618
  O     -6.871419   13.871084   -8.215816
  C     -7.204100   15.124265   -8.526718
  O     -7.173887   15.530545   -9.670048
  C     -7.916914   15.840597   -7.432106
  C     -8.572242   17.064341   -7.636610
  C     -8.924143   17.745854   -8.970640
  N     -9.000715   17.725307   -6.530616
  C     -8.776143   17.425478   -5.237038
  S     -9.135700   18.471743   -3.978044
  N     -8.176566   16.221598   -5.020748
  C     -7.877045   15.218391   -6.023068
  C     -8.799317   13.939122   -5.859554
  C     -8.193419   12.644438   -5.909078
  C     -9.057965   11.491089   -5.754829
  C    -10.439445   11.623894   -5.618831
  C    -11.020284   12.943546   -5.584461
  O    -12.372347   13.091650   -5.475882
  C    -10.174048   14.111144   -5.732877
  H     -4.549417   14.438224   -9.315727
  H     -4.206549   12.874965   -9.931676
  H     -4.214948   13.162591   -8.139548
  H     -6.637557   13.124774  -10.165618
  H     -6.246316   12.008213   -8.808219
  H     -9.411788   17.068371   -9.682261
  H     -8.039360   18.169988   -9.461007
  H     -9.537358   18.642121   -8.816168
  H     -9.557004   18.546182   -6.737193
  H     -8.077125   15.932185   -4.055181
  H     -6.809842   15.014239   -5.872771
  H     -7.125284   12.460630   -5.977621
  H     -8.564587   10.527802   -5.665088
  H    -11.024096   10.749768   -5.347739
  H    -12.783890   12.210024   -5.485774
  H    -10.592468   15.099745   -5.897161

----------------------------
CARTESIAN COORDINATES (A.U.)
----------------------------
  NO LB      ZA    FRAG     MASS         X           Y           Z
   0 C     6.0000    0    12.011   -8.899420   25.276383  -17.187496
   1 C     6.0000    0    12.011  -11.717584   24.652007  -17.314838
   2 O     8.0000    0    15.999  -12.985101   26.212549  -15.525643
   3 C     6.0000    0    12.011  -13.613775   28.580718  -16.113162
   4 O     8.0000    0    15.999  -13.556682   29.348477  -18.273742
   5 C     6.0000    0    12.011  -14.960800   29.934390  -14.044646
   6 C     6.0000    0    12.011  -16.199190   32.246931  -14.431101
   7 C     6.0000    0    12.011  -16.864186   33.534804  -16.952053
   8 N     7.0000    0    14.007  -17.008887   33.495976  -12.341077
   9 C     6.0000    0    12.011  -16.584506   32.929381   -9.896568
  10 S    16.0000    0    32.060  -17.263970   34.906536   -7.517414
  11 N     7.0000    0    14.007  -15.451470   30.654377   -9.487838
  12 C     6.0000    0    12.011  -14.885457   28.758591  -11.381949
  13 C     6.0000    0    12.011  -16.628300   26.341123  -11.072953
  14 C     6.0000    0    12.011  -15.483318   23.894525  -11.166539
  15 C     6.0000    0    12.011  -17.117072   21.715012  -10.875051
  16 C     6.0000    0    12.011  -19.727691   21.965976  -10.618053
  17 C     6.0000    0    12.011  -20.825318   24.459757  -10.553101
  18 O     8.0000    0    15.999  -23.380348   24.739633  -10.347917
  19 C     6.0000    0    12.011  -19.226164   26.666197  -10.833568
  20 H     1.0000    0     1.008   -8.597151   27.284289  -17.604172
  21 H     1.0000    0     1.008   -7.949226   24.330159  -18.768147
  22 H     1.0000    0     1.008   -7.965097   24.873692  -15.381517
  23 H     1.0000    0     1.008  -12.543165   24.802228  -19.210234
  24 H     1.0000    0     1.008  -11.803826   22.692234  -16.645121
  25 H     1.0000    0     1.008  -17.785701   32.254546  -18.296822
  26 H     1.0000    0     1.008  -15.192189   34.336302  -17.878713
  27 H     1.0000    0     1.008  -18.022996   35.228502  -16.660143
  28 H     1.0000    0     1.008  -18.060121   35.047205  -12.731450
  29 H     1.0000    0     1.008  -15.263555   30.107466   -7.663182
  30 H     1.0000    0     1.008  -12.868736   28.372800  -11.097928
  31 H     1.0000    0     1.008  -13.464835   23.547179  -11.296067
  32 H     1.0000    0     1.008  -16.184724   19.894663  -10.705466
  33 H     1.0000    0     1.008  -20.832522   20.314118  -10.105763
  34 H     1.0000    0     1.008  -24.158050   23.073601  -10.366610
  35 H     1.0000    0     1.008  -20.016864   28.534382  -11.144018

--------------------------------
INTERNAL COORDINATES (ANGSTROEM)
--------------------------------
 C      0   0   0     0.000000000000     0.00000000     0.00000000
 C      1   0   0     1.528956825825     0.00000000     0.00000000
 O      2   1   0     1.424176144579   107.74409678     0.00000000
 C      3   2   1     1.333341379290   120.49614110    82.71058772
 O      4   3   2     1.213745726077   121.87347013    13.39256362
 C      4   3   2     1.489768978732   113.57717442   179.11780501
 C      6   4   3     1.403148255781   122.39377666   192.36789563
 C      7   6   4     1.538808471299   128.27324475    12.79291309
 N      7   6   4     1.357824164905   116.94968964   190.22754973
 C      9   7   6     1.346727827880   128.41781144     6.68739194
 S     10   9   7     1.676012456673   123.14651815   168.87354322
 N     10   9   7     1.362204333296   115.00325772   351.57563206
 C     12  10   9     1.449407615755   126.36014655   354.33572372
 C     13  12  10     1.585513497833   111.52676613   250.02802540
 C     14  13  12     1.430304505197   118.70902124   226.48837232
 C     15  14  13     1.449636034977   117.63582412   179.90225522
 C     16  15  14     1.394496179759   121.69709245     2.65110451
 C     17  16  15     1.442233364271   119.23818013   357.83550167
 O     18  17  16     1.364478124959   120.01888330   178.83256596
 C     14  13  12     1.391230703919   118.97405870    49.31763558
 H      1   2   3     1.096900409935   110.04158163   301.22278751
 H      1   2   3     1.096899971032   108.35234289   189.50422047
 H      1   2   3     1.096901473812   115.85299821    63.14512748
 H      2   1   3     1.096900757909   114.40078820   125.54244285
 H      2   1   3     1.096899955955   103.33549206   245.51298025
 H      8   7   6     1.096898062984   112.98866043    48.55244007
 H      8   7   6     1.096900285033   111.98376965   286.45537556
 H      8   7   6     1.096900010930   111.56982591   173.55455723
 H      9   7   6     1.012900406141   113.68352682   186.56290135
 H     12  10   9     1.012900034380   116.55707230   185.69455259
 H     13  12  10     1.096899963826   103.59883173   127.36970986
 H     15  14  13     1.086000046612   124.89226695     4.82434563
 H     16  15  14     1.086000077904   116.33133879   187.74965921
 H     17  16  15     1.086003247700   118.75178147   189.69896350
 H     19  18  17     0.973000346792   108.66022088   356.77730815
 H     20  14  13     1.086000013197   118.65277510     9.00437222

---------------------------
INTERNAL COORDINATES (A.U.)
---------------------------
 C      0   0   0     0.000000000000     0.00000000     0.00000000
 C      1   0   0     2.889309671398     0.00000000     0.00000000
 O      2   1   0     2.691302879717   107.74409678     0.00000000
 C      3   2   1     2.519650049882   120.49614110    82.71058772
 O      4   3   2     2.293647018503   121.87347013    13.39256362
 C      4   3   2     2.815255372615   113.57717442   179.11780501
 C      6   4   3     2.651565928716   122.39377666   192.36789563
 C      7   6   4     2.907926583313   128.27324475    12.79291309
 N      7   6   4     2.565915809690   116.94968964   190.22754973
 C      9   7   6     2.544946771624   128.41781144     6.68739194
 S     10   9   7     3.167204540152   123.14651815   168.87354322
 N     10   9   7     2.574193128371   115.00325772   351.57563206
 C     12  10   9     2.738983450197   126.36014655   354.33572372
 C     13  12  10     2.996186292541   111.52676613   250.02802540
 C     14  13  12     2.702883802936   118.70902124   226.48837232
 C     15  14  13     2.739415099970   117.63582412   179.90225522
 C     16  15  14     2.635215874543   121.69709245     2.65110451
 C     17  16  15     2.725426079676   119.23818013   357.83550167
 O     18  17  16     2.578489971900   120.01888330   178.83256596
 C     14  13  12     2.629045019510   118.97405870    49.31763558
 H      1   2   3     2.072841370963   110.04158163   301.22278751
 H      1   2   3     2.072840541557   108.35234289   189.50422047
 H      1   2   3     2.072843381399   115.85299821    63.14512748
 H      2   1   3     2.072842028539   114.40078820   125.54244285
 H      2   1   3     2.072840513066   103.33549206   245.51298025
 H      8   7   6     2.072836935868   112.98866043    48.55244007
 H      8   7   6     2.072841134933   111.98376965   286.45537556
 H      8   7   6     2.072840616953   111.56982591   173.55455723
 H      9   7   6     1.914104368543   113.68352682   186.56290135
 H     12  10   9     1.914103666017   116.55707230   185.69455259
 H     13  12  10     2.072840527939   103.59883173   127.36970986
 H     15  14  13     2.052242669522   124.89226695     4.82434563
 H     16  15  14     2.052242728655   116.33133879   187.74965921
 H     17  16  15     2.052248718702   118.75178147   189.69896350
 H     19  18  17     1.838704183648   108.66022088   356.77730815
 H     20  14  13     2.052242606376   118.65277510     9.00437222

---------------------
BASIS SET INFORMATION
---------------------
There are 5 groups of distinct atoms

 Group   1 Type C   : 18s5p2d1f contracted to 4s3p2d1f pattern {8811/311/11/1}
 Group   2 Type O   : 18s5p2d1f contracted to 4s3p2d1f pattern {8811/311/11/1}
 Group   3 Type N   : 18s5p2d1f contracted to 4s3p2d1f pattern {8811/311/11/1}
 Group   4 Type S   : 41s16p2d1f contracted to 5s4p2d1f pattern {13131311/7711/11/1}
 Group   5 Type H   : 5s2p1d contracted to 3s2p1d pattern {311/11/1}

Atom   0C    basis set group =>   1
Atom   1C    basis set group =>   1
Atom   2O    basis set group =>   2
Atom   3C    basis set group =>   1
Atom   4O    basis set group =>   2
Atom   5C    basis set group =>   1
Atom   6C    basis set group =>   1
Atom   7C    basis set group =>   1
Atom   8N    basis set group =>   3
Atom   9C    basis set group =>   1
Atom  10S    basis set group =>   4
Atom  11N    basis set group =>   3
Atom  12C    basis set group =>   1
Atom  13C    basis set group =>   1
Atom  14C    basis set group =>   1
Atom  15C    basis set group =>   1
Atom  16C    basis set group =>   1
Atom  17C    basis set group =>   1
Atom  18O    basis set group =>   2
Atom  19C    basis set group =>   1
Atom  20H    basis set group =>   5
Atom  21H    basis set group =>   5
Atom  22H    basis set group =>   5
Atom  23H    basis set group =>   5
Atom  24H    basis set group =>   5
Atom  25H    basis set group =>   5
Atom  26H    basis set group =>   5
Atom  27H    basis set group =>   5
Atom  28H    basis set group =>   5
Atom  29H    basis set group =>   5
Atom  30H    basis set group =>   5
Atom  31H    basis set group =>   5
Atom  32H    basis set group =>   5
Atom  33H    basis set group =>   5
Atom  34H    basis set group =>   5
Atom  35H    basis set group =>   5
---------------------------------
AUXILIARY/C BASIS SET INFORMATION
---------------------------------
There are 5 groups of distinct atoms

 Group   1 Type C   : 8s6p5d3f1g contracted to 8s6p5d3f1g pattern {11111111/111111/11111/111/1}
 Group   2 Type O   : 8s6p5d3f1g contracted to 8s6p5d3f1g pattern {11111111/111111/11111/111/1}
 Group   3 Type N   : 8s6p5d3f1g contracted to 8s6p5d3f1g pattern {11111111/111111/11111/111/1}
 Group   4 Type S   : 10s8p7d5f2g contracted to 10s8p7d5f2g pattern {1111111111/11111111/1111111/11111/11}
 Group   5 Type H   : 4s3p2d1f contracted to 4s3p2d1f pattern {1111/111/11/1}

Atom   0C    basis set group =>   1
Atom   1C    basis set group =>   1
Atom   2O    basis set group =>   2
Atom   3C    basis set group =>   1
Atom   4O    basis set group =>   2
Atom   5C    basis set group =>   1
Atom   6C    basis set group =>   1
Atom   7C    basis set group =>   1
Atom   8N    basis set group =>   3
Atom   9C    basis set group =>   1
Atom  10S    basis set group =>   4
Atom  11N    basis set group =>   3
Atom  12C    basis set group =>   1
Atom  13C    basis set group =>   1
Atom  14C    basis set group =>   1
Atom  15C    basis set group =>   1
Atom  16C    basis set group =>   1
Atom  17C    basis set group =>   1
Atom  18O    basis set group =>   2
Atom  19C    basis set group =>   1
Atom  20H    basis set group =>   5
Atom  21H    basis set group =>   5
Atom  22H    basis set group =>   5
Atom  23H    basis set group =>   5
Atom  24H    basis set group =>   5
Atom  25H    basis set group =>   5
Atom  26H    basis set group =>   5
Atom  27H    basis set group =>   5
Atom  28H    basis set group =>   5
Atom  29H    basis set group =>   5
Atom  30H    basis set group =>   5
Atom  31H    basis set group =>   5
Atom  32H    basis set group =>   5
Atom  33H    basis set group =>   5
Atom  34H    basis set group =>   5
Atom  35H    basis set group =>   5
------------------------------------------------------------------------------
                           ORCA GTO INTEGRAL CALCULATION
------------------------------------------------------------------------------
------------------------------------------------------------------------------
                   ___                                                        
                  /   \      - P O W E R E D   B Y -                         
                 /     \                                                     
                 |  |  |   _    _      __       _____    __    __             
                 |  |  |  | |  | |    /  \     |  _  \  |  |  /  |          
                  \  \/   | |  | |   /    \    | | | |  |  | /  /          
                 / \  \   | |__| |  /  /\  \   | |_| |  |  |/  /          
                |  |  |   |  __  | /  /__\  \  |    /   |      \           
                |  |  |   | |  | | |   __   |  |    \   |  |\   \          
                \     /   | |  | | |  |  |  |  | |\  \  |  | \   \       
                 \___/    |_|  |_| |__|  |__|  |_| \__\ |__|  \__/        
                                                                              
                      - O R C A' S   B I G   F R I E N D -                    
                                      &                                       
                       - I N T E G R A L  F E E D E R -                       
                                                                              
 v1 FN, 2020, v2 2021                                                         
------------------------------------------------------------------------------


Reading SHARK input file qm_input.vacu.SHARKINP.tmp ... ok
----------------------
SHARK INTEGRAL PACKAGE
----------------------

Number of atoms                             ...     36
Number of basis functions                   ...    828
Number of shells                            ...    298
Maximum angular momentum                    ...      3
Integral batch strategy                     ... SHARK/LIBINT Hybrid
RI-J (if used) integral strategy            ... SPLIT-RIJ (Revised 2003 algorithm where possible)
Printlevel                                  ...      1
Contraction scheme used                     ... SEGMENTED contraction
Coulomb Range Separation                    ... NOT USED
Exchange Range Separation                   ... NOT USED
Finite Nucleus Model                        ... NOT USED
Auxiliary Coulomb fitting basis             ... NOT available
Auxiliary J/K fitting basis                 ... NOT available
Auxiliary Correlation fitting basis         ... AVAILABLE
   # of basis functions in Aux-C            ...   2141
   # of shells in Aux-C                     ...    629
   Maximum angular momentum in Aux-C        ...      4
Auxiliary 'external' fitting basis          ... NOT available
Integral threshold                          ...     2.500000e-11
Primitive cut-off                           ...     2.500000e-12
Primitive pair pre-selection threshold      ...     2.500000e-12

Calculating pre-screening integrals         ... done (  0.6 sec) Dimension = 298
Organizing shell pair data                  ... done (  0.4 sec)
Shell pair information
Total number of shell pairs                 ...     44551
Shell pairs after pre-screening             ...     32368
Total number of primitive shell pairs       ...    234348
Primitive shell pairs kept                  ...     93209
          la=0 lb=0:   6489 shell pairs
          la=1 lb=0:   9016 shell pairs
          la=1 lb=1:   3173 shell pairs
          la=2 lb=0:   5153 shell pairs
          la=2 lb=1:   3534 shell pairs
          la=2 lb=2:   1006 shell pairs
          la=3 lb=0:   1865 shell pairs
          la=3 lb=1:   1277 shell pairs
          la=3 lb=2:    715 shell pairs
          la=3 lb=3:    140 shell pairs

Calculating one electron integrals          ... done (  0.4 sec)
Calculating RI/C V-Matrix + Cholesky decomp.... done (  0.4 sec)
Calculating Nuclear repulsion               ... done (  0.0 sec) ENN=   1684.815832926272 Eh

SHARK setup successfully completed in   1.9 seconds

Maximum memory used throughout the entire GTOINT-calculation: 479.3 MB
-------------------------------------------------------------------------------
                                 ORCA SCF
-------------------------------------------------------------------------------

------------
SCF SETTINGS
------------
Hamiltonian:
 Ab initio Hamiltonian  Method          .... Hartree-Fock(GTOs)


General Settings:
 Integral files         IntName         .... qm_input.vacu
 Hartree-Fock type      HFTyp           .... RHF
 Total Charge           Charge          ....    0
 Multiplicity           Mult            ....    1
 Number of Electrons    NEL             ....  154
 Basis Dimension        Dim             ....  828
 Nuclear Repulsion      ENuc            ....   1684.8158329263 Eh

Convergence Acceleration:
 DIIS                   CNVDIIS         .... on
   Start iteration      DIISMaxIt       ....    12
   Startup error        DIISStart       ....  0.200000
   # of expansion vecs  DIISMaxEq       ....     5
   Bias factor          DIISBfac        ....   1.050
   Max. coefficient     DIISMaxC        ....  10.000
 Trust-Rad. Augm. Hess. CNVTRAH         .... auto
   Auto Start mean grad. ratio tolernc. ....  1.125000
   Auto Start start iteration           ....    20
   Auto Start num. interpolation iter.  ....    10
   Max. Number of Micro iterations      ....    16
   Max. Number of Macro iterations      .... Maxiter - #DIIS iter
   Number of Davidson start vectors     ....     2
   Converg. threshold I  (grad. norm)   ....   1.000e-05
   Converg. threshold II (energy diff.) ....   1.000e-08
   Grad. Scal. Fac. for Micro threshold ....   0.100
   Minimum threshold for Micro iter.    ....   0.010
   NR start threshold (gradient norm)   ....   0.001
   Initial trust radius                 ....   0.400
   Minimum AH scaling param. (alpha)    ....   1.000
   Maximum AH scaling param. (alpha)    .... 1000.000
   Orbital update algorithm             .... Taylor
   White noise on init. David. guess    .... on
   Maximum white noise                  ....   0.010
   Quad. conv. algorithm                .... NR
 SOSCF                  CNVSOSCF        .... on
   Start iteration      SOSCFMaxIt      ....   150
   Startup grad/error   SOSCFStart      ....  0.003300
 Level Shifting         CNVShift        .... on
   Level shift para.    LevelShift      ....    0.2500
   Turn off err/grad.   ShiftErr        ....    0.0010
 Zerner damping         CNVZerner       .... off
 Static damping         CNVDamp         .... on
   Fraction old density DampFac         ....    0.7000
   Max. Damping (<1)    DampMax         ....    0.9800
   Min. Damping (>=0)   DampMin         ....    0.0000
   Turn off err/grad.   DampErr         ....    0.1000
 Fernandez-Rico         CNVRico         .... off

SCF Procedure:
 Maximum # iterations   MaxIter         ....   125
 SCF integral mode      SCFMode         .... Direct
   Integral package                     .... SHARK and LIBINT hybrid scheme
 Reset frequency        DirectResetFreq ....    20
 Integral Threshold     Thresh          ....  2.500e-11 Eh
 Primitive CutOff       TCut            ....  2.500e-12 Eh

Convergence Tolerance:
 Convergence Check Mode ConvCheckMode   .... Total+1el-Energy
 Convergence forced     ConvForced      .... 1
 Energy Change          TolE            ....  1.000e-08 Eh
 1-El. energy change                    ....  1.000e-05 Eh
 Orbital Gradient       TolG            ....  1.000e-05
 Orbital Rotation angle TolX            ....  1.000e-05
 DIIS Error             TolErr          ....  5.000e-07


Diagonalization of the overlap matrix:
Smallest eigenvalue                        ... 4.819e-05
Time for diagonalization                   ...    0.158 sec
Threshold for overlap eigenvalues          ... 1.000e-08
Number of eigenvalues below threshold      ... 0
Time for construction of square roots      ...    0.065 sec
Total time needed                          ...    0.225 sec

Time for model grid setup =    1.666 sec

------------------------------
INITIAL GUESS: MODEL POTENTIAL
------------------------------
Loading Hartree-Fock densities                     ... done
Calculating cut-offs                               ... done
Initializing the effective Hamiltonian             ... done
Setting up the integral package (SHARK)            ... done
Starting the Coulomb interaction                   ... done (   4.6 sec)
Reading the grid                                   ... done
Mapping shells                                     ... done
Starting the XC term evaluation                    ... done (   1.8 sec)
Transforming the Hamiltonian                       ... done (   0.1 sec)
Diagonalizing the Hamiltonian                      ... done (   0.2 sec)
Back transforming the eigenvectors                 ... done (   0.0 sec)
Now organizing SCF variables                       ... done
                      ------------------
                      INITIAL GUESS DONE (   8.4 sec)
                      ------------------
--------------
SCF ITERATIONS
--------------
ITER       Energy         Delta-E        Max-DP      RMS-DP      [F,P]     Damp
               ***  Starting incremental Fock matrix formation  ***
  0  -1269.9882363815   0.000000000000 0.04921507  0.00043174  0.3306150 0.7000
  1  -1270.2550661877  -0.266829806241 0.03601671  0.00035050  0.1962889 0.7000
                               ***Turning on DIIS***
  2  -1270.4215390667  -0.166472879002 0.02579571  0.00023498  0.1096183 0.7000
  3  -1272.5446279087  -2.123088842010 0.06304695  0.00050135  0.0830010 0.0000
  4  -1270.7309423951   1.813685513616 0.00602791  0.00009980  0.0077990 0.0000
  5  -1270.7893300020  -0.058387606899 0.00336253  0.00005156  0.0045643 0.0000
                      *** Initiating the SOSCF procedure ***
                           *** Shutting down DIIS ***
                      *** Re-Reading the Fockian *** 
                      *** Removing any level shift *** 
ITER      Energy       Delta-E        Grad      Rot      Max-DP    RMS-DP
  6  -1270.76933680   0.0199931979  0.001848  0.001848  0.001744  0.000026
               *** Restarting incremental Fock matrix formation ***
  7  -1270.78335297  -0.0140161642  0.001095  0.002875  0.001307  0.000015
  8  -1270.78340365  -0.0000506848  0.000476  0.003308  0.001509  0.000017
  9  -1270.78342332  -0.0000196655  0.000193  0.000380  0.000358  0.000004
 10  -1270.78342581  -0.0000024900  0.000057  0.000152  0.000131  0.000002
 11  -1270.78342608  -0.0000002730  0.000038  0.000203  0.000085  0.000001
 12  -1270.78342617  -0.0000000884  0.000013  0.000062  0.000040  0.000000
 13  -1270.78342618  -0.0000000056  0.000004  0.000019  0.000007  0.000000
                  ***Gradient check signals convergence***
              ***Rediagonalizing the Fockian in SOSCF/NRSCF***

               *****************************************************
               *                     SUCCESS                       *
               *           SCF CONVERGED AFTER  14 CYCLES          *
               *****************************************************


----------------
TOTAL SCF ENERGY
----------------

Total Energy       :        -1270.78342617 Eh          -34579.77503 eV

Components:
Nuclear Repulsion  :         1684.81583293 Eh           45846.16959 eV
Electronic Energy  :        -2955.59925910 Eh          -80425.94462 eV
One Electron Energy:        -5090.87040346 Eh         -138529.62639 eV
Two Electron Energy:         2135.27114436 Eh           58103.68177 eV

Virial components:
Potential Energy   :        -2539.45671983 Eh          -69102.13043 eV
Kinetic Energy     :         1268.67329366 Eh           34522.35540 eV
Virial Ratio       :            2.00166326


---------------
SCF CONVERGENCE
---------------

  Last Energy change         ...    5.2496e-09  Tolerance :   1.0000e-08
  Last MAX-Density change    ...    3.1074e-06  Tolerance :   1.0000e-07
  Last RMS-Density change    ...    3.2993e-08  Tolerance :   5.0000e-09
  Last Orbital Gradient      ...    1.6820e-06  Tolerance :   1.0000e-05
  Last Orbital Rotation      ...    4.3134e-06  Tolerance :   1.0000e-05

             **** THE GBW FILE WAS UPDATED (qm_input.vacu.gbw) ****
             **** DENSITY qm_input.vacu.scfp WAS UPDATED ****
             **** ENERGY FILE WAS UPDATED (qm_input.vacu.en.tmp) ****
             **** THE GBW FILE WAS UPDATED (qm_input.vacu.gbw) ****
             **** DENSITY qm_input.vacu.scfp WAS UPDATED ****
----------------
ORBITAL ENERGIES
----------------

  NO   OCC          E(Eh)            E(eV) 
   0   2.0000     -91.890260     -2500.4611 
   1   2.0000     -20.600982      -560.5812 
   2   2.0000     -20.599584      -560.5432 
   3   2.0000     -20.530466      -558.6624 
   4   2.0000     -15.632994      -425.3954 
   5   2.0000     -15.608242      -424.7219 
   6   2.0000     -11.386401      -309.8397 
   7   2.0000     -11.383568      -309.7626 
   8   2.0000     -11.342362      -308.6413 
   9   2.0000     -11.328825      -308.2730 
  10   2.0000     -11.307808      -307.7011 
  11   2.0000     -11.297143      -307.4109 
  12   2.0000     -11.266035      -306.5644 
  13   2.0000     -11.259089      -306.3754 
  14   2.0000     -11.256407      -306.3024 
  15   2.0000     -11.254733      -306.2569 
  16   2.0000     -11.245764      -306.0128 
  17   2.0000     -11.244644      -305.9823 
  18   2.0000     -11.242570      -305.9259 
  19   2.0000     -11.226980      -305.5016 
  20   2.0000      -8.894411      -242.0292 
  21   2.0000      -6.575905      -178.9395 
  22   2.0000      -6.573952      -178.8863 
  23   2.0000      -6.573373      -178.8706 
  24   2.0000      -1.465396       -39.8754 
  25   2.0000      -1.411998       -38.4224 
  26   2.0000      -1.358166       -36.9576 
  27   2.0000      -1.353422       -36.8285 
  28   2.0000      -1.249058       -33.9886 
  29   2.0000      -1.143361       -31.1124 
  30   2.0000      -1.110956       -30.2307 
  31   2.0000      -1.046127       -28.4666 
  32   2.0000      -1.034329       -28.1455 
  33   2.0000      -1.004068       -27.3221 
  34   2.0000      -0.991832       -26.9891 
  35   2.0000      -0.980786       -26.6885 
  36   2.0000      -0.917690       -24.9716 
  37   2.0000      -0.898379       -24.4461 
  38   2.0000      -0.863132       -23.4870 
  39   2.0000      -0.837960       -22.8020 
  40   2.0000      -0.827253       -22.5107 
  41   2.0000      -0.814031       -22.1509 
  42   2.0000      -0.759803       -20.6753 
  43   2.0000      -0.730970       -19.8907 
  44   2.0000      -0.725166       -19.7328 
  45   2.0000      -0.694566       -18.9001 
  46   2.0000      -0.689015       -18.7490 
  47   2.0000      -0.680672       -18.5220 
  48   2.0000      -0.668768       -18.1981 
  49   2.0000      -0.658706       -17.9243 
  50   2.0000      -0.645717       -17.5709 
  51   2.0000      -0.644151       -17.5282 
  52   2.0000      -0.636083       -17.3087 
  53   2.0000      -0.611146       -16.6301 
  54   2.0000      -0.602586       -16.3972 
  55   2.0000      -0.598800       -16.2942 
  56   2.0000      -0.593641       -16.1538 
  57   2.0000      -0.575845       -15.6695 
  58   2.0000      -0.574602       -15.6357 
  59   2.0000      -0.571318       -15.5463 
  60   2.0000      -0.562082       -15.2950 
  61   2.0000      -0.541476       -14.7343 
  62   2.0000      -0.536166       -14.5898 
  63   2.0000      -0.529228       -14.4010 
  64   2.0000      -0.523471       -14.2444 
  65   2.0000      -0.514737       -14.0067 
  66   2.0000      -0.498110       -13.5543 
  67   2.0000      -0.493880       -13.4392 
  68   2.0000      -0.474407       -12.9093 
  69   2.0000      -0.462018       -12.5721 
  70   2.0000      -0.452658       -12.3174 
  71   2.0000      -0.442043       -12.0286 
  72   2.0000      -0.350984        -9.5508 
  73   2.0000      -0.343529        -9.3479 
  74   2.0000      -0.327320        -8.9068 
  75   2.0000      -0.312279        -8.4975 
  76   2.0000      -0.307684        -8.3725 
  77   0.0000       0.069532         1.8921 
  78   0.0000       0.110393         3.0040 
  79   0.0000       0.121531         3.3070 
  80   0.0000       0.126455         3.4410 
  81   0.0000       0.130877         3.5613 
  82   0.0000       0.135433         3.6853 
  83   0.0000       0.151759         4.1296 
  84   0.0000       0.157417         4.2835 
  85   0.0000       0.163035         4.4364 
  86   0.0000       0.176902         4.8138 
  87   0.0000       0.179047         4.8721 
  88   0.0000       0.181545         4.9401 
  89   0.0000       0.191059         5.1990 
  90   0.0000       0.199065         5.4168 
  91   0.0000       0.213599         5.8123 
  92   0.0000       0.215504         5.8642 
  93   0.0000       0.224272         6.1028 
  94   0.0000       0.226921         6.1748 
  95   0.0000       0.231921         6.3109 
  96   0.0000       0.243494         6.6258 
  97   0.0000       0.246779         6.7152 
  98   0.0000       0.265670         7.2293 
  99   0.0000       0.281289         7.6543 
 100   0.0000       0.295802         8.0492 
 101   0.0000       0.302853         8.2411 
 102   0.0000       0.304866         8.2958 
 103   0.0000       0.316087         8.6012 
 104   0.0000       0.328912         8.9502 
 105   0.0000       0.332945         9.0599 
 106   0.0000       0.340455         9.2643 
 107   0.0000       0.344302         9.3689 
 108   0.0000       0.359830         9.7915 
 109   0.0000       0.369931        10.0663 
 110   0.0000       0.374741        10.1972 
 111   0.0000       0.380933        10.3657 
 112   0.0000       0.382372        10.4049 
 113   0.0000       0.387717        10.5503 
 114   0.0000       0.397671        10.8212 
 115   0.0000       0.405810        11.0426 
 116   0.0000       0.412871        11.2348 
 117   0.0000       0.420727        11.4486 
 118   0.0000       0.428269        11.6538 
 119   0.0000       0.439978        11.9724 
 120   0.0000       0.444749        12.1022 
 121   0.0000       0.449037        12.2189 
 122   0.0000       0.458177        12.4676 
 123   0.0000       0.458922        12.4879 
 124   0.0000       0.462687        12.5903 
 125   0.0000       0.467581        12.7235 
 126   0.0000       0.475947        12.9512 
 127   0.0000       0.483267        13.1504 
 128   0.0000       0.486974        13.2512 
 129   0.0000       0.490763        13.3543 
 130   0.0000       0.503780        13.7086 
 131   0.0000       0.508496        13.8369 
 132   0.0000       0.512308        13.9406 
 133   0.0000       0.513956        13.9855 
 134   0.0000       0.520706        14.1691 
 135   0.0000       0.525002        14.2860 
 136   0.0000       0.529748        14.4152 
 137   0.0000       0.535863        14.5816 
 138   0.0000       0.538390        14.6503 
 139   0.0000       0.542902        14.7731 
 140   0.0000       0.544740        14.8231 
 141   0.0000       0.555839        15.1251 
 142   0.0000       0.564669        15.3654 
 143   0.0000       0.569210        15.4890 
 144   0.0000       0.574697        15.6383 
 145   0.0000       0.578328        15.7371 
 146   0.0000       0.580704        15.8018 
 147   0.0000       0.586438        15.9578 
 148   0.0000       0.588870        16.0240 
 149   0.0000       0.596906        16.2426 
 150   0.0000       0.598800        16.2942 
 151   0.0000       0.605748        16.4832 
 152   0.0000       0.611000        16.6262 
 153   0.0000       0.618968        16.8430 
 154   0.0000       0.621223        16.9043 
 155   0.0000       0.625630        17.0243 
 156   0.0000       0.630456        17.1556 
 157   0.0000       0.631353        17.1800 
 158   0.0000       0.633570        17.2403 
 159   0.0000       0.636850        17.3296 
 160   0.0000       0.641914        17.4674 
 161   0.0000       0.648504        17.6467 
 162   0.0000       0.653715        17.7885 
 163   0.0000       0.656038        17.8517 
 164   0.0000       0.664107        18.0713 
 165   0.0000       0.666335        18.1319 
 166   0.0000       0.672506        18.2998 
 167   0.0000       0.673099        18.3160 
 168   0.0000       0.686913        18.6918 
 169   0.0000       0.688966        18.7477 
 170   0.0000       0.695090        18.9144 
 171   0.0000       0.702209        19.1081 
 172   0.0000       0.708180        19.2705 
 173   0.0000       0.711050        19.3487 
 174   0.0000       0.722612        19.6633 
 175   0.0000       0.733219        19.9519 
 176   0.0000       0.743079        20.2202 
 177   0.0000       0.746541        20.3144 
 178   0.0000       0.751976        20.4623 
 179   0.0000       0.763750        20.7827 
 180   0.0000       0.765232        20.8230 
 181   0.0000       0.770565        20.9681 
 182   0.0000       0.775030        21.0896 
 183   0.0000       0.788298        21.4507 
 184   0.0000       0.789606        21.4863 
 185   0.0000       0.803312        21.8592 
 186   0.0000       0.809606        22.0305 
 187   0.0000       0.818381        22.2693 
 188   0.0000       0.822786        22.3892 
 189   0.0000       0.830542        22.6002 
 190   0.0000       0.838873        22.8269 
 191   0.0000       0.842018        22.9125 
 192   0.0000       0.846031        23.0217 
 193   0.0000       0.852225        23.1902 
 194   0.0000       0.862134        23.4598 
 195   0.0000       0.868850        23.6426 
 196   0.0000       0.879038        23.9198 
 197   0.0000       0.894409        24.3381 
 198   0.0000       0.900331        24.4993 
 199   0.0000       0.903388        24.5824 
 200   0.0000       0.910475        24.7753 
 201   0.0000       0.914615        24.8879 
 202   0.0000       0.920133        25.0381 
 203   0.0000       0.924319        25.1520 
 204   0.0000       0.932547        25.3759 
 205   0.0000       0.942388        25.6437 
 206   0.0000       0.948640        25.8138 
 207   0.0000       0.955949        26.0127 
 208   0.0000       0.957813        26.0634 
 209   0.0000       0.966214        26.2920 
 210   0.0000       0.968944        26.3663 
 211   0.0000       0.980750        26.6876 
 212   0.0000       0.988148        26.8889 
 213   0.0000       0.996902        27.1271 
 214   0.0000       0.998040        27.1580 
 215   0.0000       1.008422        27.4406 
 216   0.0000       1.018207        27.7068 
 217   0.0000       1.020908        27.7803 
 218   0.0000       1.037024        28.2189 
 219   0.0000       1.046474        28.4760 
 220   0.0000       1.052306        28.6347 
 221   0.0000       1.059946        28.8426 
 222   0.0000       1.066227        29.0135 
 223   0.0000       1.079046        29.3623 
 224   0.0000       1.087321        29.5875 
 225   0.0000       1.092105        29.7177 
 226   0.0000       1.101242        29.9663 
 227   0.0000       1.109825        30.1999 
 228   0.0000       1.118347        30.4318 
 229   0.0000       1.122865        30.5547 
 230   0.0000       1.131362        30.7859 
 231   0.0000       1.139282        31.0014 
 232   0.0000       1.145791        31.1785 
 233   0.0000       1.150099        31.2958 
 234   0.0000       1.153575        31.3904 
 235   0.0000       1.160884        31.5893 
 236   0.0000       1.161743        31.6126 
 237   0.0000       1.175658        31.9913 
 238   0.0000       1.180032        32.1103 
 239   0.0000       1.184876        32.2421 
 240   0.0000       1.194403        32.5014 
 241   0.0000       1.201681        32.6994 
 242   0.0000       1.207258        32.8512 
 243   0.0000       1.211574        32.9686 
 244   0.0000       1.216576        33.1047 
 245   0.0000       1.222151        33.2564 
 246   0.0000       1.232712        33.5438 
 247   0.0000       1.239968        33.7412 
 248   0.0000       1.246007        33.9056 
 249   0.0000       1.252487        34.0819 
 250   0.0000       1.254565        34.1385 
 251   0.0000       1.263593        34.3841 
 252   0.0000       1.272792        34.6344 
 253   0.0000       1.283553        34.9273 
 254   0.0000       1.286981        35.0205 
 255   0.0000       1.291787        35.1513 
 256   0.0000       1.305866        35.5344 
 257   0.0000       1.309667        35.6379 
 258   0.0000       1.316994        35.8372 
 259   0.0000       1.328081        36.1389 
 260   0.0000       1.337734        36.4016 
 261   0.0000       1.346694        36.6454 
 262   0.0000       1.348812        36.7031 
 263   0.0000       1.354149        36.8483 
 264   0.0000       1.357934        36.9513 
 265   0.0000       1.377942        37.4957 
 266   0.0000       1.387514        37.7562 
 267   0.0000       1.394776        37.9538 
 268   0.0000       1.398568        38.0570 
 269   0.0000       1.403454        38.1899 
 270   0.0000       1.412854        38.4457 
 271   0.0000       1.422262        38.7017 
 272   0.0000       1.431730        38.9594 
 273   0.0000       1.442165        39.2433 
 274   0.0000       1.445997        39.3476 
 275   0.0000       1.456053        39.6212 
 276   0.0000       1.461571        39.7714 
 277   0.0000       1.466362        39.9017 
 278   0.0000       1.471891        40.0522 
 279   0.0000       1.483959        40.3806 
 280   0.0000       1.487145        40.4673 
 281   0.0000       1.498504        40.7764 
 282   0.0000       1.501891        40.8685 
 283   0.0000       1.512804        41.1655 
 284   0.0000       1.517180        41.2846 
 285   0.0000       1.517541        41.2944 
 286   0.0000       1.530111        41.6364 
 287   0.0000       1.534256        41.7492 
 288   0.0000       1.538598        41.8674 
 289   0.0000       1.547410        42.1072 
 290   0.0000       1.553465        42.2719 
 291   0.0000       1.565055        42.5873 
 292   0.0000       1.566518        42.6271 
 293   0.0000       1.573178        42.8083 
 294   0.0000       1.580639        43.0114 
 295   0.0000       1.587352        43.1940 
 296   0.0000       1.593017        43.3482 
 297   0.0000       1.600337        43.5474 
 298   0.0000       1.620740        44.1026 
 299   0.0000       1.623171        44.1687 
 300   0.0000       1.626288        44.2535 
 301   0.0000       1.635996        44.5177 
 302   0.0000       1.645554        44.7778 
 303   0.0000       1.648250        44.8512 
 304   0.0000       1.656815        45.0842 
 305   0.0000       1.674043        45.5530 
 306   0.0000       1.680914        45.7400 
 307   0.0000       1.689960        45.9862 
 308   0.0000       1.702736        46.3338 
 309   0.0000       1.709252        46.5111 
 310   0.0000       1.712877        46.6098 
 311   0.0000       1.726266        46.9741 
 312   0.0000       1.737587        47.2821 
 313   0.0000       1.744060        47.4583 
 314   0.0000       1.748824        47.5879 
 315   0.0000       1.756272        47.7906 
 316   0.0000       1.763142        47.9775 
 317   0.0000       1.790898        48.7328 
 318   0.0000       1.792786        48.7842 
 319   0.0000       1.799269        48.9606 
 320   0.0000       1.806691        49.1626 
 321   0.0000       1.825869        49.6844 
 322   0.0000       1.839934        50.0672 
 323   0.0000       1.845416        50.2163 
 324   0.0000       1.850779        50.3623 
 325   0.0000       1.864409        50.7331 
 326   0.0000       1.872222        50.9457 
 327   0.0000       1.887314        51.3564 
 328   0.0000       1.892187        51.4890 
 329   0.0000       1.895884        51.5896 
 330   0.0000       1.911895        52.0253 
 331   0.0000       1.919001        52.2187 
 332   0.0000       1.935983        52.6808 
 333   0.0000       1.945500        52.9398 
 334   0.0000       1.955819        53.2206 
 335   0.0000       1.969220        53.5852 
 336   0.0000       1.973046        53.6893 
 337   0.0000       1.985946        54.0403 
 338   0.0000       1.992886        54.2292 
 339   0.0000       1.996380        54.3243 
 340   0.0000       2.006692        54.6049 
 341   0.0000       2.026201        55.1357 
 342   0.0000       2.031137        55.2701 
 343   0.0000       2.059130        56.0318 
 344   0.0000       2.093893        56.9777 
 345   0.0000       2.100446        57.1560 
 346   0.0000       2.109369        57.3989 
 347   0.0000       2.122303        57.7508 
 348   0.0000       2.134867        58.0927 
 349   0.0000       2.151213        58.5375 
 350   0.0000       2.165553        58.9277 
 351   0.0000       2.189890        59.5899 
 352   0.0000       2.204595        59.9901 
 353   0.0000       2.222752        60.4841 
 354   0.0000       2.225552        60.5603 
 355   0.0000       2.253720        61.3268 
 356   0.0000       2.277374        61.9705 
 357   0.0000       2.285980        62.2047 
 358   0.0000       2.296015        62.4777 
 359   0.0000       2.302089        62.6430 
 360   0.0000       2.315808        63.0164 
 361   0.0000       2.331236        63.4362 
 362   0.0000       2.332543        63.4717 
 363   0.0000       2.340551        63.6896 
 364   0.0000       2.362312        64.2818 
 365   0.0000       2.377596        64.6977 
 366   0.0000       2.383534        64.8593 
 367   0.0000       2.392796        65.1113 
 368   0.0000       2.403197        65.3943 
 369   0.0000       2.409061        65.5539 
 370   0.0000       2.439464        66.3812 
 371   0.0000       2.451810        66.7171 
 372   0.0000       2.461546        66.9821 
 373   0.0000       2.470762        67.2328 
 374   0.0000       2.484159        67.5974 
 375   0.0000       2.491726        67.8033 
 376   0.0000       2.509782        68.2946 
 377   0.0000       2.523623        68.6713 
 378   0.0000       2.530217        68.8507 
 379   0.0000       2.549143        69.3657 
 380   0.0000       2.559529        69.6483 
 381   0.0000       2.579588        70.1942 
 382   0.0000       2.586650        70.3863 
 383   0.0000       2.596325        70.6496 
 384   0.0000       2.603513        70.8452 
 385   0.0000       2.617064        71.2139 
 386   0.0000       2.630583        71.5818 
 387   0.0000       2.648344        72.0651 
 388   0.0000       2.651228        72.1436 
 389   0.0000       2.668293        72.6080 
 390   0.0000       2.674667        72.7814 
 391   0.0000       2.691446        73.2380 
 392   0.0000       2.703546        73.5672 
 393   0.0000       2.707197        73.6666 
 394   0.0000       2.719575        74.0034 
 395   0.0000       2.723971        74.1230 
 396   0.0000       2.735603        74.4395 
 397   0.0000       2.743497        74.6543 
 398   0.0000       2.750533        74.8458 
 399   0.0000       2.756805        75.0165 
 400   0.0000       2.768353        75.3307 
 401   0.0000       2.782453        75.7144 
 402   0.0000       2.790908        75.9445 
 403   0.0000       2.797381        76.1206 
 404   0.0000       2.801197        76.2244 
 405   0.0000       2.810274        76.4714 
 406   0.0000       2.825336        76.8813 
 407   0.0000       2.832834        77.0853 
 408   0.0000       2.840053        77.2818 
 409   0.0000       2.842590        77.3508 
 410   0.0000       2.854959        77.6874 
 411   0.0000       2.863389        77.9168 
 412   0.0000       2.874983        78.2323 
 413   0.0000       2.892699        78.7143 
 414   0.0000       2.914339        79.3032 
 415   0.0000       2.920737        79.4773 
 416   0.0000       2.926506        79.6343 
 417   0.0000       2.928149        79.6790 
 418   0.0000       2.936201        79.8981 
 419   0.0000       2.950669        80.2918 
 420   0.0000       2.957291        80.4720 
 421   0.0000       2.972654        80.8900 
 422   0.0000       2.975867        80.9774 
 423   0.0000       2.983690        81.1903 
 424   0.0000       2.998088        81.5821 
 425   0.0000       3.005564        81.7855 
 426   0.0000       3.014235        82.0215 
 427   0.0000       3.021908        82.2303 
 428   0.0000       3.036564        82.6291 
 429   0.0000       3.043882        82.8282 
 430   0.0000       3.048872        82.9640 
 431   0.0000       3.054115        83.1067 
 432   0.0000       3.062118        83.3245 
 433   0.0000       3.074904        83.6724 
 434   0.0000       3.076446        83.7144 
 435   0.0000       3.082027        83.8662 
 436   0.0000       3.085742        83.9673 
 437   0.0000       3.089141        84.0598 
 438   0.0000       3.096271        84.2538 
 439   0.0000       3.099176        84.3329 
 440   0.0000       3.114442        84.7483 
 441   0.0000       3.120208        84.9052 
 442   0.0000       3.128495        85.1307 
 443   0.0000       3.134543        85.2953 
 444   0.0000       3.136842        85.3578 
 445   0.0000       3.147449        85.6464 
 446   0.0000       3.157050        85.9077 
 447   0.0000       3.163132        86.0732 
 448   0.0000       3.168877        86.2295 
 449   0.0000       3.175107        86.3991 
 450   0.0000       3.191646        86.8491 
 451   0.0000       3.194565        86.9285 
 452   0.0000       3.209541        87.3361 
 453   0.0000       3.216443        87.5239 
 454   0.0000       3.219897        87.6179 
 455   0.0000       3.230347        87.9022 
 456   0.0000       3.233031        87.9752 
 457   0.0000       3.243422        88.2580 
 458   0.0000       3.251207        88.4698 
 459   0.0000       3.257781        88.6487 
 460   0.0000       3.268941        88.9524 
 461   0.0000       3.273327        89.0718 
 462   0.0000       3.276450        89.1567 
 463   0.0000       3.277949        89.1975 
 464   0.0000       3.288037        89.4720 
 465   0.0000       3.299917        89.7953 
 466   0.0000       3.302999        89.8792 
 467   0.0000       3.311298        90.1050 
 468   0.0000       3.316935        90.2584 
 469   0.0000       3.326381        90.5154 
 470   0.0000       3.329742        90.6069 
 471   0.0000       3.333641        90.7130 
 472   0.0000       3.343429        90.9793 
 473   0.0000       3.346990        91.0762 
 474   0.0000       3.351251        91.1922 
 475   0.0000       3.365653        91.5841 
 476   0.0000       3.373574        91.7996 
 477   0.0000       3.375084        91.8407 
 478   0.0000       3.378848        91.9431 
 479   0.0000       3.389266        92.2266 
 480   0.0000       3.392246        92.3077 
 481   0.0000       3.394202        92.3609 
 482   0.0000       3.399101        92.4942 
 483   0.0000       3.406772        92.7030 
 484   0.0000       3.413484        92.8856 
 485   0.0000       3.415288        92.9347 
 486   0.0000       3.418629        93.0256 
 487   0.0000       3.420814        93.0851 
 488   0.0000       3.427017        93.2539 
 489   0.0000       3.433960        93.4428 
 490   0.0000       3.441563        93.6497 
 491   0.0000       3.441883        93.6584 
 492   0.0000       3.449382        93.8625 
 493   0.0000       3.459026        94.1249 
 494   0.0000       3.465584        94.3033 
 495   0.0000       3.470072        94.4255 
 496   0.0000       3.484313        94.8130 
 497   0.0000       3.488153        94.9175 
 498   0.0000       3.495640        95.1212 
 499   0.0000       3.503954        95.3474 
 500   0.0000       3.514841        95.6437 
 501   0.0000       3.521895        95.8356 
 502   0.0000       3.534166        96.1695 
 503   0.0000       3.538120        96.2771 
 504   0.0000       3.545660        96.4823 
 505   0.0000       3.551675        96.6460 
 506   0.0000       3.555928        96.7617 
 507   0.0000       3.566290        97.0437 
 508   0.0000       3.569334        97.1265 
 509   0.0000       3.578550        97.3773 
 510   0.0000       3.581028        97.4447 
 511   0.0000       3.591928        97.7413 
 512   0.0000       3.595482        97.8380 
 513   0.0000       3.599694        97.9527 
 514   0.0000       3.608979        98.2053 
 515   0.0000       3.615266        98.3764 
 516   0.0000       3.622261        98.5667 
 517   0.0000       3.630960        98.8034 
 518   0.0000       3.635717        98.9329 
 519   0.0000       3.643040        99.1321 
 520   0.0000       3.648097        99.2698 
 521   0.0000       3.650139        99.3253 
 522   0.0000       3.661489        99.6342 
 523   0.0000       3.666016        99.7574 
 524   0.0000       3.670646        99.8834 
 525   0.0000       3.676701       100.0481 
 526   0.0000       3.679889       100.1349 
 527   0.0000       3.688864       100.3791 
 528   0.0000       3.693932       100.5170 
 529   0.0000       3.698321       100.6364 
 530   0.0000       3.701585       100.7253 
 531   0.0000       3.710929       100.9795 
 532   0.0000       3.714756       101.0837 
 533   0.0000       3.723943       101.3336 
 534   0.0000       3.735816       101.6567 
 535   0.0000       3.738376       101.7264 
 536   0.0000       3.747527       101.9754 
 537   0.0000       3.754327       102.1604 
 538   0.0000       3.762131       102.3728 
 539   0.0000       3.765250       102.4577 
 540   0.0000       3.768267       102.5398 
 541   0.0000       3.779300       102.8400 
 542   0.0000       3.787711       103.0689 
 543   0.0000       3.796855       103.3177 
 544   0.0000       3.801559       103.4457 
 545   0.0000       3.809335       103.6573 
 546   0.0000       3.811136       103.7063 
 547   0.0000       3.820554       103.9626 
 548   0.0000       3.823815       104.0513 
 549   0.0000       3.836939       104.4084 
 550   0.0000       3.855178       104.9047 
 551   0.0000       3.863958       105.1436 
 552   0.0000       3.871569       105.3507 
 553   0.0000       3.881692       105.6262 
 554   0.0000       3.883498       105.6754 
 555   0.0000       3.889735       105.8451 
 556   0.0000       3.899027       106.0979 
 557   0.0000       3.901720       106.1712 
 558   0.0000       3.909903       106.3939 
 559   0.0000       3.923461       106.7628 
 560   0.0000       3.927945       106.8848 
 561   0.0000       3.937610       107.1478 
 562   0.0000       3.942837       107.2901 
 563   0.0000       3.956035       107.6492 
 564   0.0000       3.957263       107.6826 
 565   0.0000       3.961994       107.8113 
 566   0.0000       3.985018       108.4379 
 567   0.0000       3.987773       108.5128 
 568   0.0000       3.992399       108.6387 
 569   0.0000       3.996080       108.7389 
 570   0.0000       4.011380       109.1552 
 571   0.0000       4.024999       109.5258 
 572   0.0000       4.034674       109.7890 
 573   0.0000       4.043982       110.0424 
 574   0.0000       4.048253       110.1586 
 575   0.0000       4.053443       110.2998 
 576   0.0000       4.059713       110.4704 
 577   0.0000       4.066582       110.6573 
 578   0.0000       4.080975       111.0490 
 579   0.0000       4.093602       111.3926 
 580   0.0000       4.104161       111.6799 
 581   0.0000       4.108200       111.7898 
 582   0.0000       4.113407       111.9315 
 583   0.0000       4.117148       112.0333 
 584   0.0000       4.120500       112.1245 
 585   0.0000       4.124528       112.2341 
 586   0.0000       4.139662       112.6459 
 587   0.0000       4.146241       112.8250 
 588   0.0000       4.148453       112.8851 
 589   0.0000       4.156470       113.1033 
 590   0.0000       4.161779       113.2478 
 591   0.0000       4.166319       113.3713 
 592   0.0000       4.174380       113.5907 
 593   0.0000       4.175649       113.6252 
 594   0.0000       4.180960       113.7697 
 595   0.0000       4.197028       114.2069 
 596   0.0000       4.199301       114.2688 
 597   0.0000       4.206826       114.4735 
 598   0.0000       4.221257       114.8662 
 599   0.0000       4.235017       115.2407 
 600   0.0000       4.242274       115.4381 
 601   0.0000       4.246392       115.5502 
 602   0.0000       4.256365       115.8216 
 603   0.0000       4.261425       115.9593 
 604   0.0000       4.265577       116.0723 
 605   0.0000       4.286849       116.6511 
 606   0.0000       4.287885       116.6793 
 607   0.0000       4.294553       116.8607 
 608   0.0000       4.301841       117.0591 
 609   0.0000       4.308394       117.2374 
 610   0.0000       4.319952       117.5519 
 611   0.0000       4.324439       117.6740 
 612   0.0000       4.343423       118.1906 
 613   0.0000       4.346021       118.2612 
 614   0.0000       4.357090       118.5625 
 615   0.0000       4.359322       118.6232 
 616   0.0000       4.374434       119.0344 
 617   0.0000       4.377373       119.1144 
 618   0.0000       4.382334       119.2494 
 619   0.0000       4.393750       119.5600 
 620   0.0000       4.413153       120.0880 
 621   0.0000       4.415983       120.1650 
 622   0.0000       4.425274       120.4178 
 623   0.0000       4.432588       120.6169 
 624   0.0000       4.438677       120.7825 
 625   0.0000       4.443361       120.9100 
 626   0.0000       4.455546       121.2416 
 627   0.0000       4.455915       121.2516 
 628   0.0000       4.464668       121.4898 
 629   0.0000       4.470667       121.6530 
 630   0.0000       4.479517       121.8939 
 631   0.0000       4.487506       122.1113 
 632   0.0000       4.494322       122.2967 
 633   0.0000       4.498941       122.4224 
 634   0.0000       4.505542       122.6020 
 635   0.0000       4.511324       122.7594 
 636   0.0000       4.530128       123.2710 
 637   0.0000       4.536713       123.4502 
 638   0.0000       4.540130       123.5432 
 639   0.0000       4.552093       123.8688 
 640   0.0000       4.552892       123.8905 
 641   0.0000       4.566350       124.2567 
 642   0.0000       4.574802       124.4867 
 643   0.0000       4.581493       124.6688 
 644   0.0000       4.594412       125.0203 
 645   0.0000       4.607659       125.3808 
 646   0.0000       4.612710       125.5182 
 647   0.0000       4.615458       125.5930 
 648   0.0000       4.622389       125.7816 
 649   0.0000       4.634487       126.1108 
 650   0.0000       4.644073       126.3716 
 651   0.0000       4.652340       126.5966 
 652   0.0000       4.658317       126.7593 
 653   0.0000       4.665492       126.9545 
 654   0.0000       4.670042       127.0783 
 655   0.0000       4.679783       127.3434 
 656   0.0000       4.686121       127.5158 
 657   0.0000       4.698020       127.8396 
 658   0.0000       4.718357       128.3930 
 659   0.0000       4.723101       128.5221 
 660   0.0000       4.736442       128.8851 
 661   0.0000       4.756325       129.4262 
 662   0.0000       4.763536       129.6224 
 663   0.0000       4.781119       130.1009 
 664   0.0000       4.791168       130.3743 
 665   0.0000       4.803642       130.7137 
 666   0.0000       4.809341       130.8688 
 667   0.0000       4.825572       131.3105 
 668   0.0000       4.841111       131.7333 
 669   0.0000       4.856038       132.1395 
 670   0.0000       4.876708       132.7020 
 671   0.0000       4.901964       133.3892 
 672   0.0000       4.935796       134.3098 
 673   0.0000       4.945433       134.5721 
 674   0.0000       4.956233       134.8659 
 675   0.0000       4.972728       135.3148 
 676   0.0000       4.984895       135.6459 
 677   0.0000       4.989235       135.7640 
 678   0.0000       5.013993       136.4377 
 679   0.0000       5.024960       136.7361 
 680   0.0000       5.027108       136.7946 
 681   0.0000       5.043011       137.2273 
 682   0.0000       5.066083       137.8551 
 683   0.0000       5.067371       137.8902 
 684   0.0000       5.079305       138.2149 
 685   0.0000       5.093288       138.5954 
 686   0.0000       5.112628       139.1217 
 687   0.0000       5.130468       139.6071 
 688   0.0000       5.139226       139.8454 
 689   0.0000       5.146693       140.0486 
 690   0.0000       5.153610       140.2369 
 691   0.0000       5.162176       140.4700 
 692   0.0000       5.169107       140.6586 
 693   0.0000       5.184119       141.0670 
 694   0.0000       5.191076       141.2564 
 695   0.0000       5.202154       141.5578 
 696   0.0000       5.203382       141.5912 
 697   0.0000       5.220342       142.0527 
 698   0.0000       5.232706       142.3892 
 699   0.0000       5.253718       142.9609 
 700   0.0000       5.263547       143.2284 
 701   0.0000       5.281214       143.7091 
 702   0.0000       5.284313       143.7935 
 703   0.0000       5.301048       144.2488 
 704   0.0000       5.310183       144.4974 
 705   0.0000       5.316786       144.6771 
 706   0.0000       5.341322       145.3448 
 707   0.0000       5.346270       145.4794 
 708   0.0000       5.357525       145.7857 
 709   0.0000       5.383558       146.4941 
 710   0.0000       5.394049       146.7795 
 711   0.0000       5.416453       147.3892 
 712   0.0000       5.427620       147.6931 
 713   0.0000       5.442392       148.0950 
 714   0.0000       5.452656       148.3743 
 715   0.0000       5.456250       148.4721 
 716   0.0000       5.459778       148.5681 
 717   0.0000       5.477019       149.0373 
 718   0.0000       5.487637       149.3262 
 719   0.0000       5.518106       150.1553 
 720   0.0000       5.521632       150.2513 
 721   0.0000       5.529610       150.4683 
 722   0.0000       5.554168       151.1366 
 723   0.0000       5.570112       151.5704 
 724   0.0000       5.578741       151.8053 
 725   0.0000       5.589160       152.0888 
 726   0.0000       5.593805       152.2152 
 727   0.0000       5.619423       152.9123 
 728   0.0000       5.636234       153.3697 
 729   0.0000       5.644752       153.6015 
 730   0.0000       5.659631       154.0064 
 731   0.0000       5.664195       154.1306 
 732   0.0000       5.672439       154.3549 
 733   0.0000       5.682736       154.6351 
 734   0.0000       5.707290       155.3033 
 735   0.0000       5.726941       155.8380 
 736   0.0000       5.736995       156.1116 
 737   0.0000       5.742789       156.2692 
 738   0.0000       5.757508       156.6698 
 739   0.0000       5.772551       157.0791 
 740   0.0000       5.781824       157.3314 
 741   0.0000       5.788840       157.5223 
 742   0.0000       5.802429       157.8921 
 743   0.0000       5.824711       158.4984 
 744   0.0000       5.831252       158.6764 
 745   0.0000       5.842983       158.9957 
 746   0.0000       5.850957       159.2126 
 747   0.0000       5.886756       160.1868 
 748   0.0000       5.896555       160.4534 
 749   0.0000       5.929368       161.3463 
 750   0.0000       5.945638       161.7890 
 751   0.0000       5.962919       162.2593 
 752   0.0000       5.965501       162.3295 
 753   0.0000       5.973852       162.5568 
 754   0.0000       5.988700       162.9608 
 755   0.0000       6.016370       163.7137 
 756   0.0000       6.033836       164.1890 
 757   0.0000       6.056910       164.8169 
 758   0.0000       6.070372       165.1832 
 759   0.0000       6.105273       166.1329 
 760   0.0000       6.115922       166.4227 
 761   0.0000       6.170090       167.8967 
 762   0.0000       6.171349       167.9309 
 763   0.0000       6.199793       168.7049 
 764   0.0000       6.212939       169.0627 
 765   0.0000       6.225555       169.4060 
 766   0.0000       6.301386       171.4694 
 767   0.0000       6.310385       171.7143 
 768   0.0000       6.314879       171.8366 
 769   0.0000       6.320370       171.9860 
 770   0.0000       6.324790       172.1063 
 771   0.0000       6.351217       172.8254 
 772   0.0000       6.380464       173.6212 
 773   0.0000       6.402420       174.2187 
 774   0.0000       6.437885       175.1838 
 775   0.0000       6.463278       175.8747 
 776   0.0000       6.502297       176.9365 
 777   0.0000       6.530530       177.7047 
 778   0.0000       6.598728       179.5605 
 779   0.0000       6.635102       180.5503 
 780   0.0000       6.680779       181.7933 
 781   0.0000       6.739743       183.3977 
 782   0.0000       6.770231       184.2273 
 783   0.0000       6.808396       185.2659 
 784   0.0000       6.821530       185.6233 
 785   0.0000       6.845068       186.2638 
 786   0.0000       6.897566       187.6923 
 787   0.0000       6.919180       188.2805 
 788   0.0000       6.927109       188.4962 
 789   0.0000       6.937512       188.7793 
 790   0.0000       7.058044       192.0591 
 791   0.0000       7.072257       192.4459 
 792   0.0000       7.076075       192.5498 
 793   0.0000       7.181593       195.4211 
 794   0.0000       7.209425       196.1784 
 795   0.0000       7.238966       196.9823 
 796   0.0000       7.273612       197.9250 
 797   0.0000       7.306864       198.8299 
 798   0.0000       7.309380       198.8983 
 799   0.0000       7.378443       200.7777 
 800   0.0000       7.483992       203.6498 
 801   0.0000       7.528160       204.8517 
 802   0.0000       7.549091       205.4212 
 803   0.0000       7.596480       206.7107 
 804   0.0000       7.729170       210.3214 
 805   0.0000       7.757778       211.0999 
 806   0.0000       7.878411       214.3825 
 807   0.0000       7.909966       215.2411 
 808   0.0000       8.004348       217.8094 
 809   0.0000       9.201714       250.3914 
 810   0.0000       9.486755       258.1477 
 811   0.0000      10.938305       297.6464 
 812   0.0000      11.551650       314.3364 
 813   0.0000      11.910307       324.0959 
 814   0.0000      12.252250       333.4007 
 815   0.0000      12.322095       335.3012 
 816   0.0000      12.838067       349.3416 
 817   0.0000      12.865751       350.0949 
 818   0.0000      13.150908       357.8544 
 819   0.0000      13.185594       358.7983 
 820   0.0000      13.382314       364.1513 
 821   0.0000      13.616675       370.5286 
 822   0.0000      13.770471       374.7136 
 823   0.0000      13.875928       377.5832 
 824   0.0000      13.907313       378.4372 
 825   0.0000      14.536747       395.5650 
 826   0.0000      14.793696       402.5569 
 827   0.0000      15.277952       415.7342 

                    ********************************
                    * MULLIKEN POPULATION ANALYSIS *
                    ********************************

-----------------------
MULLIKEN ATOMIC CHARGES
-----------------------
   0 C :   -0.291830
   1 C :    0.022756
   2 O :   -0.319511
   3 C :    0.455750
   4 O :   -0.453919
   5 C :   -0.192905
   6 C :    0.108799
   7 C :   -0.265309
   8 N :   -0.069787
   9 C :    0.181422
  10 S :   -0.441634
  11 N :   -0.184511
  12 C :   -0.000084
  13 C :    0.098887
  14 C :   -0.225712
  15 C :   -0.123785
  16 C :   -0.276212
  17 C :    0.298542
  18 O :   -0.349642
  19 C :   -0.271132
  20 H :    0.102746
  21 H :    0.094243
  22 H :    0.099782
  23 H :    0.122457
  24 H :    0.103048
  25 H :    0.137510
  26 H :    0.135383
  27 H :    0.091869
  28 H :    0.192967
  29 H :    0.191438
  30 H :    0.157837
  31 H :    0.162755
  32 H :    0.158185
  33 H :    0.136101
  34 H :    0.244852
  35 H :    0.168644
Sum of atomic charges:   -0.0000000

--------------------------------
MULLIKEN REDUCED ORBITAL CHARGES
--------------------------------
  0 C s       :     3.263529  s :     3.263529
      pz      :     1.007478  p :     2.951688
      px      :     0.919126
      py      :     1.025084
      dz2     :     0.014814  d :     0.072043
      dxz     :     0.018330
      dyz     :     0.008735
      dx2y2   :     0.020288
      dxy     :     0.009876
      f0      :     0.000381  f :     0.004569
      f+1     :     0.001180
      f-1     :     0.000619
      f+2     :     0.000473
      f-2     :     0.000078
      f+3     :     0.000934
      f-3     :     0.000903
  1 C s       :     3.163502  s :     3.163502
      pz      :     0.874883  p :     2.648935
      px      :     0.857432
      py      :     0.916621
      dz2     :     0.031930  d :     0.152927
      dxz     :     0.033903
      dyz     :     0.027221
      dx2y2   :     0.034611
      dxy     :     0.025262
      f0      :     0.001562  f :     0.011880
      f+1     :     0.001710
      f-1     :     0.001607
      f+2     :     0.002215
      f-2     :     0.001650
      f+3     :     0.001389
      f-3     :     0.001748
  2 O s       :     3.698543  s :     3.698543
      pz      :     1.624244  p :     4.582027
      px      :     1.690820
      py      :     1.266962
      dz2     :     0.006413  d :     0.036466
      dxz     :     0.005577
      dyz     :     0.010213
      dx2y2   :     0.008625
      dxy     :     0.005638
      f0      :     0.000206  f :     0.002476
      f+1     :     0.000143
      f-1     :     0.000357
      f+2     :     0.000350
      f-2     :     0.000376
      f+3     :     0.000549
      f-3     :     0.000494
  3 C s       :     3.050038  s :     3.050038
      pz      :     0.811070  p :     2.159636
      px      :     0.656148
[...]
 15 C s       :     2.714513  s :     2.714513
      pz      :     0.814029  p :     2.794991
      px      :     1.007360
      py      :     0.973602
      dz2     :     0.028520  d :     0.412129
      dxz     :     0.085016
      dyz     :     0.027611
      dx2y2   :     0.125735
      dxy     :     0.145248
      f0      :     0.002139  f :     0.039045
      f+1     :     0.003397
      f-1     :     0.002633
      f+2     :     0.005436
      f-2     :     0.004420
      f+3     :     0.008667
      f-3     :     0.012353
 16 C s       :     2.711372  s :     2.711372
      pz      :     0.926459  p :     2.885618
      px      :     0.999459
      py      :     0.959700
      dz2     :     0.027108  d :     0.378795
      dxz     :     0.053318
      dyz     :     0.039134
      dx2y2   :     0.109762
      dxy     :     0.149472
      f0      :     0.002531  f :     0.038323
      f+1     :     0.003207
      f-1     :     0.002756
      f+2     :     0.006031
      f-2     :     0.002693
      f+3     :     0.008949
      f-3     :     0.012156
 17 C s       :     2.726247  s :     2.726247
      pz      :     0.801664  p :     2.663903
      px      :     0.824711
      py      :     1.037528
      dz2     :     0.045740  d :     0.670410
      dxz     :     0.141350
      dyz     :     0.081646
      dx2y2   :     0.200557
      dxy     :     0.201117
      f0      :     0.007260  f :     0.090807
      f+1     :     0.008493
      f-1     :     0.003984
      f+2     :     0.017288
      f-2     :     0.007098
      f+3     :     0.016303
      f-3     :     0.030380
 18 O s       :     3.185140  s :     3.185140
      pz      :     1.637715  p :     4.354895
      px      :     1.278030
      py      :     1.439150
      dz2     :     0.008458  d :     0.074533
      dxz     :     0.012747
      dyz     :     0.000671
      dx2y2   :     0.028146
      dxy     :     0.024511
      f0      :     0.000475  f :     0.004831
      f+1     :     0.000536
      f-1     :     0.000263
      f+2     :     0.000555
      f-2     :     0.000150
      f+3     :     0.001405
      f-3     :     0.001446
 19 C s       :     2.705551  s :     2.705551
      pz      :     0.908030  p :     2.861655
      px      :     0.991704
      py      :     0.961922
      dz2     :     0.028172  d :     0.376098
      dxz     :     0.061872
      dyz     :     0.026001
      dx2y2   :     0.119109
      dxy     :     0.140944
      f0      :     0.002263  f :     0.038576
      f+1     :     0.003610
      f-1     :     0.002787
      f+2     :     0.004954
      f-2     :     0.003840
      f+3     :     0.009406
      f-3     :     0.011715
 20 H s       :     0.843059  s :     0.843059
      pz      :     0.041660  p :     0.154608
      px      :     0.039995
      py      :     0.072953
      dz2     :     0.002910  d :     0.028097
      dxz     :     0.000363
      dyz     :     0.009065
      dx2y2   :     0.006902
      dxy     :     0.008856
 21 H s       :     0.843108  s :     0.843108
      pz      :     0.057413  p :     0.153368
      px      :     0.046828
      py      :     0.049128
      dz2     :     0.008259  d :     0.027828
      dxz     :     0.006120
      dyz     :     0.005631
      dx2y2   :     0.004802
      dxy     :     0.003017
 22 H s       :     0.852603  s :     0.852603
      pz      :     0.063697  p :     0.149463
      px      :     0.043599
      py      :     0.042167
      dz2     :     0.008308  d :     0.027147
      dxz     :     0.007457
      dyz     :     0.007086
      dx2y2   :     0.002536
      dxy     :     0.001759
 23 H s       :     0.851428  s :     0.851428
      pz      :     0.071510  p :     0.146165
      px      :     0.039877
      py      :     0.034777
      dz2     :     0.009161  d :     0.026825
      dxz     :     0.007671
      dyz     :     0.007071
      dx2y2   :     0.001915
      dxy     :     0.001007
 24 H s       :     0.851490  s :     0.851490
      pz      :     0.035065  p :     0.146831
      px      :     0.040111
      py      :     0.071655
      dz2     :     0.003610  d :     0.027499
      dxz     :     0.000891
      dyz     :     0.007336
      dx2y2   :     0.007122
      dxy     :     0.008541
 25 H s       :     0.828633  s :     0.828633
      pz      :     0.052837  p :     0.148989
      px      :     0.045722
      py      :     0.050430
      dz2     :     0.006608  d :     0.027366
      dxz     :     0.004808
      dyz     :     0.006183
      dx2y2   :     0.004579
      dxy     :     0.005188
 26 H s       :     0.823262  s :     0.823262
      pz      :     0.045259  p :     0.153378
      px      :     0.063823
      py      :     0.044296
      dz2     :     0.004501  d :     0.028009
      dxz     :     0.006718
      dyz     :     0.003224
      dx2y2   :     0.005975
      dxy     :     0.007592
 27 H s       :     0.842926  s :     0.842926
      pz      :     0.036011  p :     0.153594
      px      :     0.054719
      py      :     0.062864
      dz2     :     0.002479  d :     0.028102
      dxz     :     0.002997
      dyz     :     0.006013
      dx2y2   :     0.009526
      dxy     :     0.007086
 28 H s       :     0.735278  s :     0.735278
      pz      :     0.043847  p :     0.247897
      px      :     0.096134
      py      :     0.107916
      dz2     :     0.006659  d :     0.060487
      dxz     :     0.005550
      dyz     :     0.011413
      dx2y2   :     0.021291
      dxy     :     0.015574
 29 H s       :     0.746632  s :     0.746632
      pz      :     0.115473  p :     0.249688
      px      :     0.082033
      py      :     0.052182
      dz2     :     0.019320  d :     0.060819
      dxz     :     0.021010
      dyz     :     0.016656
      dx2y2   :     0.001788
      dxy     :     0.002045
 30 H s       :     0.833552  s :     0.833552
      pz      :     0.038915  p :     0.153890
      px      :     0.078929
      py      :     0.036046
      dz2     :     0.003084  d :     0.029196
      dxz     :     0.008423
      dyz     :     0.001095
      dx2y2   :     0.008303
      dxy     :     0.008291
 31 H s       :     0.849702  s :     0.849702
      pz      :     0.047292  p :     0.159209
      px      :     0.079178
      py      :     0.032739
      dz2     :     0.002599  d :     0.027657
      dxz     :     0.008207
      dyz     :     0.000310
      dx2y2   :     0.008047
      dxy     :     0.008494
 32 H s       :     0.845557  s :     0.845557
      pz      :     0.040502  p :     0.154001
      px      :     0.042498
      py      :     0.071001
      dz2     :     0.002485  d :     0.026874
      dxz     :     0.001603
      dyz     :     0.005866
      dx2y2   :     0.008581
      dxy     :     0.008340
 33 H s       :     0.848425  s :     0.848425
      pz      :     0.051779  p :     0.161059
      px      :     0.046021
      py      :     0.063259
      dz2     :     0.003079  d :     0.027821
      dxz     :     0.002986
      dyz     :     0.006167
      dx2y2   :     0.008259
      dxy     :     0.007329
 34 H s       :     0.705939  s :     0.705939
      pz      :     0.103139  p :     0.344517
      px      :     0.075075
      py      :     0.166303
      dz2     :     0.007971  d :     0.097988
      dxz     :     0.006638
      dyz     :     0.029279
      dx2y2   :     0.030364
      dxy     :     0.023736
 35 H s       :     0.839937  s :     0.839937
      pz      :     0.047665  p :     0.158626
      px      :     0.038417
      py      :     0.072543
      dz2     :     0.002692  d :     0.028000
      dxz     :     0.001540
      dyz     :     0.007513
      dx2y2   :     0.008143
      dxy     :     0.008113


                      *****************************
                      * MAYER POPULATION ANALYSIS *
                      *****************************

  NA   - Mulliken gross atomic population
  ZA   - Total nuclear charge
  QA   - Mulliken gross atomic charge
  VA   - Mayer's total valence
  BVA  - Mayer's bonded valence
  FA   - Mayer's free valence

  ATOM       NA         ZA         QA         VA         BVA        FA
  0 C      6.2918     6.0000    -0.2918     3.8756     3.8756    -0.0000
  1 C      5.9772     6.0000     0.0228     3.8492     3.8492    -0.0000
  2 O      8.3195     8.0000    -0.3195     2.0921     2.0921    -0.0000
  3 C      5.5443     6.0000     0.4557     4.2600     4.2600    -0.0000
  4 O      8.4539     8.0000    -0.4539     2.0569     2.0569    -0.0000
  5 C      6.1929     6.0000    -0.1929     3.5857     3.5857     0.0000
  6 C      5.8912     6.0000     0.1088     3.8805     3.8805     0.0000
  7 C      6.2653     6.0000    -0.2653     3.9029     3.9029     0.0000
  8 N      7.0698     7.0000    -0.0698     3.3354     3.3354    -0.0000
  9 C      5.8186     6.0000     0.1814     4.1546     4.1546    -0.0000
 10 S     16.4416    16.0000    -0.4416     1.7295     1.7295     0.0000
 11 N      7.1845     7.0000    -0.1845     3.2667     3.2667    -0.0000
 12 C      6.0001     6.0000    -0.0001     3.9625     3.9625    -0.0000
 13 C      5.9011     6.0000     0.0989     3.7078     3.7078     0.0000
 14 C      6.2257     6.0000    -0.2257     3.8760     3.8760     0.0000
 15 C      6.1238     6.0000    -0.1238     3.8188     3.8188    -0.0000
 16 C      6.2762     6.0000    -0.2762     3.8109     3.8109     0.0000
 17 C      5.7015     6.0000     0.2985     3.8953     3.8953     0.0000
 18 O      8.3496     8.0000    -0.3496     2.1265     2.1265     0.0000
 19 C      6.2711     6.0000    -0.2711     3.8459     3.8459     0.0000
 20 H      0.8973     1.0000     0.1027     0.9871     0.9871    -0.0000
 21 H      0.9058     1.0000     0.0942     0.9858     0.9858    -0.0000
 22 H      0.9002     1.0000     0.0998     0.9842     0.9842    -0.0000
 23 H      0.8775     1.0000     0.1225     0.9894     0.9894     0.0000
 24 H      0.8970     1.0000     0.1030     0.9760     0.9760    -0.0000
 25 H      0.8625     1.0000     0.1375     0.9819     0.9819     0.0000
 26 H      0.8646     1.0000     0.1354     0.9776     0.9776    -0.0000
 27 H      0.9081     1.0000     0.0919     0.9853     0.9853     0.0000
 28 H      0.8070     1.0000     0.1930     1.0212     1.0212    -0.0000
 29 H      0.8086     1.0000     0.1914     1.0171     1.0171    -0.0000
 30 H      0.8422     1.0000     0.1578     0.9871     0.9871    -0.0000
 31 H      0.8372     1.0000     0.1628     0.9876     0.9876    -0.0000
 32 H      0.8418     1.0000     0.1582     0.9772     0.9772    -0.0000
 33 H      0.8639     1.0000     0.1361     0.9905     0.9905     0.0000
 34 H      0.7551     1.0000     0.2449     1.0076     1.0076     0.0000
 35 H      0.8314     1.0000     0.1686     0.9866     0.9866     0.0000

  Mayer bond orders larger than 0.100000
B(  0-C ,  1-C ) :   0.9589 B(  0-C , 20-H ) :   0.9762 B(  0-C , 21-H ) :   0.9778 
B(  0-C , 22-H ) :   0.9787 B(  1-C ,  2-O ) :   0.8952 B(  1-C , 23-H ) :   0.9772 
B(  1-C , 24-H ) :   0.9849 B(  2-O ,  3-C ) :   1.2029 B(  3-C ,  4-O ) :   1.9476 
B(  3-C ,  5-C ) :   1.0688 B(  5-C ,  6-C ) :   1.6233 B(  5-C , 12-C ) :   0.9611 
B(  6-C ,  7-C ) :   0.9713 B(  6-C ,  8-N ) :   1.1820 B(  7-C , 25-H ) :   0.9617 
B(  7-C , 26-H ) :   0.9577 B(  7-C , 27-H ) :   0.9876 B(  8-N ,  9-C ) :   1.1889 
B(  8-N , 28-H ) :   0.9518 B(  9-C , 10-S ) :   1.5859 B(  9-C , 11-N ) :   1.3170 
B( 11-N , 12-C ) :   0.9778 B( 11-N , 29-H ) :   0.9550 B( 12-C , 13-C ) :   0.9543 
B( 12-C , 30-H ) :   0.9988 B( 13-C , 14-C ) :   1.3701 B( 13-C , 19-C ) :   1.3668 
B( 14-C , 15-C ) :   1.3917 B( 14-C , 31-H ) :   0.9648 B( 15-C , 16-C ) :   1.3810 
B( 15-C , 32-H ) :   0.9705 B( 16-C , 17-C ) :   1.3406 B( 16-C , 33-H ) :   0.9792 
B( 17-C , 18-O ) :   1.1117 B( 17-C , 19-C ) :   1.3620 B( 18-O , 34-H ) :   0.9754 
B( 19-C , 35-H ) :   0.9591 

-------
TIMINGS
-------

Total SCF time: 0 days 2 hours 0 min 58 sec 

Total time                  ....    7258.292 sec
Sum of individual times     ....    7254.787 sec  (100.0%)

Fock matrix formation       ....    7240.963 sec  ( 99.8%)
Diagonalization             ....       1.533 sec  (  0.0%)
Density matrix formation    ....       0.201 sec  (  0.0%)
Population analysis         ....       0.190 sec  (  0.0%)
Initial guess               ....       6.689 sec  (  0.1%)
Orbital Transformation      ....       0.000 sec  (  0.0%)
Orbital Orthonormalization  ....       0.000 sec  (  0.0%)
DIIS solution               ....       1.646 sec  (  0.0%)
SOSCF solution              ....       1.898 sec  (  0.0%)

Maximum memory used throughout the entire SCF-calculation: 721.7 MB

------------------------------------------------------------------------------
                                ORCA  MP2 
------------------------------------------------------------------------------

Freezing NCore=48 chemical core electrons

-------------
RI-MP2 ENERGY
-------------
Dimension of the basis                    ...  828
Memory devoted to MP2                     ...  256 MB   
Data format for buffers                   ... DOUBLE
Compression type for matrix containers    ... UNCOMPRESSED
Overall scaling of the MP2 energy         ...   1.000e+00
Calculating two index integrals           ... done (    0.043 sec)
Cholesky decomposition of V**-1           ... done (    0.566 sec)

-----------------
RI-TRANSFORMATION (AUX index driven)
-----------------

Dimension of the orbital-basis         ... 828
Dimension of the aux-basis             ... 2141
Transformation of internal/external MOs...   24-  76 to   77- 827
Number Format for Storage              ... Double (8 Byte)
Integral mode                          ... Direct

First Phase: integral generation and transformation of MO indices
  Aux angular momentum 0               ... done (    5.061 sec)
  Aux angular momentum 1               ... done (    8.534 sec)
  Aux angular momentum 2               ... done (   11.147 sec)
  Aux angular momentum 3               ... done (    8.879 sec)
  Aux angular momentum 4               ... done (    3.034 sec)
Closing buffer VIA ( 0.63 GB; CompressionRatio= 1.00)
  Phase 1 completed in    36.823 sec
Second Phase: sorting and transformation of aux index

IA-Transformation
Memory available                       ... 158 MB 
Max. # MO pairs treated in a batch     ... 11    
# of internal orbitals                 ... 53
# batches for internal orbitals        ... 5
Closing buffer IAV ( 0.63 GB; CompressionRatio= 1.00)
(ia|v) transformation done in    18.896 sec

  Phase 2 completed in    18.903 sec
RI-Integral transformation completed in    55.730 sec
Opening buffers                              ... done

Starting loop over batches of integrals:

Operator 0  - window                       ... ( 24- 76)x( 77-827)
Operator 0  - Memory available             ...   256 MB
Operator 0  - Memory needed per MO         ...  12.3 MB
Operator 0  - Number of orbitals per batch ... 13
Operator 0  - Number of batches            ... 5

OPERATOR  0   PASS   0:  MOs    24 ...   36
  Reading integrals       ... ok
  Internal MO  26
  Internal MO  29
  Internal MO  32
  Internal MO  35
OPERATOR  0   PASS   1:  MOs    37 ...   49
  Reading integrals       ... ok
  Internal MO  38
  Internal MO  41
  Internal MO  44
  Internal MO  47
OPERATOR  0   PASS   2:  MOs    50 ...   62
  Reading integrals       ... ok
  Internal MO  50
  Internal MO  53
  Internal MO  56
  Internal MO  59
  Internal MO  62
OPERATOR  0   PASS   3:  MOs    63 ...   75
  Reading integrals       ... ok
  Internal MO  65
  Internal MO  68
  Internal MO  71
  Internal MO  74
OPERATOR  0   PASS   4:  MOs    76 ...   76
  Reading integrals       ... ok
Time spent in pair loops =    97.179 sec
Deleting buffer (Ka|jb)[aa] ...done

-----------------------------------------------
 RI-MP2 CORRELATION ENERGY:     -3.534347244 Eh
-----------------------------------------------


-------
TIMINGS
-------

Total time                :  153.621 sec
Integral trafo            :   55.750 sec ( 36.3%)
I/O of integrals          :    1.134 sec (  0.7%)
K(i,j) Operators          :   65.703 sec ( 42.8%)
T(i,j) pair energies      :    9.449 sec (  6.2%)
V-calculation             :    0.043 sec (  0.0%)
V**(-1/2)                 :    0.566 sec (  0.4%)
Gamma(ia|P)               :    0.000 sec (  0.0%)
Gamma-Trafo               :    0.000 sec (  0.0%)
D(virtual)                :    0.000 sec (  0.0%)
D(internal)               :    0.000 sec (  0.0%)
W(virtual)                :    0.000 sec (  0.0%)
W(internal)               :    0.000 sec (  0.0%)
L(virtual)                :    0.000 sec (  0.0%)
L(internal)               :    0.000 sec (  0.0%)
G(D)                      :    0.000 sec (  0.0%)
G(Z)                      :    0.000 sec (  0.0%)
Z-Vector Solution         :    0.000 sec (  0.0%)
3-Index Derivative        :    0.000 sec (  0.0%)
2-Index Derivative        :    0.000 sec (  0.0%)
Separable Gradient        :    0.000 sec (  0.0%)


---------------------------------------
MP2 TOTAL ENERGY:    -1274.317773414 Eh
---------------------------------------

Maximum memory used throughout the entire MP2-calculation: 303.1 MB

-------------------------   --------------------
FINAL SINGLE POINT ENERGY     -1274.317773414487
-------------------------   --------------------


                            ***************************************
                            *     ORCA property calculations      *
                            ***************************************


  WARNING: The energy has been calculated at the MP2 level but the densities
           used in the property calculations are still SCF densities
           MP2 response densities have not been calculated 
           use %mp2 Density relaxed end
           or  %mp2 Density unrelaxed end

                                    ---------------------
                                    Active property flags
                                    ---------------------
   (+) Dipole Moment


------------------------------------------------------------------------------
                       ORCA ELECTRIC PROPERTIES CALCULATION
------------------------------------------------------------------------------

Dipole Moment Calculation                       ... on
Quadrupole Moment Calculation                   ... off
Polarizability Calculation                      ... off
GBWName                                         ... qm_input.vacu.gbw
Electron density file                           ... qm_input.vacu.scfp
The origin for moment calculation is the CENTER OF MASS  = (-16.161069, 28.445813 -12.559263)

-------------
DIPOLE MOMENT
-------------
                                X             Y             Z
Electronic contribution:     -8.63941       8.43307      11.26748
Nuclear contribution   :      8.87618     -10.26474     -12.33479
                        -----------------------------------------
Total Dipole Moment    :      0.23677      -1.83167      -1.06731
                        -----------------------------------------
Magnitude (a.u.)       :      2.13312
Magnitude (Debye)      :      5.42197



--------------------
Rotational spectrum 
--------------------
 
Rotational constants in cm-1:     0.010224     0.009084     0.005835 
Rotational constants in MHz :   306.520031   272.340793   174.916581 

 Dipole components along the rotational axes: 
x,y,z [a.u.] :     2.017927     0.605380    -0.334225 
x,y,z [Debye]:     5.129162     1.538753    -0.849534 

 

Timings for individual modules:

Sum of individual times         ...     7414.309 sec (= 123.572 min)
GTO integral calculation        ...        1.963 sec (=   0.033 min)   0.0 %
SCF iterations                  ...     7258.365 sec (= 120.973 min)  97.9 %
MP2 module                      ...      153.981 sec (=   2.566 min)   2.1 %
                             ****ORCA TERMINATED NORMALLY****
TOTAL RUN TIME: 0 days 2 hours 3 minutes 35 seconds 337 msec
