
                                        *****************
                                        * O   R   C   A *
                                        *****************

                                            #,                                       
                                            ###                                      
                                            ####                                     
                                            #####                                    
                                            ######                                   
                                           ########,                                 
                                     ,,################,,,,,                         
                               ,,#################################,,                 
                          ,,##########################################,,             
                       ,#########################################, ''#####,          
                    ,#############################################,,   '####,        
                  ,##################################################,,,,####,       
                ,###########''''           ''''###############################       
              ,#####''   ,,,,##########,,,,          '''####'''          '####       
            ,##' ,,,,###########################,,,                        '##       
           ' ,,###''''                  '''############,,,                           
         ,,##''                                '''############,,,,        ,,,,,,###''
      ,#''                                            '''#######################'''  
     '                                                          ''''####''''         
             ,#######,   #######,   ,#######,      ##                                
            ,#'     '#,  ##    ##  ,#'     '#,    #''#        ######   ,####,        
            ##       ##  ##   ,#'  ##            #'  '#       #        #'  '#        
            ##       ##  #######   ##           ,######,      #####,   #    #        
            '#,     ,#'  ##    ##  '#,     ,#' ,#      #,         ##   #,  ,#        
             '#######'   ##     ##  '#######'  #'      '#     #####' # '####'        



                  #######################################################
                  #                        -***-                        #
                  #          Department of theory and spectroscopy      #
                  #    Directorship and core code : Frank Neese         #
                  #        Max Planck Institute fuer Kohlenforschung    #
                  #                Kaiser Wilhelm Platz 1               #
                  #                 D-45470 Muelheim/Ruhr               #
                  #                      Germany                        #
                  #                                                     #
                  #                  All rights reserved                #
                  #                        -***-                        #
                  #######################################################


                         Program Version 5.0.0 -  RELEASE  -
                                (SVN: $Rev: 19529$)
                ($Date: 2021-06-28 11:36:33 +0200 (Mo, 28 Jun 2021) $)


 With contributions from (in alphabetic order):
   Daniel Aravena         : Magnetic Suceptibility
   Michael Atanasov       : Ab Initio Ligand Field Theory (pilot matlab implementation)
   Alexander A. Auer      : GIAO ZORA, VPT2 properties, NMR spectrum
   Ute Becker             : Parallelization
   Giovanni Bistoni       : ED, misc. LED, open-shell LED, HFLD
   Martin Brehm           : Molecular dynamics
   Dmytro Bykov           : SCF Hessian
   Vijay G. Chilkuri      : MRCI spin determinant printing, contributions to CSF-ICE
   Dipayan Datta          : RHF DLPNO-CCSD density
   Achintya Kumar Dutta   : EOM-CC, STEOM-CC
   Dmitry Ganyushin       : Spin-Orbit,Spin-Spin,Magnetic field MRCI
   Miquel Garcia          : C-PCM Hessian, Gaussian charge scheme
   Yang Guo               : DLPNO-NEVPT2, F12-NEVPT2, CIM, IAO-localization
   Andreas Hansen         : Spin unrestricted coupled pair/coupled cluster methods
   Benjamin Helmich-Paris : MC-RPA, TRAH-SCF, COSX integrals
   Lee Huntington         : MR-EOM, pCC
   Robert Izsak           : Overlap fitted RIJCOSX, COSX-SCS-MP3, EOM
   Marcus Kettner         : VPT2
   Christian Kollmar      : KDIIS, OOCD, Brueckner-CCSD(T), CCSD density, CASPT2, CASPT2-K
   Simone Kossmann        : Meta GGA functionals, TD-DFT gradient, OOMP2, MP2 Hessian
   Martin Krupicka        : Initial AUTO-CI
   Lucas Lang             : DCDCAS
   Marvin Lechner         : AUTO-CI (C++ implementation), FIC-MRCC
   Dagmar Lenk            : GEPOL surface, SMD
   Dimitrios Liakos       : Extrapolation schemes; Compound Job, initial MDCI parallelization
   Dimitrios Manganas     : Further ROCIS development; embedding schemes
   Dimitrios Pantazis     : SARC Basis sets
   Anastasios Papadopoulos: AUTO-CI, single reference methods and gradients
   Taras Petrenko         : DFT Hessian,TD-DFT gradient, ASA, ECA, R-Raman, ABS, FL, XAS/XES, NRVS
   Peter Pinski           : DLPNO-MP2, DLPNO-MP2 Gradient
   Christoph Reimann      : Effective Core Potentials
   Marius Retegan         : Local ZFS, SOC
   Christoph Riplinger    : Optimizer, TS searches, QM/MM, DLPNO-CCSD(T), (RO)-DLPNO pert. Triples
   Tobias Risthaus        : Range-separated hybrids, TD-DFT gradient, RPA, STAB
   Michael Roemelt        : Original ROCIS implementation
   Masaaki Saitow         : Open-shell DLPNO-CCSD energy and density
   Barbara Sandhoefer     : DKH picture change effects
   Avijit Sen             : IP-ROCIS
   Kantharuban Sivalingam : CASSCF convergence, NEVPT2, FIC-MRCI
   Bernardo de Souza      : ESD, SOC TD-DFT
   Georgi Stoychev        : AutoAux, RI-MP2 NMR
   Willem Van den Heuvel  : Paramagnetic NMR
   Boris Wezisla          : Elementary symmetry handling
   Frank Wennmohs         : Technical directorship


 We gratefully acknowledge several colleagues who have allowed us to
 interface, adapt or use parts of their codes:
   Stefan Grimme, W. Hujo, H. Kruse, P. Pracht,  : VdW corrections, initial TS optimization,
                  C. Bannwarth, S. Ehlert          DFT functionals, gCP, sTDA/sTD-DF
   Ed Valeev, F. Pavosevic, A. Kumar             : LibInt (2-el integral package), F12 methods
   Garnet Chan, S. Sharma, J. Yang, R. Olivares  : DMRG
   Ulf Ekstrom                                   : XCFun DFT Library
   Mihaly Kallay                                 : mrcc  (arbitrary order and MRCC methods)
   Jiri Pittner, Ondrej Demel                    : Mk-CCSD
   Frank Weinhold                                : gennbo (NPA and NBO analysis)
   Christopher J. Cramer and Donald G. Truhlar   : smd solvation model
   Lars Goerigk                                  : TD-DFT with DH, B97 family of functionals
   V. Asgeirsson, H. Jonsson                     : NEB implementation
   FAccTs GmbH                                   : IRC, NEB, NEB-TS, DLPNO-Multilevel, CI-OPT
                                                   MM, QMMM, 2- and 3-layer-ONIOM, Crystal-QMMM,
                                                   LR-CPCM, SF, NACMEs, symmetry and pop. for TD-DFT,
                                                   nearIR, NL-DFT gradient (VV10), updates on ESD,
                                                   ML-optimized integration grids
   S Lehtola, MJT Oliveira, MAL Marques          : LibXC Library
   Liviu Ungur et al                             : ANISO software


 Your calculation uses the libint2 library for the computation of 2-el integrals
 For citations please refer to: http://libint.valeyev.net

 Your ORCA version has been built with support for libXC version: 5.1.0
 For citations please refer to: https://tddft.org/programs/libxc/

 This ORCA versions uses:
   CBLAS   interface :  Fast vector & matrix operations
   LAPACKE interface :  Fast linear algebra routines
   SCALAPACK package :  Parallel linear algebra routines
   Shared memory     :  Shared parallel matrices
   BLAS/LAPACK       :  OpenBLAS 0.3.15  USE64BITINT DYNAMIC_ARCH NO_AFFINITY SkylakeX SINGLE_THREADED
        Core in use  :  SkylakeX
   Copyright (c) 2011-2014, The OpenBLAS Project


================================================================================

----- Orbital basis set information -----
Your calculation utilizes the basis: cc-pVTZ 
       H, B-Ne : Obtained from the ccRepo (grant-hill.group.shef.ac.uk/ccrepo) Feb. 2017
                 T. H. Dunning, Jr., J. Chem. Phys. 90, 1007 (1989)
            He : Obtained from the ccRepo (grant-hill.group.shef.ac.uk/ccrepo) Feb. 2017
                 D. E. Woon, T. H. Dunning, Jr., J. Chem. Phys. 100, 2975 (1994)
  Li-Be, Na-Mg : Obtained from the ccRepo (grant-hill.group.shef.ac.uk/ccrepo) Feb. 2017
                 B. P. Prascher, D. E. Woon, K. A. Peterson, T. H. Dunning, Jr., A. K. Wilson, Theor. Chem. Acc. 128, 69 (2011)
         Al-Ar : Obtained from the ccRepo (grant-hill.group.shef.ac.uk/ccrepo) Feb. 2017
                 D. E. Woon, T. H. Dunning, Jr., J. Chem. Phys. 98, 1358 (1993)
            Ca : Obtained from the Peterson Research Group Website (tyr0.chem.wsu.edu/~kipeters) Feb. 2017
                 J. Koput, K. A. Peterson, J. Phys. Chem. 106, 9595 (2002)
         Sc-Zn : Obtained from the ccRepo (grant-hill.group.shef.ac.uk/ccrepo) Feb. 2017
                 N. B. Balabanov, K. A. Peterson, J. Chem. Phys. 123, 064107 (2005)
                 N. B. Balabanov, K. A. Peterson, J. Chem. Phys. 125, 074110 (2006)
         Ga-Kr : Obtained from the ccRepo (grant-hill.group.shef.ac.uk/ccrepo) Feb. 2017
                 A. K. Wilson, D. E. Woon, K. A. Peterson, T. H. Dunning, Jr., J. Chem. Phys. 110, 7667 (1999)
             Y : Obtained from the ccRepo (grant-hill.group.shef.ac.uk/ccrepo) Feb. 2017
                 K. A. Peterson, D. Figgen, M. Dolg, H. Stoll, J. Chem. Phys. 126, 124101 (2007)
        Ag, Au : Obtained from the Peterson Research Group Website (tyr0.chem.wsu.edu/~kipeters) Feb. 2017
                 K. A. Peterson, C. Puzzarini, Theor. Chem. Acc. 114, 283 (2005)

----- AuxC basis set information -----
Your calculation utilizes the auxiliary basis: cc-pVTZ/C 
  Obtained from the EMSL Basis Set Exchange (bse.pnl.gov) Feb. 2017
  H-He, B-F, Al-Ar, Ga-Kr : F. Weigend, A. Kohn, C. Hattig, J. Chem. Phys. 116, 3175 (2002)
             Li-Be, Na-Mg : C. Haettig, Phys. Chem. Chem. Phys. 7, 59 (2005)
                       Ne : C. Haettig, Phys. Chem. Chem. Phys. 7, 59 (2005)
                            F. Weigend, A. Kohn, C. Hattig, J. Chem. Phys. 116, 3175 (2002)
                    Sc-Zn : J. G. Hill, J. A. Platts, J. Chem. Phys. 128, 044104 (2008)

================================================================================
                                        WARNINGS
                       Please study these warnings very carefully!
================================================================================


WARNING: No MP2 level density has been requested!
         To caclulate MP2 level properties use
         %mp2 Density relaxed end
         or
         %mp2 Density unrelaxed end

WARNING: Post HF methods need fully converged wavefunctions
  ===> : Setting SCFConvForced true
         You can overwrite this default with %scf ConvForced false 


INFO   : the flag for use of the SHARK integral package has been found!

================================================================================
                                       INPUT FILE
================================================================================
NAME = qm_input.solv
|  1> ! RI-MP2 cc-pVTZ cc-pVTZ/c TightSCF KeepDens NoKeepInts
|  2> 
|  3> %pointcharges "srfp_output"
|  4> 
|  5> *xyz  0  1
|  6>     C    -4.7093702   13.3756858   -9.0952310
|  7>     C    -6.2006784   13.0452802   -9.1626177
|  8>     O    -6.8714193   13.8710836   -8.2158162
|  9>     C    -7.2040997   15.1242647   -8.5267183
| 10>     O    -7.1738870   15.5305451   -9.6700477
| 11>     C    -7.9169144   15.8405969   -7.4321065
| 12>     C    -8.5722419   17.0643409   -7.6366096
| 13>     C    -8.9241427   17.7458537   -8.9706402
| 14>     N    -9.0007154   17.7253070   -6.5306165
| 15>     C    -8.7761427   17.4254777   -5.2370380
| 16>     S    -9.1356996   18.4717433   -3.9780444
| 17>     N    -8.1765657   16.2215979   -5.0207477
| 18>     C    -7.8770448   15.2183910   -6.0230678
| 19>     C    -8.7993172   13.9391217   -5.8595541
| 20>     C    -8.1934191   12.6444380   -5.9090777
| 21>     C    -9.0579645   11.4910893   -5.7548290
| 22>     C   -10.4394446   11.6238937   -5.6188315
| 23>     C   -11.0202837   12.9435458   -5.5844607
| 24>     O   -12.3723474   13.0916501   -5.4758816
| 25>     C   -10.1740478   14.1111439   -5.7328773
| 26>     H    -4.5494166   14.4382238   -9.3157267
| 27>     H    -4.2065491   12.8749654   -9.9316756
| 28>     H    -4.2149476   13.1625907   -8.1395482
| 29>     H    -6.6375569   13.1247739  -10.1656178
| 30>     H    -6.2463157   12.0082131   -8.8082188
| 31>     H    -9.4117876   17.0683708   -9.6822614
| 32>     H    -8.0393602   18.1699882   -9.4610075
| 33>     H    -9.5373585   18.6421206   -8.8161680
| 34>     H    -9.5570044   18.5461820   -6.7371934
| 35>     H    -8.0771254   15.9321850   -4.0551814
| 36>     H    -6.8098418   15.0142390   -5.8727706
| 37>     H    -7.1252840   12.4606303   -5.9776214
| 38>     H    -8.5645872   10.5278024   -5.6650885
| 39>     H   -11.0240956   10.7497682   -5.3477395
| 40>     H   -12.7838897   12.2100239   -5.4857737
| 41>     H   -10.5924683   15.0997446   -5.8971605
| 42> *
| 43> 
| 44>                          ****END OF INPUT****
================================================================================

                       ****************************
                       * Single Point Calculation *
                       ****************************

---------------------------------
CARTESIAN COORDINATES (ANGSTROEM)
---------------------------------
  C     -4.709370   13.375686   -9.095231
  C     -6.200678   13.045280   -9.162618
  O     -6.871419   13.871084   -8.215816
  C     -7.204100   15.124265   -8.526718
  O     -7.173887   15.530545   -9.670048
  C     -7.916914   15.840597   -7.432106
  C     -8.572242   17.064341   -7.636610
  C     -8.924143   17.745854   -8.970640
  N     -9.000715   17.725307   -6.530616
  C     -8.776143   17.425478   -5.237038
  S     -9.135700   18.471743   -3.978044
  N     -8.176566   16.221598   -5.020748
  C     -7.877045   15.218391   -6.023068
  C     -8.799317   13.939122   -5.859554
  C     -8.193419   12.644438   -5.909078
  C     -9.057965   11.491089   -5.754829
  C    -10.439445   11.623894   -5.618831
  C    -11.020284   12.943546   -5.584461
  O    -12.372347   13.091650   -5.475882
  C    -10.174048   14.111144   -5.732877
  H     -4.549417   14.438224   -9.315727
  H     -4.206549   12.874965   -9.931676
  H     -4.214948   13.162591   -8.139548
  H     -6.637557   13.124774  -10.165618
  H     -6.246316   12.008213   -8.808219
  H     -9.411788   17.068371   -9.682261
  H     -8.039360   18.169988   -9.461007
  H     -9.537358   18.642121   -8.816168
  H     -9.557004   18.546182   -6.737193
  H     -8.077125   15.932185   -4.055181
  H     -6.809842   15.014239   -5.872771
  H     -7.125284   12.460630   -5.977621
  H     -8.564587   10.527802   -5.665088
  H    -11.024096   10.749768   -5.347739
  H    -12.783890   12.210024   -5.485774
  H    -10.592468   15.099745   -5.897161

----------------------------
CARTESIAN COORDINATES (A.U.)
----------------------------
  NO LB      ZA    FRAG     MASS         X           Y           Z
   0 C     6.0000    0    12.011   -8.899420   25.276383  -17.187496
   1 C     6.0000    0    12.011  -11.717584   24.652007  -17.314838
   2 O     8.0000    0    15.999  -12.985101   26.212549  -15.525643
   3 C     6.0000    0    12.011  -13.613775   28.580718  -16.113162
   4 O     8.0000    0    15.999  -13.556682   29.348477  -18.273742
   5 C     6.0000    0    12.011  -14.960800   29.934390  -14.044646
   6 C     6.0000    0    12.011  -16.199190   32.246931  -14.431101
   7 C     6.0000    0    12.011  -16.864186   33.534804  -16.952053
   8 N     7.0000    0    14.007  -17.008887   33.495976  -12.341077
   9 C     6.0000    0    12.011  -16.584506   32.929381   -9.896568
  10 S    16.0000    0    32.060  -17.263970   34.906536   -7.517414
  11 N     7.0000    0    14.007  -15.451470   30.654377   -9.487838
  12 C     6.0000    0    12.011  -14.885457   28.758591  -11.381949
  13 C     6.0000    0    12.011  -16.628300   26.341123  -11.072953
  14 C     6.0000    0    12.011  -15.483318   23.894525  -11.166539
  15 C     6.0000    0    12.011  -17.117072   21.715012  -10.875051
  16 C     6.0000    0    12.011  -19.727691   21.965976  -10.618053
  17 C     6.0000    0    12.011  -20.825318   24.459757  -10.553101
  18 O     8.0000    0    15.999  -23.380348   24.739633  -10.347917
  19 C     6.0000    0    12.011  -19.226164   26.666197  -10.833568
  20 H     1.0000    0     1.008   -8.597151   27.284289  -17.604172
  21 H     1.0000    0     1.008   -7.949226   24.330159  -18.768147
  22 H     1.0000    0     1.008   -7.965097   24.873692  -15.381517
  23 H     1.0000    0     1.008  -12.543165   24.802228  -19.210234
  24 H     1.0000    0     1.008  -11.803826   22.692234  -16.645121
  25 H     1.0000    0     1.008  -17.785701   32.254546  -18.296822
  26 H     1.0000    0     1.008  -15.192189   34.336302  -17.878713
  27 H     1.0000    0     1.008  -18.022996   35.228502  -16.660143
  28 H     1.0000    0     1.008  -18.060121   35.047205  -12.731450
  29 H     1.0000    0     1.008  -15.263555   30.107466   -7.663182
  30 H     1.0000    0     1.008  -12.868736   28.372800  -11.097928
  31 H     1.0000    0     1.008  -13.464835   23.547179  -11.296067
  32 H     1.0000    0     1.008  -16.184724   19.894663  -10.705466
  33 H     1.0000    0     1.008  -20.832522   20.314118  -10.105763
  34 H     1.0000    0     1.008  -24.158050   23.073601  -10.366610
  35 H     1.0000    0     1.008  -20.016864   28.534382  -11.144018

--------------------------------
INTERNAL COORDINATES (ANGSTROEM)
--------------------------------
 C      0   0   0     0.000000000000     0.00000000     0.00000000
 C      1   0   0     1.528956825825     0.00000000     0.00000000
 O      2   1   0     1.424176144579   107.74409678     0.00000000
 C      3   2   1     1.333341379290   120.49614110    82.71058772
 O      4   3   2     1.213745726077   121.87347013    13.39256362
 C      4   3   2     1.489768978732   113.57717442   179.11780501
 C      6   4   3     1.403148255781   122.39377666   192.36789563
 C      7   6   4     1.538808471299   128.27324475    12.79291309
 N      7   6   4     1.357824164905   116.94968964   190.22754973
 C      9   7   6     1.346727827880   128.41781144     6.68739194
 S     10   9   7     1.676012456673   123.14651815   168.87354322
 N     10   9   7     1.362204333296   115.00325772   351.57563206
 C     12  10   9     1.449407615755   126.36014655   354.33572372
 C     13  12  10     1.585513497833   111.52676613   250.02802540
 C     14  13  12     1.430304505197   118.70902124   226.48837232
 C     15  14  13     1.449636034977   117.63582412   179.90225522
 C     16  15  14     1.394496179759   121.69709245     2.65110451
 C     17  16  15     1.442233364271   119.23818013   357.83550167
 O     18  17  16     1.364478124959   120.01888330   178.83256596
 C     14  13  12     1.391230703919   118.97405870    49.31763558
 H      1   2   3     1.096900409935   110.04158163   301.22278751
 H      1   2   3     1.096899971032   108.35234289   189.50422047
 H      1   2   3     1.096901473812   115.85299821    63.14512748
 H      2   1   3     1.096900757909   114.40078820   125.54244285
 H      2   1   3     1.096899955955   103.33549206   245.51298025
 H      8   7   6     1.096898062984   112.98866043    48.55244007
 H      8   7   6     1.096900285033   111.98376965   286.45537556
 H      8   7   6     1.096900010930   111.56982591   173.55455723
 H      9   7   6     1.012900406141   113.68352682   186.56290135
 H     12  10   9     1.012900034380   116.55707230   185.69455259
 H     13  12  10     1.096899963826   103.59883173   127.36970986
 H     15  14  13     1.086000046612   124.89226695     4.82434563
 H     16  15  14     1.086000077904   116.33133879   187.74965921
 H     17  16  15     1.086003247700   118.75178147   189.69896350
 H     19  18  17     0.973000346792   108.66022088   356.77730815
 H     20  14  13     1.086000013197   118.65277510     9.00437222

---------------------------
INTERNAL COORDINATES (A.U.)
---------------------------
 C      0   0   0     0.000000000000     0.00000000     0.00000000
 C      1   0   0     2.889309671398     0.00000000     0.00000000
 O      2   1   0     2.691302879717   107.74409678     0.00000000
 C      3   2   1     2.519650049882   120.49614110    82.71058772
 O      4   3   2     2.293647018503   121.87347013    13.39256362
 C      4   3   2     2.815255372615   113.57717442   179.11780501
 C      6   4   3     2.651565928716   122.39377666   192.36789563
 C      7   6   4     2.907926583313   128.27324475    12.79291309
 N      7   6   4     2.565915809690   116.94968964   190.22754973
 C      9   7   6     2.544946771624   128.41781144     6.68739194
 S     10   9   7     3.167204540152   123.14651815   168.87354322
 N     10   9   7     2.574193128371   115.00325772   351.57563206
 C     12  10   9     2.738983450197   126.36014655   354.33572372
 C     13  12  10     2.996186292541   111.52676613   250.02802540
 C     14  13  12     2.702883802936   118.70902124   226.48837232
 C     15  14  13     2.739415099970   117.63582412   179.90225522
 C     16  15  14     2.635215874543   121.69709245     2.65110451
 C     17  16  15     2.725426079676   119.23818013   357.83550167
 O     18  17  16     2.578489971900   120.01888330   178.83256596
 C     14  13  12     2.629045019510   118.97405870    49.31763558
 H      1   2   3     2.072841370963   110.04158163   301.22278751
 H      1   2   3     2.072840541557   108.35234289   189.50422047
 H      1   2   3     2.072843381399   115.85299821    63.14512748
 H      2   1   3     2.072842028539   114.40078820   125.54244285
 H      2   1   3     2.072840513066   103.33549206   245.51298025
 H      8   7   6     2.072836935868   112.98866043    48.55244007
 H      8   7   6     2.072841134933   111.98376965   286.45537556
 H      8   7   6     2.072840616953   111.56982591   173.55455723
 H      9   7   6     1.914104368543   113.68352682   186.56290135
 H     12  10   9     1.914103666017   116.55707230   185.69455259
 H     13  12  10     2.072840527939   103.59883173   127.36970986
 H     15  14  13     2.052242669522   124.89226695     4.82434563
 H     16  15  14     2.052242728655   116.33133879   187.74965921
 H     17  16  15     2.052248718702   118.75178147   189.69896350
 H     19  18  17     1.838704183648   108.66022088   356.77730815
 H     20  14  13     2.052242606376   118.65277510     9.00437222

---------------------
BASIS SET INFORMATION
---------------------
There are 5 groups of distinct atoms

 Group   1 Type C   : 18s5p2d1f contracted to 4s3p2d1f pattern {8811/311/11/1}
 Group   2 Type O   : 18s5p2d1f contracted to 4s3p2d1f pattern {8811/311/11/1}
 Group   3 Type N   : 18s5p2d1f contracted to 4s3p2d1f pattern {8811/311/11/1}
 Group   4 Type S   : 41s16p2d1f contracted to 5s4p2d1f pattern {13131311/7711/11/1}
 Group   5 Type H   : 5s2p1d contracted to 3s2p1d pattern {311/11/1}

Atom   0C    basis set group =>   1
Atom   1C    basis set group =>   1
Atom   2O    basis set group =>   2
Atom   3C    basis set group =>   1
Atom   4O    basis set group =>   2
Atom   5C    basis set group =>   1
Atom   6C    basis set group =>   1
Atom   7C    basis set group =>   1
Atom   8N    basis set group =>   3
Atom   9C    basis set group =>   1
Atom  10S    basis set group =>   4
Atom  11N    basis set group =>   3
Atom  12C    basis set group =>   1
Atom  13C    basis set group =>   1
Atom  14C    basis set group =>   1
Atom  15C    basis set group =>   1
Atom  16C    basis set group =>   1
Atom  17C    basis set group =>   1
Atom  18O    basis set group =>   2
Atom  19C    basis set group =>   1
Atom  20H    basis set group =>   5
Atom  21H    basis set group =>   5
Atom  22H    basis set group =>   5
Atom  23H    basis set group =>   5
Atom  24H    basis set group =>   5
Atom  25H    basis set group =>   5
Atom  26H    basis set group =>   5
Atom  27H    basis set group =>   5
Atom  28H    basis set group =>   5
Atom  29H    basis set group =>   5
Atom  30H    basis set group =>   5
Atom  31H    basis set group =>   5
Atom  32H    basis set group =>   5
Atom  33H    basis set group =>   5
Atom  34H    basis set group =>   5
Atom  35H    basis set group =>   5
---------------------------------
AUXILIARY/C BASIS SET INFORMATION
---------------------------------
There are 5 groups of distinct atoms

 Group   1 Type C   : 8s6p5d3f1g contracted to 8s6p5d3f1g pattern {11111111/111111/11111/111/1}
 Group   2 Type O   : 8s6p5d3f1g contracted to 8s6p5d3f1g pattern {11111111/111111/11111/111/1}
 Group   3 Type N   : 8s6p5d3f1g contracted to 8s6p5d3f1g pattern {11111111/111111/11111/111/1}
 Group   4 Type S   : 10s8p7d5f2g contracted to 10s8p7d5f2g pattern {1111111111/11111111/1111111/11111/11}
 Group   5 Type H   : 4s3p2d1f contracted to 4s3p2d1f pattern {1111/111/11/1}

Atom   0C    basis set group =>   1
Atom   1C    basis set group =>   1
Atom   2O    basis set group =>   2
Atom   3C    basis set group =>   1
Atom   4O    basis set group =>   2
Atom   5C    basis set group =>   1
Atom   6C    basis set group =>   1
Atom   7C    basis set group =>   1
Atom   8N    basis set group =>   3
Atom   9C    basis set group =>   1
Atom  10S    basis set group =>   4
Atom  11N    basis set group =>   3
Atom  12C    basis set group =>   1
Atom  13C    basis set group =>   1
Atom  14C    basis set group =>   1
Atom  15C    basis set group =>   1
Atom  16C    basis set group =>   1
Atom  17C    basis set group =>   1
Atom  18O    basis set group =>   2
Atom  19C    basis set group =>   1
Atom  20H    basis set group =>   5
Atom  21H    basis set group =>   5
Atom  22H    basis set group =>   5
Atom  23H    basis set group =>   5
Atom  24H    basis set group =>   5
Atom  25H    basis set group =>   5
Atom  26H    basis set group =>   5
Atom  27H    basis set group =>   5
Atom  28H    basis set group =>   5
Atom  29H    basis set group =>   5
Atom  30H    basis set group =>   5
Atom  31H    basis set group =>   5
Atom  32H    basis set group =>   5
Atom  33H    basis set group =>   5
Atom  34H    basis set group =>   5
Atom  35H    basis set group =>   5
------------------------------------------------------------------------------
                           ORCA GTO INTEGRAL CALCULATION
------------------------------------------------------------------------------
------------------------------------------------------------------------------
                   ___                                                        
                  /   \      - P O W E R E D   B Y -                         
                 /     \                                                     
                 |  |  |   _    _      __       _____    __    __             
                 |  |  |  | |  | |    /  \     |  _  \  |  |  /  |          
                  \  \/   | |  | |   /    \    | | | |  |  | /  /          
                 / \  \   | |__| |  /  /\  \   | |_| |  |  |/  /          
                |  |  |   |  __  | /  /__\  \  |    /   |      \           
                |  |  |   | |  | | |   __   |  |    \   |  |\   \          
                \     /   | |  | | |  |  |  |  | |\  \  |  | \   \       
                 \___/    |_|  |_| |__|  |__|  |_| \__\ |__|  \__/        
                                                                              
                      - O R C A' S   B I G   F R I E N D -                    
                                      &                                       
                       - I N T E G R A L  F E E D E R -                       
                                                                              
 v1 FN, 2020, v2 2021                                                         
------------------------------------------------------------------------------


Reading SHARK input file qm_input.solv.SHARKINP.tmp ... ok
----------------------
SHARK INTEGRAL PACKAGE
----------------------

Number of atoms                             ...     36
Number of basis functions                   ...    828
Number of shells                            ...    298
Maximum angular momentum                    ...      3
Integral batch strategy                     ... SHARK/LIBINT Hybrid
RI-J (if used) integral strategy            ... SPLIT-RIJ (Revised 2003 algorithm where possible)
Printlevel                                  ...      1
Contraction scheme used                     ... SEGMENTED contraction
Coulomb Range Separation                    ... NOT USED
Exchange Range Separation                   ... NOT USED
Finite Nucleus Model                        ... NOT USED
Auxiliary Coulomb fitting basis             ... NOT available
Auxiliary J/K fitting basis                 ... NOT available
Auxiliary Correlation fitting basis         ... AVAILABLE
   # of basis functions in Aux-C            ...   2141
   # of shells in Aux-C                     ...    629
   Maximum angular momentum in Aux-C        ...      4
Auxiliary 'external' fitting basis          ... NOT available
Integral threshold                          ...     2.500000e-11
Primitive cut-off                           ...     2.500000e-12
Primitive pair pre-selection threshold      ...     2.500000e-12

Calculating pre-screening integrals         ... done (  0.6 sec) Dimension = 298
Organizing shell pair data                  ... done (  0.4 sec)
Shell pair information
Total number of shell pairs                 ...     44551
Shell pairs after pre-screening             ...     32368
Total number of primitive shell pairs       ...    234348
Primitive shell pairs kept                  ...     93209
          la=0 lb=0:   6489 shell pairs
          la=1 lb=0:   9016 shell pairs
          la=1 lb=1:   3173 shell pairs
          la=2 lb=0:   5153 shell pairs
          la=2 lb=1:   3534 shell pairs
          la=2 lb=2:   1006 shell pairs
          la=3 lb=0:   1865 shell pairs
          la=3 lb=1:   1277 shell pairs
          la=3 lb=2:    715 shell pairs
          la=3 lb=3:    140 shell pairs

Reading point charge file                   ... ok (45491 point charges)
Calculating one electron integrals          ... done (233.8 sec)
Calculating RI/C V-Matrix + Cholesky decomp.... done (  0.4 sec)
Calculating Nuclear repulsion               ... (+Point charges) done (  0.0 sec) ENN=   1931.238766247202 Eh

SHARK setup successfully completed in 235.3 seconds

Maximum memory used throughout the entire GTOINT-calculation: 479.3 MB
ENUC WAS=  0.000000000
ENUC IS =  0.000000000
-------------------------------------------------------------------------------
                                 ORCA SCF
-------------------------------------------------------------------------------

------------
SCF SETTINGS
------------
Hamiltonian:
 Ab initio Hamiltonian  Method          .... Hartree-Fock(GTOs)


General Settings:
 Integral files         IntName         .... qm_input.solv
 Hartree-Fock type      HFTyp           .... RHF
 Total Charge           Charge          ....    0
 Multiplicity           Mult            ....    1
 Number of Electrons    NEL             ....  154
 Basis Dimension        Dim             ....  828
 Nuclear Repulsion      ENuc            ....   1931.2387662472 Eh

Convergence Acceleration:
 DIIS                   CNVDIIS         .... on
   Start iteration      DIISMaxIt       ....    12
   Startup error        DIISStart       ....  0.200000
   # of expansion vecs  DIISMaxEq       ....     5
   Bias factor          DIISBfac        ....   1.050
   Max. coefficient     DIISMaxC        ....  10.000
 Trust-Rad. Augm. Hess. CNVTRAH         .... auto
   Auto Start mean grad. ratio tolernc. ....  1.125000
   Auto Start start iteration           ....    20
   Auto Start num. interpolation iter.  ....    10
   Max. Number of Micro iterations      ....    16
   Max. Number of Macro iterations      .... Maxiter - #DIIS iter
   Number of Davidson start vectors     ....     2
   Converg. threshold I  (grad. norm)   ....   1.000e-05
   Converg. threshold II (energy diff.) ....   1.000e-08
   Grad. Scal. Fac. for Micro threshold ....   0.100
   Minimum threshold for Micro iter.    ....   0.010
   NR start threshold (gradient norm)   ....   0.001
   Initial trust radius                 ....   0.400
   Minimum AH scaling param. (alpha)    ....   1.000
   Maximum AH scaling param. (alpha)    .... 1000.000
   Orbital update algorithm             .... Taylor
   White noise on init. David. guess    .... on
   Maximum white noise                  ....   0.010
   Quad. conv. algorithm                .... NR
 SOSCF                  CNVSOSCF        .... on
   Start iteration      SOSCFMaxIt      ....   150
   Startup grad/error   SOSCFStart      ....  0.003300
 Level Shifting         CNVShift        .... on
   Level shift para.    LevelShift      ....    0.2500
   Turn off err/grad.   ShiftErr        ....    0.0010
 Zerner damping         CNVZerner       .... off
 Static damping         CNVDamp         .... on
   Fraction old density DampFac         ....    0.7000
   Max. Damping (<1)    DampMax         ....    0.9800
   Min. Damping (>=0)   DampMin         ....    0.0000
   Turn off err/grad.   DampErr         ....    0.1000
 Fernandez-Rico         CNVRico         .... off

SCF Procedure:
 Maximum # iterations   MaxIter         ....   125
 SCF integral mode      SCFMode         .... Direct
   Integral package                     .... SHARK and LIBINT hybrid scheme
 Reset frequency        DirectResetFreq ....    20
 Integral Threshold     Thresh          ....  2.500e-11 Eh
 Primitive CutOff       TCut            ....  2.500e-12 Eh

Convergence Tolerance:
 Convergence Check Mode ConvCheckMode   .... Total+1el-Energy
 Convergence forced     ConvForced      .... 1
 Energy Change          TolE            ....  1.000e-08 Eh
 1-El. energy change                    ....  1.000e-05 Eh
 Orbital Gradient       TolG            ....  1.000e-05
 Orbital Rotation angle TolX            ....  1.000e-05
 DIIS Error             TolErr          ....  5.000e-07


Diagonalization of the overlap matrix:
Smallest eigenvalue                        ... 4.819e-05
Time for diagonalization                   ...    0.137 sec
Threshold for overlap eigenvalues          ... 1.000e-08
Number of eigenvalues below threshold      ... 0
Time for construction of square roots      ...    0.066 sec
Total time needed                          ...    0.205 sec

Time for model grid setup =    1.400 sec

------------------------------
INITIAL GUESS: MODEL POTENTIAL
------------------------------
Loading Hartree-Fock densities                     ... done
Calculating cut-offs                               ... done
Initializing the effective Hamiltonian             ... done
Setting up the integral package (SHARK)            ... done
Starting the Coulomb interaction                   ... done (   4.4 sec)
Reading the grid                                   ... done
Mapping shells                                     ... done
Starting the XC term evaluation                    ... done (   1.4 sec)
Transforming the Hamiltonian                       ... done (   0.1 sec)
Diagonalizing the Hamiltonian                      ... done (   0.1 sec)
Back transforming the eigenvectors                 ... done (   0.0 sec)
Now organizing SCF variables                       ... done
                      ------------------
                      INITIAL GUESS DONE (   7.4 sec)
                      ------------------
--------------
SCF ITERATIONS
--------------
ITER       Energy         Delta-E        Max-DP      RMS-DP      [F,P]     Damp
               ***  Starting incremental Fock matrix formation  ***
  0  -1270.0519564506   0.000000000000 0.04812343  0.00045712  0.3727846 0.7000
  1  -1270.3358897176  -0.283933267006 0.03565078  0.00037136  0.2171654 0.7000
                               ***Turning on DIIS***
  2  -1270.5122064237  -0.176316706160 0.02581261  0.00024638  0.1148657 0.7000
  3  -1272.6240293487  -2.111822925012 0.06413164  0.00051649  0.0841634 0.0000
  4  -1270.8450824437   1.778946905079 0.00736139  0.00010172  0.0077622 0.0000
  5  -1270.8975393098  -0.052456866166 0.00398741  0.00005354  0.0047357 0.0000
                      *** Initiating the SOSCF procedure ***
                           *** Shutting down DIIS ***
                      *** Re-Reading the Fockian *** 
                      *** Removing any level shift *** 
ITER      Energy       Delta-E        Grad      Rot      Max-DP    RMS-DP
  6  -1270.87893064   0.0186086706  0.002117  0.002117  0.002579  0.000027
               *** Restarting incremental Fock matrix formation ***
  7  -1270.89404526  -0.0151146186  0.000866  0.002204  0.001624  0.000016
  8  -1270.89410041  -0.0000551502  0.000507  0.002592  0.001690  0.000018
  9  -1270.89412167  -0.0000212639  0.000236  0.000438  0.000526  0.000004
 10  -1270.89412426  -0.0000025842  0.000056  0.000171  0.000188  0.000001
 11  -1270.89412454  -0.0000002855  0.000046  0.000258  0.000098  0.000001
 12  -1270.89412465  -0.0000001052  0.000011  0.000063  0.000042  0.000000
 13  -1270.89412465  -0.0000000070  0.000003  0.000014  0.000014  0.000000
                 **** Energy Check signals convergence ****
              ***Rediagonalizing the Fockian in SOSCF/NRSCF***

               *****************************************************
               *                     SUCCESS                       *
               *           SCF CONVERGED AFTER  14 CYCLES          *
               *****************************************************


----------------
TOTAL SCF ENERGY
----------------

Total Energy       :        -1270.89412465 Eh          -34582.78729 eV

Components:
Nuclear Repulsion  :         1931.23876625 Eh           52551.67851 eV
Electronic Energy  :        -3202.13289090 Eh          -87134.46579 eV
One Electron Energy:        -5337.69956030 Eh         -145246.18921 eV
Two Electron Energy:         2135.56666940 Eh           58111.72342 eV

Virial components:
Potential Energy   :        -2539.58612004 Eh          -69105.65159 eV
Kinetic Energy     :         1268.69199538 Eh           34522.86430 eV
Virial Ratio       :            2.00173575


---------------
SCF CONVERGENCE
---------------

  Last Energy change         ...    3.6521e-09  Tolerance :   1.0000e-08
  Last MAX-Density change    ...    2.3419e-06  Tolerance :   1.0000e-07
  Last RMS-Density change    ...    3.1877e-08  Tolerance :   5.0000e-09
  Last Orbital Gradient      ...    1.9646e-06  Tolerance :   1.0000e-05
  Last Orbital Rotation      ...    4.1415e-06  Tolerance :   1.0000e-05

             **** THE GBW FILE WAS UPDATED (qm_input.solv.gbw) ****
             **** DENSITY qm_input.solv.scfp WAS UPDATED ****
             **** ENERGY FILE WAS UPDATED (qm_input.solv.en.tmp) ****
             **** THE GBW FILE WAS UPDATED (qm_input.solv.gbw) ****
             **** DENSITY qm_input.solv.scfp WAS UPDATED ****
----------------
ORBITAL ENERGIES
----------------

  NO   OCC          E(Eh)            E(eV) 
   0   2.0000     -93.501908     -2544.3163 
   1   2.0000     -22.203126      -604.1778 
   2   2.0000     -22.194992      -603.9564 
   3   2.0000     -22.146380      -602.6336 
   4   2.0000     -17.224847      -468.7119 
   5   2.0000     -17.205548      -468.1868 
   6   2.0000     -12.996803      -353.6610 
   7   2.0000     -12.993179      -353.5624 
   8   2.0000     -12.939055      -352.0896 
   9   2.0000     -12.927086      -351.7639 
  10   2.0000     -12.901888      -351.0782 
  11   2.0000     -12.885004      -350.6188 
  12   2.0000     -12.864576      -350.0629 
  13   2.0000     -12.851540      -349.7082 
  14   2.0000     -12.850166      -349.6708 
  15   2.0000     -12.844865      -349.5265 
  16   2.0000     -12.843152      -349.4799 
  17   2.0000     -12.841567      -349.4368 
  18   2.0000     -12.839300      -349.3751 
  19   2.0000     -12.809402      -348.5616 
  20   2.0000     -10.507309      -285.9184 
  21   2.0000      -8.189127      -222.8375 
  22   2.0000      -8.187159      -222.7839 
  23   2.0000      -8.186685      -222.7710 
  24   2.0000      -3.071637       -83.5835 
  25   2.0000      -3.008912       -81.8767 
  26   2.0000      -2.967875       -80.7600 
  27   2.0000      -2.952658       -80.3459 
  28   2.0000      -2.843098       -77.3646 
  29   2.0000      -2.742821       -74.6360 
  30   2.0000      -2.708743       -73.7087 
  31   2.0000      -2.636869       -71.7528 
  32   2.0000      -2.630627       -71.5830 
  33   2.0000      -2.599856       -70.7457 
  34   2.0000      -2.585212       -70.3472 
  35   2.0000      -2.583684       -70.3056 
  36   2.0000      -2.512694       -68.3739 
  37   2.0000      -2.491678       -67.8020 
  38   2.0000      -2.460624       -66.9570 
  39   2.0000      -2.433976       -66.2318 
  40   2.0000      -2.423477       -65.9462 
  41   2.0000      -2.409292       -65.5602 
  42   2.0000      -2.358096       -64.1670 
  43   2.0000      -2.328801       -63.3699 
  44   2.0000      -2.321028       -63.1584 
  45   2.0000      -2.293935       -62.4211 
  46   2.0000      -2.290790       -62.3356 
  47   2.0000      -2.280954       -62.0679 
  48   2.0000      -2.267550       -61.7032 
  49   2.0000      -2.257595       -61.4323 
  50   2.0000      -2.244557       -61.0775 
  51   2.0000      -2.236810       -60.8667 
  52   2.0000      -2.229951       -60.6801 
  53   2.0000      -2.206087       -60.0307 
  54   2.0000      -2.199931       -59.8632 
  55   2.0000      -2.192684       -59.6660 
  56   2.0000      -2.190538       -59.6076 
  57   2.0000      -2.172539       -59.1178 
  58   2.0000      -2.167363       -58.9769 
  59   2.0000      -2.164444       -58.8975 
  60   2.0000      -2.151443       -58.5437 
  61   2.0000      -2.138409       -58.1891 
  62   2.0000      -2.131230       -57.9937 
  63   2.0000      -2.127881       -57.9026 
  64   2.0000      -2.121422       -57.7268 
  65   2.0000      -2.114308       -57.5332 
  66   2.0000      -2.093105       -56.9563 
  67   2.0000      -2.088174       -56.8221 
  68   2.0000      -2.075732       -56.4835 
  69   2.0000      -2.062947       -56.1356 
  70   2.0000      -2.053567       -55.8804 
  71   2.0000      -2.050225       -55.7895 
  72   2.0000      -1.953255       -53.1508 
  73   2.0000      -1.946923       -52.9785 
  74   2.0000      -1.942596       -52.8607 
  75   2.0000      -1.920969       -52.2722 
  76   2.0000      -1.908873       -51.9431 
  77   0.0000      -1.532395       -41.6986 
  78   0.0000      -1.486556       -40.4512 
  79   0.0000      -1.472455       -40.0675 
  80   0.0000      -1.452635       -39.5282 
  81   0.0000      -1.439747       -39.1775 
  82   0.0000      -1.434117       -39.0243 
  83   0.0000      -1.424900       -38.7735 
  84   0.0000      -1.417457       -38.5710 
  85   0.0000      -1.405640       -38.2494 
  86   0.0000      -1.400749       -38.1163 
  87   0.0000      -1.398164       -38.0460 
  88   0.0000      -1.395724       -37.9796 
  89   0.0000      -1.384920       -37.6856 
  90   0.0000      -1.380282       -37.5594 
  91   0.0000      -1.374170       -37.3931 
  92   0.0000      -1.359181       -36.9852 
  93   0.0000      -1.356784       -36.9200 
  94   0.0000      -1.350733       -36.7553 
  95   0.0000      -1.350506       -36.7491 
  96   0.0000      -1.339039       -36.4371 
  97   0.0000      -1.334020       -36.3005 
  98   0.0000      -1.320794       -35.9406 
  99   0.0000      -1.309227       -35.6259 
 100   0.0000      -1.293727       -35.2041 
 101   0.0000      -1.288323       -35.0570 
 102   0.0000      -1.280775       -34.8517 
 103   0.0000      -1.269087       -34.5336 
 104   0.0000      -1.265745       -34.4427 
 105   0.0000      -1.255369       -34.1603 
 106   0.0000      -1.249617       -34.0038 
 107   0.0000      -1.245871       -33.9019 
 108   0.0000      -1.229389       -33.4534 
 109   0.0000      -1.224126       -33.3102 
 110   0.0000      -1.217443       -33.1283 
 111   0.0000      -1.211855       -32.9763 
 112   0.0000      -1.202055       -32.7096 
 113   0.0000      -1.197799       -32.5938 
 114   0.0000      -1.194859       -32.5138 
 115   0.0000      -1.184884       -32.2423 
 116   0.0000      -1.181767       -32.1575 
 117   0.0000      -1.175656       -31.9912 
 118   0.0000      -1.170574       -31.8529 
 119   0.0000      -1.156934       -31.4818 
 120   0.0000      -1.149265       -31.2731 
 121   0.0000      -1.147608       -31.2280 
 122   0.0000      -1.140454       -31.0333 
 123   0.0000      -1.136713       -30.9315 
 124   0.0000      -1.131262       -30.7832 
 125   0.0000      -1.128037       -30.6955 
 126   0.0000      -1.122385       -30.5417 
 127   0.0000      -1.115377       -30.3509 
 128   0.0000      -1.113242       -30.2929 
 129   0.0000      -1.108825       -30.1727 
 130   0.0000      -1.093603       -29.7585 
 131   0.0000      -1.090852       -29.6836 
 132   0.0000      -1.084555       -29.5123 
 133   0.0000      -1.082702       -29.4618 
 134   0.0000      -1.074533       -29.2395 
 135   0.0000      -1.067702       -29.0536 
 136   0.0000      -1.064712       -28.9723 
 137   0.0000      -1.062375       -28.9087 
 138   0.0000      -1.055255       -28.7150 
 139   0.0000      -1.053803       -28.6754 
 140   0.0000      -1.047830       -28.5129 
 141   0.0000      -1.044363       -28.4186 
 142   0.0000      -1.038108       -28.2483 
 143   0.0000      -1.028890       -27.9975 
 144   0.0000      -1.015249       -27.6263 
 145   0.0000      -1.013000       -27.5651 
 146   0.0000      -1.010707       -27.5027 
 147   0.0000      -1.004062       -27.3219 
 148   0.0000      -0.999909       -27.2089 
 149   0.0000      -0.995740       -27.0955 
 150   0.0000      -0.988872       -26.9086 
 151   0.0000      -0.982442       -26.7336 
 152   0.0000      -0.977501       -26.5992 
 153   0.0000      -0.968567       -26.3560 
 154   0.0000      -0.964919       -26.2568 
 155   0.0000      -0.964203       -26.2373 
 156   0.0000      -0.962150       -26.1814 
 157   0.0000      -0.957548       -26.0562 
 158   0.0000      -0.953555       -25.9475 
 159   0.0000      -0.953229       -25.9387 
 160   0.0000      -0.944317       -25.6962 
 161   0.0000      -0.942187       -25.6382 
 162   0.0000      -0.937506       -25.5108 
 163   0.0000      -0.930213       -25.3124 
 164   0.0000      -0.926146       -25.2017 
 165   0.0000      -0.921881       -25.0857 
 166   0.0000      -0.909247       -24.7419 
 167   0.0000      -0.905940       -24.6519 
 168   0.0000      -0.902446       -24.5568 
 169   0.0000      -0.894688       -24.3457 
 170   0.0000      -0.890544       -24.2329 
 171   0.0000      -0.888964       -24.1899 
 172   0.0000      -0.882971       -24.0269 
 173   0.0000      -0.878940       -23.9172 
 174   0.0000      -0.876719       -23.8567 
 175   0.0000      -0.863324       -23.4922 
 176   0.0000      -0.854543       -23.2533 
 177   0.0000      -0.849389       -23.1130 
 178   0.0000      -0.846201       -23.0263 
 179   0.0000      -0.837548       -22.7908 
 180   0.0000      -0.828900       -22.5555 
 181   0.0000      -0.825674       -22.4677 
 182   0.0000      -0.822429       -22.3794 
 183   0.0000      -0.808200       -21.9922 
 184   0.0000      -0.799531       -21.7564 
 185   0.0000      -0.791224       -21.5303 
 186   0.0000      -0.789004       -21.4699 
 187   0.0000      -0.776893       -21.1403 
 188   0.0000      -0.771331       -20.9890 
 189   0.0000      -0.762550       -20.7500 
 190   0.0000      -0.757875       -20.6228 
 191   0.0000      -0.754124       -20.5208 
 192   0.0000      -0.749789       -20.4028 
 193   0.0000      -0.742720       -20.2104 
 194   0.0000      -0.735121       -20.0037 
 195   0.0000      -0.725772       -19.7493 
 196   0.0000      -0.716760       -19.5040 
 197   0.0000      -0.707691       -19.2573 
 198   0.0000      -0.699672       -19.0390 
 199   0.0000      -0.693791       -18.8790 
 200   0.0000      -0.692058       -18.8319 
 201   0.0000      -0.680617       -18.5205 
 202   0.0000      -0.673542       -18.3280 
 203   0.0000      -0.672451       -18.2983 
 204   0.0000      -0.665495       -18.1090 
 205   0.0000      -0.654349       -17.8057 
 206   0.0000      -0.646293       -17.5865 
 207   0.0000      -0.639527       -17.4024 
 208   0.0000      -0.637644       -17.3512 
 209   0.0000      -0.627581       -17.0773 
 210   0.0000      -0.624034       -16.9808 
 211   0.0000      -0.612917       -16.6783 
 212   0.0000      -0.609501       -16.5854 
 213   0.0000      -0.597412       -16.2564 
 214   0.0000      -0.595156       -16.1950 
 215   0.0000      -0.590330       -16.0637 
 216   0.0000      -0.576476       -15.6867 
 217   0.0000      -0.574323       -15.6281 
 218   0.0000      -0.554564       -15.0905 
 219   0.0000      -0.546412       -14.8686 
 220   0.0000      -0.540476       -14.7071 
 221   0.0000      -0.531573       -14.4648 
 222   0.0000      -0.527783       -14.3617 
 223   0.0000      -0.516016       -14.0415 
 224   0.0000      -0.505673       -13.7601 
 225   0.0000      -0.498507       -13.5651 
 226   0.0000      -0.488539       -13.2938 
 227   0.0000      -0.484961       -13.1965 
 228   0.0000      -0.476715       -12.9721 
 229   0.0000      -0.475409       -12.9365 
 230   0.0000      -0.462452       -12.5840 
 231   0.0000      -0.454241       -12.3605 
 232   0.0000      -0.447440       -12.1755 
 233   0.0000      -0.442443       -12.0395 
 234   0.0000      -0.439496       -11.9593 
 235   0.0000      -0.431113       -11.7312 
 236   0.0000      -0.430541       -11.7156 
 237   0.0000      -0.418539       -11.3890 
 238   0.0000      -0.409994       -11.1565 
 239   0.0000      -0.409037       -11.1305 
 240   0.0000      -0.396908       -10.8004 
 241   0.0000      -0.392064       -10.6686 
 242   0.0000      -0.384194       -10.4544 
 243   0.0000      -0.382351       -10.4043 
 244   0.0000      -0.375724       -10.2240 
 245   0.0000      -0.369775       -10.0621 
 246   0.0000      -0.357804        -9.7363 
 247   0.0000      -0.351685        -9.5698 
 248   0.0000      -0.344130        -9.3642 
 249   0.0000      -0.339982        -9.2514 
 250   0.0000      -0.336016        -9.1435 
 251   0.0000      -0.323522        -8.8035 
 252   0.0000      -0.319170        -8.6851 
 253   0.0000      -0.307476        -8.3668 
 254   0.0000      -0.305439        -8.3114 
 255   0.0000      -0.297462        -8.0943 
 256   0.0000      -0.284621        -7.7449 
 257   0.0000      -0.278996        -7.5919 
 258   0.0000      -0.274291        -7.4638 
 259   0.0000      -0.260625        -7.0920 
 260   0.0000      -0.253295        -6.8925 
 261   0.0000      -0.244359        -6.6493 
 262   0.0000      -0.240629        -6.5478 
 263   0.0000      -0.234447        -6.3796 
 264   0.0000      -0.232403        -6.3240 
 265   0.0000      -0.212144        -5.7727 
 266   0.0000      -0.202908        -5.5214 
 267   0.0000      -0.199502        -5.4287 
 268   0.0000      -0.190815        -5.1924 
 269   0.0000      -0.187924        -5.1137 
 270   0.0000      -0.181184        -4.9303 
 271   0.0000      -0.168813        -4.5936 
 272   0.0000      -0.161917        -4.4060 
 273   0.0000      -0.149093        -4.0570 
 274   0.0000      -0.144781        -3.9397 
 275   0.0000      -0.134383        -3.6567 
 276   0.0000      -0.129064        -3.5120 
 277   0.0000      -0.120446        -3.2775 
 278   0.0000      -0.113592        -3.0910 
 279   0.0000      -0.103192        -2.8080 
 280   0.0000      -0.099437        -2.7058 
 281   0.0000      -0.091988        -2.5031 
 282   0.0000      -0.086896        -2.3645 
 283   0.0000      -0.076437        -2.0799 
 284   0.0000      -0.073913        -2.0113 
 285   0.0000      -0.068693        -1.8692 
 286   0.0000      -0.058947        -1.6040 
 287   0.0000      -0.055419        -1.5080 
 288   0.0000      -0.049098        -1.3360 
 289   0.0000      -0.039856        -1.0845 
 290   0.0000      -0.035818        -0.9747 
 291   0.0000      -0.027882        -0.7587 
 292   0.0000      -0.023052        -0.6273 
 293   0.0000      -0.015533        -0.4227 
 294   0.0000      -0.009861        -0.2683 
 295   0.0000      -0.002351        -0.0640 
 296   0.0000       0.004609         0.1254 
 297   0.0000       0.013945         0.3795 
 298   0.0000       0.025292         0.6882 
 299   0.0000       0.031230         0.8498 
 300   0.0000       0.037829         1.0294 
 301   0.0000       0.042246         1.1496 
 302   0.0000       0.055850         1.5197 
 303   0.0000       0.057150         1.5551 
 304   0.0000       0.073359         1.9962 
 305   0.0000       0.082069         2.2332 
 306   0.0000       0.087290         2.3753 
 307   0.0000       0.098070         2.6686 
 308   0.0000       0.108954         2.9648 
 309   0.0000       0.114860         3.1255 
 310   0.0000       0.121735         3.3126 
 311   0.0000       0.136217         3.7066 
 312   0.0000       0.142640         3.8814 
 313   0.0000       0.154241         4.1971 
 314   0.0000       0.155950         4.2436 
 315   0.0000       0.165852         4.5131 
 316   0.0000       0.172344         4.6897 
 317   0.0000       0.198782         5.4091 
 318   0.0000       0.200222         5.4483 
 319   0.0000       0.204822         5.5735 
 320   0.0000       0.218125         5.9355 
 321   0.0000       0.232377         6.3233 
 322   0.0000       0.243035         6.6133 
 323   0.0000       0.249371         6.7857 
 324   0.0000       0.253862         6.9079 
 325   0.0000       0.268913         7.3175 
 326   0.0000       0.273896         7.4531 
 327   0.0000       0.290463         7.9039 
 328   0.0000       0.291407         7.9296 
 329   0.0000       0.294138         8.0039 
 330   0.0000       0.301753         8.2111 
 331   0.0000       0.315923         8.5967 
 332   0.0000       0.326428         8.8825 
 333   0.0000       0.342806         9.3282 
 334   0.0000       0.353787         9.6270 
 335   0.0000       0.368130        10.0173 
 336   0.0000       0.371378        10.1057 
 337   0.0000       0.382910        10.4195 
 338   0.0000       0.390337        10.6216 
 339   0.0000       0.394244        10.7279 
 340   0.0000       0.402665        10.9571 
 341   0.0000       0.418022        11.3750 
 342   0.0000       0.419963        11.4278 
 343   0.0000       0.457064        12.4374 
 344   0.0000       0.491200        13.3662 
 345   0.0000       0.499833        13.6012 
 346   0.0000       0.507532        13.8107 
 347   0.0000       0.518613        14.1122 
 348   0.0000       0.534869        14.5545 
 349   0.0000       0.554615        15.0918 
 350   0.0000       0.565357        15.3842 
 351   0.0000       0.592630        16.1263 
 352   0.0000       0.604807        16.4576 
 353   0.0000       0.623218        16.9586 
 354   0.0000       0.627018        17.0620 
 355   0.0000       0.650625        17.7044 
 356   0.0000       0.670345        18.2410 
 357   0.0000       0.677161        18.4265 
 358   0.0000       0.688660        18.7394 
 359   0.0000       0.697603        18.9827 
 360   0.0000       0.715685        19.4748 
 361   0.0000       0.726280        19.7631 
 362   0.0000       0.728589        19.8259 
 363   0.0000       0.740460        20.1489 
 364   0.0000       0.756728        20.5916 
 365   0.0000       0.774357        21.0713 
 366   0.0000       0.783527        21.3208 
 367   0.0000       0.791899        21.5487 
 368   0.0000       0.804960        21.9041 
 369   0.0000       0.809741        22.0342 
 370   0.0000       0.843242        22.9458 
 371   0.0000       0.855366        23.2757 
 372   0.0000       0.856212        23.2987 
 373   0.0000       0.874795        23.8044 
 374   0.0000       0.885437        24.0940 
 375   0.0000       0.891559        24.2605 
 376   0.0000       0.914865        24.8947 
 377   0.0000       0.924590        25.1594 
 378   0.0000       0.932283        25.3687 
 379   0.0000       0.950515        25.8648 
 380   0.0000       0.963448        26.2167 
 381   0.0000       0.981712        26.7137 
 382   0.0000       0.988856        26.9081 
 383   0.0000       0.997633        27.1470 
 384   0.0000       1.013953        27.5911 
 385   0.0000       1.019001        27.7284 
 386   0.0000       1.029801        28.0223 
 387   0.0000       1.049543        28.5595 
 388   0.0000       1.052816        28.6486 
 389   0.0000       1.069271        29.0963 
 390   0.0000       1.078455        29.3462 
 391   0.0000       1.094157        29.7735 
 392   0.0000       1.108042        30.1514 
 393   0.0000       1.114727        30.3333 
 394   0.0000       1.127339        30.6765 
 395   0.0000       1.131444        30.7881 
 396   0.0000       1.138890        30.9908 
 397   0.0000       1.147091        31.2139 
 398   0.0000       1.154442        31.4140 
 399   0.0000       1.160321        31.5739 
 400   0.0000       1.171672        31.8828 
 401   0.0000       1.184833        32.2409 
 402   0.0000       1.198124        32.6026 
 403   0.0000       1.201100        32.6836 
 404   0.0000       1.206282        32.8246 
 405   0.0000       1.212888        33.0044 
 406   0.0000       1.227750        33.4088 
 407   0.0000       1.238674        33.7060 
 408   0.0000       1.243822        33.8461 
 409   0.0000       1.246392        33.9161 
 410   0.0000       1.260300        34.2945 
 411   0.0000       1.266793        34.4712 
 412   0.0000       1.285023        34.9673 
 413   0.0000       1.300060        35.3764 
 414   0.0000       1.318630        35.8818 
 415   0.0000       1.325289        36.0629 
 416   0.0000       1.333724        36.2925 
 417   0.0000       1.336415        36.3657 
 418   0.0000       1.344362        36.5820 
 419   0.0000       1.357111        36.9289 
 420   0.0000       1.360428        37.0191 
 421   0.0000       1.377748        37.4904 
 422   0.0000       1.379696        37.5434 
 423   0.0000       1.387156        37.7464 
 424   0.0000       1.400540        38.1106 
 425   0.0000       1.411629        38.4124 
 426   0.0000       1.415150        38.5082 
 427   0.0000       1.424220        38.7550 
 428   0.0000       1.439803        39.1790 
 429   0.0000       1.446525        39.3620 
 430   0.0000       1.455497        39.6061 
 431   0.0000       1.460525        39.7429 
 432   0.0000       1.468850        39.9694 
 433   0.0000       1.480609        40.2894 
 434   0.0000       1.483873        40.3782 
 435   0.0000       1.488954        40.5165 
 436   0.0000       1.493718        40.6461 
 437   0.0000       1.497734        40.7554 
 438   0.0000       1.502445        40.8836 
 439   0.0000       1.507041        41.0087 
 440   0.0000       1.524368        41.4802 
 441   0.0000       1.526776        41.5457 
 442   0.0000       1.537934        41.8493 
 443   0.0000       1.540422        41.9170 
 444   0.0000       1.543023        41.9878 
 445   0.0000       1.553437        42.2712 
 446   0.0000       1.562014        42.5046 
 447   0.0000       1.570166        42.7264 
 448   0.0000       1.574734        42.8507 
 449   0.0000       1.582548        43.0633 
 450   0.0000       1.596689        43.4481 
 451   0.0000       1.600421        43.5497 
 452   0.0000       1.616001        43.9736 
 453   0.0000       1.622512        44.1508 
 454   0.0000       1.625472        44.2314 
 455   0.0000       1.637653        44.5628 
 456   0.0000       1.638971        44.5987 
 457   0.0000       1.648146        44.8483 
 458   0.0000       1.656509        45.0759 
 459   0.0000       1.664035        45.2807 
 460   0.0000       1.672626        45.5145 
 461   0.0000       1.678201        45.6662 
 462   0.0000       1.683097        45.7994 
 463   0.0000       1.686921        45.9035 
 464   0.0000       1.693762        46.0896 
 465   0.0000       1.702345        46.3232 
 466   0.0000       1.711132        46.5623 
 467   0.0000       1.718891        46.7734 
 468   0.0000       1.722300        46.8662 
 469   0.0000       1.734199        47.1899 
 470   0.0000       1.737278        47.2737 
 471   0.0000       1.738875        47.3172 
 472   0.0000       1.748259        47.5726 
 473   0.0000       1.754016        47.7292 
 474   0.0000       1.756234        47.7896 
 475   0.0000       1.772184        48.2236 
 476   0.0000       1.778796        48.4035 
 477   0.0000       1.782671        48.5089 
 478   0.0000       1.784518        48.5592 
 479   0.0000       1.794902        48.8418 
 480   0.0000       1.798880        48.9500 
 481   0.0000       1.801481        49.0208 
 482   0.0000       1.806811        49.1658 
 483   0.0000       1.811846        49.3028 
 484   0.0000       1.818816        49.4925 
 485   0.0000       1.821714        49.5714 
 486   0.0000       1.825035        49.6617 
 487   0.0000       1.827017        49.7156 
 488   0.0000       1.831457        49.8365 
 489   0.0000       1.841196        50.1015 
 490   0.0000       1.848686        50.3053 
 491   0.0000       1.850522        50.3553 
 492   0.0000       1.856992        50.5313 
 493   0.0000       1.866949        50.8023 
 494   0.0000       1.872977        50.9663 
 495   0.0000       1.876524        51.0628 
 496   0.0000       1.890353        51.4391 
 497   0.0000       1.892794        51.5056 
 498   0.0000       1.899848        51.6975 
 499   0.0000       1.907006        51.8923 
 500   0.0000       1.920815        52.2680 
 501   0.0000       1.928332        52.4726 
 502   0.0000       1.940300        52.7983 
 503   0.0000       1.942811        52.8666 
 504   0.0000       1.950608        53.0787 
 505   0.0000       1.956169        53.2301 
 506   0.0000       1.964415        53.4545 
 507   0.0000       1.973508        53.7019 
 508   0.0000       1.975157        53.7468 
 509   0.0000       1.981649        53.9234 
 510   0.0000       1.986508        54.0556 
 511   0.0000       1.997378        54.3514 
 512   0.0000       2.000265        54.4300 
 513   0.0000       2.005464        54.5715 
 514   0.0000       2.013270        54.7839 
 515   0.0000       2.019872        54.9635 
 516   0.0000       2.025575        55.1187 
 517   0.0000       2.036492        55.4158 
 518   0.0000       2.042809        55.5877 
 519   0.0000       2.050229        55.7896 
 520   0.0000       2.052405        55.8488 
 521   0.0000       2.055952        55.9453 
 522   0.0000       2.069243        56.3070 
 523   0.0000       2.072669        56.4002 
 524   0.0000       2.079551        56.5875 
 525   0.0000       2.086833        56.7856 
 526   0.0000       2.088185        56.8224 
 527   0.0000       2.093956        56.9794 
 528   0.0000       2.101397        57.1819 
 529   0.0000       2.104925        57.2779 
 530   0.0000       2.107781        57.3556 
 531   0.0000       2.117327        57.6154 
 532   0.0000       2.120820        57.7105 
 533   0.0000       2.131094        57.9900 
 534   0.0000       2.143170        58.3186 
 535   0.0000       2.145677        58.3868 
 536   0.0000       2.156127        58.6712 
 537   0.0000       2.161260        58.8109 
 538   0.0000       2.167449        58.9793 
 539   0.0000       2.173977        59.1569 
 540   0.0000       2.180017        59.3213 
 541   0.0000       2.188373        59.5487 
 542   0.0000       2.196036        59.7572 
 543   0.0000       2.202992        59.9465 
 544   0.0000       2.208844        60.1057 
 545   0.0000       2.217787        60.3491 
 546   0.0000       2.222139        60.4675 
 547   0.0000       2.229375        60.6644 
 548   0.0000       2.233231        60.7693 
 549   0.0000       2.244084        61.0646 
 550   0.0000       2.263048        61.5807 
 551   0.0000       2.272701        61.8433 
 552   0.0000       2.280496        62.0554 
 553   0.0000       2.290114        62.3172 
 554   0.0000       2.292238        62.3750 
 555   0.0000       2.299826        62.5815 
 556   0.0000       2.308530        62.8183 
 557   0.0000       2.310918        62.8833 
 558   0.0000       2.317302        63.0570 
 559   0.0000       2.331602        63.4461 
 560   0.0000       2.336971        63.5922 
 561   0.0000       2.344815        63.8057 
 562   0.0000       2.351157        63.9782 
 563   0.0000       2.362818        64.2955 
 564   0.0000       2.365478        64.3679 
 565   0.0000       2.370073        64.4930 
 566   0.0000       2.392890        65.1139 
 567   0.0000       2.396380        65.2088 
 568   0.0000       2.400996        65.3344 
 569   0.0000       2.404939        65.4417 
 570   0.0000       2.418873        65.8209 
 571   0.0000       2.433040        66.2064 
 572   0.0000       2.443961        66.5036 
 573   0.0000       2.452433        66.7341 
 574   0.0000       2.457160        66.8627 
 575   0.0000       2.464478        67.0618 
 576   0.0000       2.467161        67.1349 
 577   0.0000       2.477009        67.4029 
 578   0.0000       2.489393        67.7398 
 579   0.0000       2.502228        68.0891 
 580   0.0000       2.515275        68.4441 
 581   0.0000       2.517893        68.5153 
 582   0.0000       2.522929        68.6524 
 583   0.0000       2.528756        68.8109 
 584   0.0000       2.531882        68.8960 
 585   0.0000       2.535056        68.9824 
 586   0.0000       2.552596        69.4597 
 587   0.0000       2.557402        69.5905 
 588   0.0000       2.559624        69.6509 
 589   0.0000       2.569814        69.9282 
 590   0.0000       2.572577        70.0034 
 591   0.0000       2.578155        70.1552 
 592   0.0000       2.587985        70.4227 
 593   0.0000       2.589272        70.4577 
 594   0.0000       2.589739        70.4704 
 595   0.0000       2.606955        70.9389 
 596   0.0000       2.608828        70.9898 
 597   0.0000       2.619707        71.2858 
 598   0.0000       2.636340        71.7385 
 599   0.0000       2.645227        71.9803 
 600   0.0000       2.654705        72.2382 
 601   0.0000       2.655848        72.2693 
 602   0.0000       2.665725        72.5381 
 603   0.0000       2.670433        72.6662 
 604   0.0000       2.673811        72.7581 
 605   0.0000       2.695737        73.3547 
 606   0.0000       2.696281        73.3695 
 607   0.0000       2.704329        73.5885 
 608   0.0000       2.712351        73.8068 
 609   0.0000       2.717485        73.9465 
 610   0.0000       2.729183        74.2648 
 611   0.0000       2.736006        74.4505 
 612   0.0000       2.756055        74.9961 
 613   0.0000       2.759511        75.0901 
 614   0.0000       2.767147        75.2979 
 615   0.0000       2.769759        75.3690 
 616   0.0000       2.786537        75.8255 
 617   0.0000       2.788603        75.8817 
 618   0.0000       2.794625        76.0456 
 619   0.0000       2.804144        76.3046 
 620   0.0000       2.821749        76.7837 
 621   0.0000       2.824188        76.8501 
 622   0.0000       2.835486        77.1575 
 623   0.0000       2.842516        77.3488 
 624   0.0000       2.847033        77.4717 
 625   0.0000       2.854420        77.6727 
 626   0.0000       2.865273        77.9680 
 627   0.0000       2.867293        78.0230 
 628   0.0000       2.875286        78.2405 
 629   0.0000       2.881711        78.4153 
 630   0.0000       2.890193        78.6461 
 631   0.0000       2.894229        78.7560 
 632   0.0000       2.903860        79.0181 
 633   0.0000       2.907525        79.1178 
 634   0.0000       2.913517        79.2808 
 635   0.0000       2.921109        79.4874 
 636   0.0000       2.938120        79.9503 
 637   0.0000       2.943290        80.0910 
 638   0.0000       2.951549        80.3157 
 639   0.0000       2.960331        80.5547 
 640   0.0000       2.961280        80.5805 
 641   0.0000       2.977150        81.0124 
 642   0.0000       2.983335        81.1807 
 643   0.0000       2.990620        81.3789 
 644   0.0000       2.998734        81.5997 
 645   0.0000       3.012021        81.9613 
 646   0.0000       3.021582        82.2214 
 647   0.0000       3.022580        82.2486 
 648   0.0000       3.027183        82.3738 
 649   0.0000       3.044088        82.8338 
 650   0.0000       3.050469        83.0075 
 651   0.0000       3.059625        83.2566 
 652   0.0000       3.069914        83.5366 
 653   0.0000       3.073723        83.6403 
 654   0.0000       3.077755        83.7500 
 655   0.0000       3.084363        83.9298 
 656   0.0000       3.094048        84.1933 
 657   0.0000       3.104256        84.4711 
 658   0.0000       3.125105        85.0384 
 659   0.0000       3.133571        85.2688 
 660   0.0000       3.143315        85.5339 
 661   0.0000       3.160984        86.0148 
 662   0.0000       3.172500        86.3281 
 663   0.0000       3.187829        86.7452 
 664   0.0000       3.197577        87.0105 
 665   0.0000       3.210431        87.3603 
 666   0.0000       3.218191        87.5714 
 667   0.0000       3.233709        87.9937 
 668   0.0000       3.248661        88.4006 
 669   0.0000       3.263713        88.8102 
 670   0.0000       3.282134        89.3114 
 671   0.0000       3.310581        90.0855 
 672   0.0000       3.344727        91.0146 
 673   0.0000       3.351641        91.2028 
 674   0.0000       3.362477        91.4977 
 675   0.0000       3.380847        91.9975 
 676   0.0000       3.390096        92.2492 
 677   0.0000       3.397057        92.4386 
 678   0.0000       3.420968        93.0893 
 679   0.0000       3.431914        93.3871 
 680   0.0000       3.434454        93.4562 
 681   0.0000       3.453382        93.9713 
 682   0.0000       3.474628        94.5494 
 683   0.0000       3.477746        94.6343 
 684   0.0000       3.492956        95.0482 
 685   0.0000       3.506424        95.4147 
 686   0.0000       3.522385        95.8490 
 687   0.0000       3.540324        96.3371 
 688   0.0000       3.546029        96.4924 
 689   0.0000       3.559156        96.8496 
 690   0.0000       3.565173        97.0133 
 691   0.0000       3.572718        97.2186 
 692   0.0000       3.579186        97.3946 
 693   0.0000       3.594599        97.8140 
 694   0.0000       3.599707        97.9530 
 695   0.0000       3.609475        98.2188 
 696   0.0000       3.613625        98.3317 
 697   0.0000       3.629836        98.7729 
 698   0.0000       3.638919        99.0200 
 699   0.0000       3.661041        99.6220 
 700   0.0000       3.669506        99.8523 
 701   0.0000       3.688507       100.3694 
 702   0.0000       3.693377       100.5019 
 703   0.0000       3.713146       101.0398 
 704   0.0000       3.717664       101.1628 
 705   0.0000       3.726750       101.4100 
 706   0.0000       3.751278       102.0775 
 707   0.0000       3.758974       102.2869 
 708   0.0000       3.764802       102.4455 
 709   0.0000       3.796049       103.2957 
 710   0.0000       3.802537       103.4723 
 711   0.0000       3.822510       104.0158 
 712   0.0000       3.833565       104.3166 
 713   0.0000       3.847520       104.6963 
 714   0.0000       3.858651       104.9992 
 715   0.0000       3.863398       105.1284 
 716   0.0000       3.868807       105.2756 
 717   0.0000       3.883601       105.6782 
 718   0.0000       3.895917       106.0133 
 719   0.0000       3.925728       106.8245 
 720   0.0000       3.934432       107.0613 
 721   0.0000       3.940233       107.2192 
 722   0.0000       3.968668       107.9929 
 723   0.0000       3.977627       108.2367 
 724   0.0000       3.985060       108.4390 
 725   0.0000       3.994537       108.6969 
 726   0.0000       4.002011       108.9002 
 727   0.0000       4.017097       109.3108 
 728   0.0000       4.044989       110.0698 
 729   0.0000       4.048606       110.1682 
 730   0.0000       4.066741       110.6616 
 731   0.0000       4.072258       110.8118 
 732   0.0000       4.076173       110.9183 
 733   0.0000       4.089374       111.2775 
 734   0.0000       4.112579       111.9090 
 735   0.0000       4.133710       112.4840 
 736   0.0000       4.142777       112.7307 
 737   0.0000       4.154763       113.0569 
 738   0.0000       4.162909       113.2785 
 739   0.0000       4.180360       113.7534 
 740   0.0000       4.188066       113.9631 
 741   0.0000       4.192901       114.0946 
 742   0.0000       4.204939       114.4222 
 743   0.0000       4.231597       115.1476 
 744   0.0000       4.236413       115.2787 
 745   0.0000       4.248718       115.6135 
 746   0.0000       4.262601       115.9913 
 747   0.0000       4.292912       116.8161 
 748   0.0000       4.299309       116.9902 
 749   0.0000       4.334399       117.9450 
 750   0.0000       4.348783       118.3364 
 751   0.0000       4.362410       118.7072 
 752   0.0000       4.369189       118.8917 
 753   0.0000       4.380554       119.2009 
 754   0.0000       4.397543       119.6632 
 755   0.0000       4.414285       120.1188 
 756   0.0000       4.436146       120.7137 
 757   0.0000       4.459993       121.3626 
 758   0.0000       4.478774       121.8736 
 759   0.0000       4.507815       122.6639 
 760   0.0000       4.512927       122.8030 
 761   0.0000       4.575552       124.5071 
 762   0.0000       4.576320       124.5280 
 763   0.0000       4.610760       125.4652 
 764   0.0000       4.627093       125.9096 
 765   0.0000       4.629887       125.9856 
 766   0.0000       4.712406       128.2311 
 767   0.0000       4.715391       128.3123 
 768   0.0000       4.726169       128.6056 
 769   0.0000       4.726613       128.6177 
 770   0.0000       4.737322       128.9091 
 771   0.0000       4.758266       129.4790 
 772   0.0000       4.787337       130.2701 
 773   0.0000       4.809035       130.8605 
 774   0.0000       4.847684       131.9122 
 775   0.0000       4.868412       132.4762 
 776   0.0000       4.911098       133.6378 
 777   0.0000       4.928089       134.1001 
 778   0.0000       4.991990       135.8389 
 779   0.0000       5.043057       137.2285 
 780   0.0000       5.075346       138.1072 
 781   0.0000       5.147093       140.0595 
 782   0.0000       5.163619       140.5092 
 783   0.0000       5.210808       141.7933 
 784   0.0000       5.217886       141.9859 
 785   0.0000       5.240619       142.6045 
 786   0.0000       5.303520       144.3161 
 787   0.0000       5.308513       144.4520 
 788   0.0000       5.325530       144.9150 
 789   0.0000       5.334408       145.1566 
 790   0.0000       5.448233       148.2540 
 791   0.0000       5.472823       148.9231 
 792   0.0000       5.481263       149.1527 
 793   0.0000       5.591744       152.1591 
 794   0.0000       5.616045       152.8204 
 795   0.0000       5.635125       153.3396 
 796   0.0000       5.673961       154.3963 
 797   0.0000       5.701419       155.1435 
 798   0.0000       5.709006       155.3499 
 799   0.0000       5.754159       156.5786 
 800   0.0000       5.878354       159.9581 
 801   0.0000       5.922520       161.1600 
 802   0.0000       5.951094       161.9375 
 803   0.0000       5.970273       162.4594 
 804   0.0000       6.111215       166.2946 
 805   0.0000       6.162486       167.6898 
 806   0.0000       6.274064       170.7260 
 807   0.0000       6.316307       171.8755 
 808   0.0000       6.403240       174.2410 
 809   0.0000       7.605561       206.9578 
 810   0.0000       7.889384       214.6810 
 811   0.0000       9.340125       254.1577 
 812   0.0000       9.947212       270.6774 
 813   0.0000      10.311533       280.5911 
 814   0.0000      10.648481       289.7599 
 815   0.0000      10.726406       291.8804 
 816   0.0000      11.243942       305.9632 
 817   0.0000      11.272691       306.7455 
 818   0.0000      11.558369       314.5192 
 819   0.0000      11.594116       315.4919 
 820   0.0000      11.786529       320.7278 
 821   0.0000      12.019887       327.0777 
 822   0.0000      12.176116       331.3290 
 823   0.0000      12.278012       334.1017 
 824   0.0000      12.323179       335.3308 
 825   0.0000      12.939547       352.1030 
 826   0.0000      13.202089       359.2471 
 827   0.0000      13.680420       372.2632 

                    ********************************
                    * MULLIKEN POPULATION ANALYSIS *
                    ********************************

-----------------------
MULLIKEN ATOMIC CHARGES
-----------------------
   0 C :   -0.290938
   1 C :    0.009832
   2 O :   -0.315649
   3 C :    0.496164
   4 O :   -0.573895
   5 C :   -0.216549
   6 C :    0.127153
   7 C :   -0.254371
   8 N :   -0.082473
   9 C :    0.262321
  10 S :   -0.612013
  11 N :   -0.194600
  12 C :    0.026234
  13 C :    0.059548
  14 C :   -0.262841
  15 C :   -0.136373
  16 C :   -0.295172
  17 C :    0.277842
  18 O :   -0.423794
  19 C :   -0.293560
  20 H :    0.092655
  21 H :    0.107649
  22 H :    0.113378
  23 H :    0.126196
  24 H :    0.125248
  25 H :    0.128741
  26 H :    0.127230
  27 H :    0.122930
  28 H :    0.254299
  29 H :    0.242156
  30 H :    0.183240
  31 H :    0.198108
  32 H :    0.192349
  33 H :    0.176769
  34 H :    0.320098
  35 H :    0.182085
Sum of atomic charges:   -0.0000000

--------------------------------
MULLIKEN REDUCED ORBITAL CHARGES
--------------------------------
  0 C s       :     3.266267  s :     3.266267
      pz      :     1.021609  p :     2.948991
      px      :     0.913161
      py      :     1.014221
      dz2     :     0.015137  d :     0.071124
      dxz     :     0.017882
      dyz     :     0.008259
      dx2y2   :     0.020136
      dxy     :     0.009708
      f0      :     0.000382  f :     0.004555
      f+1     :     0.001175
      f-1     :     0.000625
      f+2     :     0.000470
      f-2     :     0.000064
      f+3     :     0.000936
      f-3     :     0.000904
  1 C s       :     3.168710  s :     3.168710
      pz      :     0.868140  p :     2.657875
      px      :     0.868271
      py      :     0.921464
      dz2     :     0.031527  d :     0.151764
      dxz     :     0.034005
      dyz     :     0.027228
      dx2y2   :     0.032869
      dxy     :     0.026136
      f0      :     0.001577  f :     0.011818
      f+1     :     0.001694
      f-1     :     0.001589
      f+2     :     0.002161
      f-2     :     0.001676
      f+3     :     0.001396
      f-3     :     0.001725
  2 O s       :     3.698894  s :     3.698894
      pz      :     1.628418  p :     4.577243
      px      :     1.682976
      py      :     1.265849
      dz2     :     0.006696  d :     0.037038
      dxz     :     0.005635
      dyz     :     0.010194
      dx2y2   :     0.008935
      dxy     :     0.005578
      f0      :     0.000211  f :     0.002474
      f+1     :     0.000142
      f-1     :     0.000358
      f+2     :     0.000351
      f-2     :     0.000366
[...]
 15 C s       :     2.715897  s :     2.715897
      pz      :     0.810735  p :     2.796859
      px      :     1.007901
      py      :     0.978223
      dz2     :     0.028134  d :     0.411303
      dxz     :     0.083051
      dyz     :     0.028545
      dx2y2   :     0.125948
      dxy     :     0.145625
      f0      :     0.002044  f :     0.038840
      f+1     :     0.003329
      f-1     :     0.002571
      f+2     :     0.005363
      f-2     :     0.004348
      f+3     :     0.008655
      f-3     :     0.012531
 16 C s       :     2.712925  s :     2.712925
      pz      :     0.915697  p :     2.879632
      px      :     1.000439
      py      :     0.963496
      dz2     :     0.026855  d :     0.378504
      dxz     :     0.052923
      dyz     :     0.039840
      dx2y2   :     0.110240
      dxy     :     0.148646
      f0      :     0.002460  f :     0.038187
      f+1     :     0.003158
      f-1     :     0.002694
      f+2     :     0.005994
      f-2     :     0.002686
      f+3     :     0.008943
      f-3     :     0.012252
 17 C s       :     2.727207  s :     2.727207
      pz      :     0.813415  p :     2.680959
      px      :     0.828216
      py      :     1.039327
      dz2     :     0.045641  d :     0.673961
      dxz     :     0.142246
      dyz     :     0.082407
      dx2y2   :     0.201030
      dxy     :     0.202638
      f0      :     0.007109  f :     0.090820
      f+1     :     0.008415
      f-1     :     0.003930
      f+2     :     0.017166
      f-2     :     0.007205
      f+3     :     0.016322
      f-3     :     0.030673
 18 O s       :     3.180442  s :     3.180442
      pz      :     1.642481  p :     4.391646
      px      :     1.283334
      py      :     1.465831
      dz2     :     0.007752  d :     0.072670
      dxz     :     0.012909
      dyz     :     0.000896
      dx2y2   :     0.027614
      dxy     :     0.023498
      f0      :     0.000492  f :     0.004721
      f+1     :     0.000517
      f-1     :     0.000230
      f+2     :     0.000556
      f-2     :     0.000160
      f+3     :     0.001307
      f-3     :     0.001460
 19 C s       :     2.706525  s :     2.706525
      pz      :     0.915444  p :     2.874226
      px      :     0.994931
      py      :     0.963851
      dz2     :     0.028211  d :     0.379547
      dxz     :     0.063527
      dyz     :     0.026723
      dx2y2   :     0.119117
      dxy     :     0.141970
      f0      :     0.002188  f :     0.038615
      f+1     :     0.003572
      f-1     :     0.002744
      f+2     :     0.005005
      f-2     :     0.003914
      f+3     :     0.009379
      f-3     :     0.011814
 20 H s       :     0.846678  s :     0.846678
      pz      :     0.042130  p :     0.154745
      px      :     0.040163
      py      :     0.072452
      dz2     :     0.002920  d :     0.028115
      dxz     :     0.000365
      dyz     :     0.009149
      dx2y2   :     0.006890
      dxy     :     0.008792
 21 H s       :     0.837659  s :     0.837659
      pz      :     0.057870  p :     0.152888
      px      :     0.046306
      py      :     0.048712
      dz2     :     0.008273  d :     0.027808
      dxz     :     0.006112
      dyz     :     0.005618
      dx2y2   :     0.004771
      dxy     :     0.003036
 22 H s       :     0.847255  s :     0.847255
      pz      :     0.064224  p :     0.149196
      px      :     0.043439
      py      :     0.041533
      dz2     :     0.008348  d :     0.027147
      dxz     :     0.007451
      dyz     :     0.007048
      dx2y2   :     0.002527
      dxy     :     0.001773
 23 H s       :     0.851862  s :     0.851862
      pz      :     0.071784  p :     0.146460
      px      :     0.039851
      py      :     0.034824
      dz2     :     0.009118  d :     0.026846
      dxz     :     0.007690
      dyz     :     0.007138
      dx2y2   :     0.001895
      dxy     :     0.001006
 24 H s       :     0.843668  s :     0.843668
      pz      :     0.034318  p :     0.147141
      px      :     0.040078
      py      :     0.072745
      dz2     :     0.003577  d :     0.027493
      dxz     :     0.000890
      dyz     :     0.007308
      dx2y2   :     0.007148
      dxy     :     0.008571
 25 H s       :     0.830737  s :     0.830737
      pz      :     0.052399  p :     0.149297
      px      :     0.046738
      py      :     0.050160
      dz2     :     0.006564  d :     0.027396
      dxz     :     0.004817
      dyz     :     0.006209
      dx2y2   :     0.004676
      dxy     :     0.005129
 26 H s       :     0.824197  s :     0.824197
      pz      :     0.044870  p :     0.153994
      px      :     0.063652
      py      :     0.045472
      dz2     :     0.004463  d :     0.028036
      dxz     :     0.006707
      dyz     :     0.003231
      dx2y2   :     0.006073
      dxy     :     0.007561
 27 H s       :     0.828752  s :     0.828752
      pz      :     0.034681  p :     0.152528
      px      :     0.054045
      py      :     0.063802
      dz2     :     0.002508  d :     0.028067
      dxz     :     0.002945
      dyz     :     0.005910
      dx2y2   :     0.009506
      dxy     :     0.007198
 28 H s       :     0.707362  s :     0.707362
      pz      :     0.042940  p :     0.246546
      px      :     0.094276
      py      :     0.109330
      dz2     :     0.006646  d :     0.060318
      dxz     :     0.005526
      dyz     :     0.011327
      dx2y2   :     0.021090
      dxy     :     0.015728
 29 H s       :     0.722785  s :     0.722785
      pz      :     0.119265  p :     0.249144
      px      :     0.078301
      py      :     0.051577
      dz2     :     0.019566  d :     0.060562
      dxz     :     0.020570
      dyz     :     0.016558
      dx2y2   :     0.001814
      dxy     :     0.002054
 30 H s       :     0.824010  s :     0.824010
      pz      :     0.038159  p :     0.153588
      px      :     0.080150
      py      :     0.035279
      dz2     :     0.003122  d :     0.029156
      dxz     :     0.008372
      dyz     :     0.001070
      dx2y2   :     0.008362
      dxy     :     0.008230
 31 H s       :     0.839463  s :     0.839463
      pz      :     0.045141  p :     0.158546
      px      :     0.081062
      py      :     0.032344
      dz2     :     0.002609  d :     0.027615
      dxz     :     0.008075
      dyz     :     0.000302
      dx2y2   :     0.008156
      dxy     :     0.008474
 32 H s       :     0.835442  s :     0.835442
      pz      :     0.038827  p :     0.153478
      px      :     0.042459
      py      :     0.072192
      dz2     :     0.002506  d :     0.026839
      dxz     :     0.001578
      dyz     :     0.005753
      dx2y2   :     0.008589
      dxy     :     0.008414
 33 H s       :     0.835578  s :     0.835578
      pz      :     0.049292  p :     0.159797
      px      :     0.046132
      py      :     0.064374
      dz2     :     0.003038  d :     0.027736
      dxz     :     0.002954
      dyz     :     0.006077
      dx2y2   :     0.008244
      dxy     :     0.007424
 34 H s       :     0.673086  s :     0.673086
      pz      :     0.098122  p :     0.340360
      px      :     0.074406
      py      :     0.167832
      dz2     :     0.008089  d :     0.098405
      dxz     :     0.006618
      dyz     :     0.029383
      dx2y2   :     0.030292
      dxy     :     0.024023
 35 H s       :     0.838296  s :     0.838296
      pz      :     0.047793  p :     0.159453
      px      :     0.038398
      py      :     0.073262
      dz2     :     0.002690  d :     0.028013
      dxz     :     0.001522
      dyz     :     0.007544
      dx2y2   :     0.008130
      dxy     :     0.008127


                      *****************************
                      * MAYER POPULATION ANALYSIS *
                      *****************************

  NA   - Mulliken gross atomic population
  ZA   - Total nuclear charge
  QA   - Mulliken gross atomic charge
  VA   - Mayer's total valence
  BVA  - Mayer's bonded valence
  FA   - Mayer's free valence

  ATOM       NA         ZA         QA         VA         BVA        FA
  0 C      6.2909     6.0000    -0.2909     3.8748     3.8748    -0.0000
  1 C      5.9902     6.0000     0.0098     3.8112     3.8112    -0.0000
  2 O      8.3156     8.0000    -0.3156     2.0988     2.0988     0.0000
  3 C      5.5038     6.0000     0.4962     4.2794     4.2794    -0.0000
  4 O      8.5739     8.0000    -0.5739     1.9531     1.9531    -0.0000
  5 C      6.2165     6.0000    -0.2165     3.5863     3.5863     0.0000
  6 C      5.8728     6.0000     0.1272     3.8733     3.8733     0.0000
  7 C      6.2544     6.0000    -0.2544     3.8775     3.8775     0.0000
  8 N      7.0825     7.0000    -0.0825     3.4032     3.4032    -0.0000
  9 C      5.7377     6.0000     0.2623     4.1020     4.1020    -0.0000
 10 S     16.6120    16.0000    -0.6120     1.5361     1.5361    -0.0000
 11 N      7.1946     7.0000    -0.1946     3.3293     3.3293     0.0000
 12 C      5.9738     6.0000     0.0262     3.9184     3.9184    -0.0000
 13 C      5.9405     6.0000     0.0595     3.7050     3.7050     0.0000
 14 C      6.2628     6.0000    -0.2628     3.8330     3.8330    -0.0000
 15 C      6.1364     6.0000    -0.1364     3.7601     3.7601    -0.0000
 16 C      6.2952     6.0000    -0.2952     3.7814     3.7814     0.0000
 17 C      5.7222     6.0000     0.2778     3.9021     3.9021     0.0000
 18 O      8.4238     8.0000    -0.4238     2.0689     2.0689     0.0000
 19 C      6.2936     6.0000    -0.2936     3.8207     3.8207     0.0000
 20 H      0.9073     1.0000     0.0927     0.9896     0.9896    -0.0000
 21 H      0.8924     1.0000     0.1076     0.9833     0.9833    -0.0000
 22 H      0.8866     1.0000     0.1134     0.9837     0.9837    -0.0000
 23 H      0.8738     1.0000     0.1262     0.9899     0.9899     0.0000
 24 H      0.8748     1.0000     0.1252     0.9748     0.9748    -0.0000
 25 H      0.8713     1.0000     0.1287     0.9839     0.9839     0.0000
 26 H      0.8728     1.0000     0.1272     0.9798     0.9798    -0.0000
 27 H      0.8771     1.0000     0.1229     0.9865     0.9865     0.0000
 28 H      0.7457     1.0000     0.2543     0.9669     0.9669    -0.0000
 29 H      0.7578     1.0000     0.2422     0.9769     0.9769    -0.0000
 30 H      0.8168     1.0000     0.1832     0.9819     0.9819    -0.0000
 31 H      0.8019     1.0000     0.1981     0.9751     0.9751    -0.0000
 32 H      0.8077     1.0000     0.1923     0.9659     0.9659    -0.0000
 33 H      0.8232     1.0000     0.1768     0.9777     0.9777     0.0000
 34 H      0.6799     1.0000     0.3201     0.9442     0.9442     0.0000
 35 H      0.8179     1.0000     0.1821     0.9825     0.9825     0.0000

  Mayer bond orders larger than 0.100000
B(  0-C ,  1-C ) :   0.9571 B(  0-C , 20-H ) :   0.9773 B(  0-C , 21-H ) :   0.9750 
B(  0-C , 22-H ) :   0.9763 B(  1-C ,  2-O ) :   0.8754 B(  1-C , 23-H ) :   0.9763 
B(  1-C , 24-H ) :   0.9816 B(  2-O ,  3-C ) :   1.2377 B(  3-C ,  4-O ) :   1.8761 
B(  3-C ,  5-C ) :   1.1053 B(  5-C ,  6-C ) :   1.5832 B(  5-C , 12-C ) :   0.9564 
B(  6-C ,  7-C ) :   0.9645 B(  6-C ,  8-N ) :   1.2023 B(  7-C , 25-H ) :   0.9643 
B(  7-C , 26-H ) :   0.9566 B(  7-C , 27-H ) :   0.9832 B(  8-N ,  9-C ) :   1.2394 
B(  8-N , 28-H ) :   0.9218 B(  9-C , 10-S ) :   1.4017 B(  9-C , 11-N ) :   1.3830 
B( 11-N , 12-C ) :   0.9758 B( 11-N , 29-H ) :   0.9292 B( 12-C , 13-C ) :   0.9418 
B( 12-C , 30-H ) :   0.9929 B( 13-C , 14-C ) :   1.3685 B( 13-C , 19-C ) :   1.3658 
B( 14-C , 15-C ) :   1.3760 B( 14-C , 31-H ) :   0.9529 B( 15-C , 16-C ) :   1.3620 
B( 15-C , 32-H ) :   0.9599 B( 16-C , 17-C ) :   1.3457 B( 16-C , 33-H ) :   0.9681 
B( 17-C , 18-O ) :   1.1140 B( 17-C , 19-C ) :   1.3634 B( 18-O , 34-H ) :   0.9199 
B( 19-C , 35-H ) :   0.9490 

-------
TIMINGS
-------

Total SCF time: 0 days 1 hours 53 min 12 sec 

Total time                  ....    6792.984 sec
Sum of individual times     ....    6789.306 sec  ( 99.9%)

Fock matrix formation       ....    6776.360 sec  ( 99.8%)
Diagonalization             ....       1.425 sec  (  0.0%)
Density matrix formation    ....       0.188 sec  (  0.0%)
Population analysis         ....       0.237 sec  (  0.0%)
Initial guess               ....       6.001 sec  (  0.1%)
Orbital Transformation      ....       0.000 sec  (  0.0%)
Orbital Orthonormalization  ....       0.000 sec  (  0.0%)
DIIS solution               ....       1.615 sec  (  0.0%)
SOSCF solution              ....       2.080 sec  (  0.0%)

Maximum memory used throughout the entire SCF-calculation: 721.7 MB

------------------------------------------------------------------------------
                                ORCA  MP2 
------------------------------------------------------------------------------

Freezing NCore=48 chemical core electrons

-------------
RI-MP2 ENERGY
-------------
Dimension of the basis                    ...  828
Memory devoted to MP2                     ...  256 MB   
Data format for buffers                   ... DOUBLE
Compression type for matrix containers    ... UNCOMPRESSED
Overall scaling of the MP2 energy         ...   1.000e+00
Calculating two index integrals           ... done (    0.044 sec)
Cholesky decomposition of V**-1           ... done (    0.563 sec)

-----------------
RI-TRANSFORMATION (AUX index driven)
-----------------

Dimension of the orbital-basis         ... 828
Dimension of the aux-basis             ... 2141
Transformation of internal/external MOs...   24-  76 to   77- 827
Number Format for Storage              ... Double (8 Byte)
Integral mode                          ... Direct

First Phase: integral generation and transformation of MO indices
  Aux angular momentum 0               ... done (    4.841 sec)
  Aux angular momentum 1               ... done (    8.230 sec)
  Aux angular momentum 2               ... done (   10.806 sec)
  Aux angular momentum 3               ... done (    8.599 sec)
  Aux angular momentum 4               ... done (    2.980 sec)
Closing buffer VIA ( 0.63 GB; CompressionRatio= 1.00)
  Phase 1 completed in    35.623 sec
Second Phase: sorting and transformation of aux index

IA-Transformation
Memory available                       ... 158 MB 
Max. # MO pairs treated in a batch     ... 11    
# of internal orbitals                 ... 53
# batches for internal orbitals        ... 5
Closing buffer IAV ( 0.63 GB; CompressionRatio= 1.00)
(ia|v) transformation done in    18.112 sec

  Phase 2 completed in    18.120 sec
RI-Integral transformation completed in    53.748 sec
Opening buffers                              ... done

Starting loop over batches of integrals:

Operator 0  - window                       ... ( 24- 76)x( 77-827)
Operator 0  - Memory available             ...   256 MB
Operator 0  - Memory needed per MO         ...  12.3 MB
Operator 0  - Number of orbitals per batch ... 13
Operator 0  - Number of batches            ... 5

OPERATOR  0   PASS   0:  MOs    24 ...   36
  Reading integrals       ... ok
  Internal MO  26
  Internal MO  29
  Internal MO  32
  Internal MO  35
OPERATOR  0   PASS   1:  MOs    37 ...   49
  Reading integrals       ... ok
  Internal MO  38
  Internal MO  41
  Internal MO  44
  Internal MO  47
OPERATOR  0   PASS   2:  MOs    50 ...   62
  Reading integrals       ... ok
  Internal MO  50
  Internal MO  53
  Internal MO  56
  Internal MO  59
  Internal MO  62
OPERATOR  0   PASS   3:  MOs    63 ...   75
  Reading integrals       ... ok
  Internal MO  65
  Internal MO  68
  Internal MO  71
  Internal MO  74
OPERATOR  0   PASS   4:  MOs    76 ...   76
  Reading integrals       ... ok
Time spent in pair loops =    93.024 sec
Deleting buffer (Ka|jb)[aa] ...done

-----------------------------------------------
 RI-MP2 CORRELATION ENERGY:     -3.525135185 Eh
-----------------------------------------------


-------
TIMINGS
-------

Total time                :  147.474 sec
Integral trafo            :   53.768 sec ( 36.5%)
I/O of integrals          :    0.829 sec (  0.6%)
K(i,j) Operators          :   65.079 sec ( 44.1%)
T(i,j) pair energies      :    9.317 sec (  6.3%)
V-calculation             :    0.044 sec (  0.0%)
V**(-1/2)                 :    0.563 sec (  0.4%)
Gamma(ia|P)               :    0.000 sec (  0.0%)
Gamma-Trafo               :    0.000 sec (  0.0%)
D(virtual)                :    0.000 sec (  0.0%)
D(internal)               :    0.000 sec (  0.0%)
W(virtual)                :    0.000 sec (  0.0%)
W(internal)               :    0.000 sec (  0.0%)
L(virtual)                :    0.000 sec (  0.0%)
L(internal)               :    0.000 sec (  0.0%)
G(D)                      :    0.000 sec (  0.0%)
G(Z)                      :    0.000 sec (  0.0%)
Z-Vector Solution         :    0.000 sec (  0.0%)
3-Index Derivative        :    0.000 sec (  0.0%)
2-Index Derivative        :    0.000 sec (  0.0%)
Separable Gradient        :    0.000 sec (  0.0%)


---------------------------------------
MP2 TOTAL ENERGY:    -1274.419259836 Eh
---------------------------------------

Maximum memory used throughout the entire MP2-calculation: 303.1 MB

-------------------------   --------------------
FINAL SINGLE POINT ENERGY     -1274.419259835510
-------------------------   --------------------


                            ***************************************
                            *     ORCA property calculations      *
                            ***************************************


  WARNING: The energy has been calculated at the MP2 level but the densities
           used in the property calculations are still SCF densities
           MP2 response densities have not been calculated 
           use %mp2 Density relaxed end
           or  %mp2 Density unrelaxed end

                                    ---------------------
                                    Active property flags
                                    ---------------------
   (+) Dipole Moment


------------------------------------------------------------------------------
                       ORCA ELECTRIC PROPERTIES CALCULATION
------------------------------------------------------------------------------

Dipole Moment Calculation                       ... on
Quadrupole Moment Calculation                   ... off
Polarizability Calculation                      ... off
GBWName                                         ... qm_input.solv.gbw
Electron density file                           ... qm_input.solv.scfp
The origin for moment calculation is the CENTER OF MASS  = (-16.161069, 28.445813 -12.559263)

-------------
DIPOLE MOMENT
-------------
                                X             Y             Z
Electronic contribution:     -8.45140       7.71406      11.25408
Nuclear contribution   :      8.87618     -10.26474     -12.33479
                        -----------------------------------------
Total Dipole Moment    :      0.42479      -2.55068      -1.08071
                        -----------------------------------------
Magnitude (a.u.)       :      2.80256
Magnitude (Debye)      :      7.12355



--------------------
Rotational spectrum 
--------------------
 
Rotational constants in cm-1:     0.010224     0.009084     0.005835 
Rotational constants in MHz :   306.520031   272.340793   174.916581 

 Dipole components along the rotational axes: 
x,y,z [a.u.] :     2.624558     0.975900    -0.116915 
x,y,z [Debye]:     6.671096     2.480541    -0.297174 

 

Timings for individual modules:

Sum of individual times         ...     7176.381 sec (= 119.606 min)
GTO integral calculation        ...      235.420 sec (=   3.924 min)   3.3 %
SCF iterations                  ...     6793.092 sec (= 113.218 min)  94.7 %
MP2 module                      ...      147.869 sec (=   2.464 min)   2.1 %
                             ****ORCA TERMINATED NORMALLY****
TOTAL RUN TIME: 0 days 1 hours 59 minutes 37 seconds 490 msec
