
                                        *****************
                                        * O   R   C   A *
                                        *****************

                                            #,                                       
                                            ###                                      
                                            ####                                     
                                            #####                                    
                                            ######                                   
                                           ########,                                 
                                     ,,################,,,,,                         
                               ,,#################################,,                 
                          ,,##########################################,,             
                       ,#########################################, ''#####,          
                    ,#############################################,,   '####,        
                  ,##################################################,,,,####,       
                ,###########''''           ''''###############################       
              ,#####''   ,,,,##########,,,,          '''####'''          '####       
            ,##' ,,,,###########################,,,                        '##       
           ' ,,###''''                  '''############,,,                           
         ,,##''                                '''############,,,,        ,,,,,,###''
      ,#''                                            '''#######################'''  
     '                                                          ''''####''''         
             ,#######,   #######,   ,#######,      ##                                
            ,#'     '#,  ##    ##  ,#'     '#,    #''#        ######   ,####,        
            ##       ##  ##   ,#'  ##            #'  '#       #        #'  '#        
            ##       ##  #######   ##           ,######,      #####,   #    #        
            '#,     ,#'  ##    ##  '#,     ,#' ,#      #,         ##   #,  ,#        
             '#######'   ##     ##  '#######'  #'      '#     #####' # '####'        



                  #######################################################
                  #                        -***-                        #
                  #          Department of theory and spectroscopy      #
                  #    Directorship and core code : Frank Neese         #
                  #        Max Planck Institute fuer Kohlenforschung    #
                  #                Kaiser Wilhelm Platz 1               #
                  #                 D-45470 Muelheim/Ruhr               #
                  #                      Germany                        #
                  #                                                     #
                  #                  All rights reserved                #
                  #                        -***-                        #
                  #######################################################


                         Program Version 5.0.0 -  RELEASE  -
                                (SVN: $Rev: 19529$)
                ($Date: 2021-06-28 11:36:33 +0200 (Mo, 28 Jun 2021) $)


 With contributions from (in alphabetic order):
   Daniel Aravena         : Magnetic Suceptibility
   Michael Atanasov       : Ab Initio Ligand Field Theory (pilot matlab implementation)
   Alexander A. Auer      : GIAO ZORA, VPT2 properties, NMR spectrum
   Ute Becker             : Parallelization
   Giovanni Bistoni       : ED, misc. LED, open-shell LED, HFLD
   Martin Brehm           : Molecular dynamics
   Dmytro Bykov           : SCF Hessian
   Vijay G. Chilkuri      : MRCI spin determinant printing, contributions to CSF-ICE
   Dipayan Datta          : RHF DLPNO-CCSD density
   Achintya Kumar Dutta   : EOM-CC, STEOM-CC
   Dmitry Ganyushin       : Spin-Orbit,Spin-Spin,Magnetic field MRCI
   Miquel Garcia          : C-PCM Hessian, Gaussian charge scheme
   Yang Guo               : DLPNO-NEVPT2, F12-NEVPT2, CIM, IAO-localization
   Andreas Hansen         : Spin unrestricted coupled pair/coupled cluster methods
   Benjamin Helmich-Paris : MC-RPA, TRAH-SCF, COSX integrals
   Lee Huntington         : MR-EOM, pCC
   Robert Izsak           : Overlap fitted RIJCOSX, COSX-SCS-MP3, EOM
   Marcus Kettner         : VPT2
   Christian Kollmar      : KDIIS, OOCD, Brueckner-CCSD(T), CCSD density, CASPT2, CASPT2-K
   Simone Kossmann        : Meta GGA functionals, TD-DFT gradient, OOMP2, MP2 Hessian
   Martin Krupicka        : Initial AUTO-CI
   Lucas Lang             : DCDCAS
   Marvin Lechner         : AUTO-CI (C++ implementation), FIC-MRCC
   Dagmar Lenk            : GEPOL surface, SMD
   Dimitrios Liakos       : Extrapolation schemes; Compound Job, initial MDCI parallelization
   Dimitrios Manganas     : Further ROCIS development; embedding schemes
   Dimitrios Pantazis     : SARC Basis sets
   Anastasios Papadopoulos: AUTO-CI, single reference methods and gradients
   Taras Petrenko         : DFT Hessian,TD-DFT gradient, ASA, ECA, R-Raman, ABS, FL, XAS/XES, NRVS
   Peter Pinski           : DLPNO-MP2, DLPNO-MP2 Gradient
   Christoph Reimann      : Effective Core Potentials
   Marius Retegan         : Local ZFS, SOC
   Christoph Riplinger    : Optimizer, TS searches, QM/MM, DLPNO-CCSD(T), (RO)-DLPNO pert. Triples
   Tobias Risthaus        : Range-separated hybrids, TD-DFT gradient, RPA, STAB
   Michael Roemelt        : Original ROCIS implementation
   Masaaki Saitow         : Open-shell DLPNO-CCSD energy and density
   Barbara Sandhoefer     : DKH picture change effects
   Avijit Sen             : IP-ROCIS
   Kantharuban Sivalingam : CASSCF convergence, NEVPT2, FIC-MRCI
   Bernardo de Souza      : ESD, SOC TD-DFT
   Georgi Stoychev        : AutoAux, RI-MP2 NMR
   Willem Van den Heuvel  : Paramagnetic NMR
   Boris Wezisla          : Elementary symmetry handling
   Frank Wennmohs         : Technical directorship


 We gratefully acknowledge several colleagues who have allowed us to
 interface, adapt or use parts of their codes:
   Stefan Grimme, W. Hujo, H. Kruse, P. Pracht,  : VdW corrections, initial TS optimization,
                  C. Bannwarth, S. Ehlert          DFT functionals, gCP, sTDA/sTD-DF
   Ed Valeev, F. Pavosevic, A. Kumar             : LibInt (2-el integral package), F12 methods
   Garnet Chan, S. Sharma, J. Yang, R. Olivares  : DMRG
   Ulf Ekstrom                                   : XCFun DFT Library
   Mihaly Kallay                                 : mrcc  (arbitrary order and MRCC methods)
   Jiri Pittner, Ondrej Demel                    : Mk-CCSD
   Frank Weinhold                                : gennbo (NPA and NBO analysis)
   Christopher J. Cramer and Donald G. Truhlar   : smd solvation model
   Lars Goerigk                                  : TD-DFT with DH, B97 family of functionals
   V. Asgeirsson, H. Jonsson                     : NEB implementation
   FAccTs GmbH                                   : IRC, NEB, NEB-TS, DLPNO-Multilevel, CI-OPT
                                                   MM, QMMM, 2- and 3-layer-ONIOM, Crystal-QMMM,
                                                   LR-CPCM, SF, NACMEs, symmetry and pop. for TD-DFT,
                                                   nearIR, NL-DFT gradient (VV10), updates on ESD,
                                                   ML-optimized integration grids
   S Lehtola, MJT Oliveira, MAL Marques          : LibXC Library
   Liviu Ungur et al                             : ANISO software


 Your calculation uses the libint2 library for the computation of 2-el integrals
 For citations please refer to: http://libint.valeyev.net

 Your ORCA version has been built with support for libXC version: 5.1.0
 For citations please refer to: https://tddft.org/programs/libxc/

 This ORCA versions uses:
   CBLAS   interface :  Fast vector & matrix operations
   LAPACKE interface :  Fast linear algebra routines
   SCALAPACK package :  Parallel linear algebra routines
   Shared memory     :  Shared parallel matrices
   BLAS/LAPACK       :  OpenBLAS 0.3.15  USE64BITINT DYNAMIC_ARCH NO_AFFINITY SkylakeX SINGLE_THREADED
        Core in use  :  SkylakeX
   Copyright (c) 2011-2014, The OpenBLAS Project


================================================================================

----- Orbital basis set information -----
Your calculation utilizes the basis: cc-pVTZ 
       H, B-Ne : Obtained from the ccRepo (grant-hill.group.shef.ac.uk/ccrepo) Feb. 2017
                 T. H. Dunning, Jr., J. Chem. Phys. 90, 1007 (1989)
            He : Obtained from the ccRepo (grant-hill.group.shef.ac.uk/ccrepo) Feb. 2017
                 D. E. Woon, T. H. Dunning, Jr., J. Chem. Phys. 100, 2975 (1994)
  Li-Be, Na-Mg : Obtained from the ccRepo (grant-hill.group.shef.ac.uk/ccrepo) Feb. 2017
                 B. P. Prascher, D. E. Woon, K. A. Peterson, T. H. Dunning, Jr., A. K. Wilson, Theor. Chem. Acc. 128, 69 (2011)
         Al-Ar : Obtained from the ccRepo (grant-hill.group.shef.ac.uk/ccrepo) Feb. 2017
                 D. E. Woon, T. H. Dunning, Jr., J. Chem. Phys. 98, 1358 (1993)
            Ca : Obtained from the Peterson Research Group Website (tyr0.chem.wsu.edu/~kipeters) Feb. 2017
                 J. Koput, K. A. Peterson, J. Phys. Chem. 106, 9595 (2002)
         Sc-Zn : Obtained from the ccRepo (grant-hill.group.shef.ac.uk/ccrepo) Feb. 2017
                 N. B. Balabanov, K. A. Peterson, J. Chem. Phys. 123, 064107 (2005)
                 N. B. Balabanov, K. A. Peterson, J. Chem. Phys. 125, 074110 (2006)
         Ga-Kr : Obtained from the ccRepo (grant-hill.group.shef.ac.uk/ccrepo) Feb. 2017
                 A. K. Wilson, D. E. Woon, K. A. Peterson, T. H. Dunning, Jr., J. Chem. Phys. 110, 7667 (1999)
             Y : Obtained from the ccRepo (grant-hill.group.shef.ac.uk/ccrepo) Feb. 2017
                 K. A. Peterson, D. Figgen, M. Dolg, H. Stoll, J. Chem. Phys. 126, 124101 (2007)
        Ag, Au : Obtained from the Peterson Research Group Website (tyr0.chem.wsu.edu/~kipeters) Feb. 2017
                 K. A. Peterson, C. Puzzarini, Theor. Chem. Acc. 114, 283 (2005)

----- AuxC basis set information -----
Your calculation utilizes the auxiliary basis: cc-pVTZ/C 
  Obtained from the EMSL Basis Set Exchange (bse.pnl.gov) Feb. 2017
  H-He, B-F, Al-Ar, Ga-Kr : F. Weigend, A. Kohn, C. Hattig, J. Chem. Phys. 116, 3175 (2002)
             Li-Be, Na-Mg : C. Haettig, Phys. Chem. Chem. Phys. 7, 59 (2005)
                       Ne : C. Haettig, Phys. Chem. Chem. Phys. 7, 59 (2005)
                            F. Weigend, A. Kohn, C. Hattig, J. Chem. Phys. 116, 3175 (2002)
                    Sc-Zn : J. G. Hill, J. A. Platts, J. Chem. Phys. 128, 044104 (2008)

================================================================================
                                        WARNINGS
                       Please study these warnings very carefully!
================================================================================


WARNING: No MP2 level density has been requested!
         To caclulate MP2 level properties use
         %mp2 Density relaxed end
         or
         %mp2 Density unrelaxed end

WARNING: Post HF methods need fully converged wavefunctions
  ===> : Setting SCFConvForced true
         You can overwrite this default with %scf ConvForced false 


INFO   : the flag for use of the SHARK integral package has been found!

================================================================================
                                       INPUT FILE
================================================================================
NAME = qm_input.vacu
|  1> ! RI-MP2 cc-pVTZ cc-pVTZ/c TightSCF KeepDens NoKeepInts
|  2> 
|  3> *xyz  0  1
|  4>     C     7.3924037    9.7197021    6.6428453
|  5>     C     7.0139244    8.3373151    7.2833935
|  6>     O     5.6872587    8.4242511    7.8376043
|  7>     C     5.4768998    9.3222357    8.8784883
|  8>     O     6.3773591    9.6959976    9.6315637
|  9>     C     4.0771528    9.4402870    9.2386889
| 10>     C     3.0148730    9.3285676    8.3619575
| 11>     C     3.1238201    9.1751963    6.8691716
| 12>     N     1.8163570    9.4761216    8.8797270
| 13>     C     1.4948382    9.8174626   10.1376334
| 14>     S    -0.0507742   10.1195802   10.7169363
| 15>     N     2.5621507   10.1678728   10.9419040
| 16>     C     3.8546547    9.5999974   10.7181838
| 17>     C     4.0569974    8.3468925   11.5594288
| 18>     C     3.2520864    7.2216731   11.3415428
| 19>     C     3.4555622    6.0103471   12.1371550
| 20>     C     4.6071679    5.8500275   13.0076670
| 21>     C     5.3831021    7.0242709   13.2737634
| 22>     O     6.5129859    6.9175313   13.9655946
| 23>     C     5.2263942    8.1865645   12.4215679
| 24>     H     7.7493605   10.4388412    7.3902516
| 25>     H     6.5617470   10.1480699    6.0686498
| 26>     H     8.2689959    9.6502175    5.9871414
| 27>     H     6.9747711    7.5944305    6.4773040
| 28>     H     7.7506815    7.9177116    7.9793184
| 29>     H     2.1969147    9.6488501    6.5232113
| 30>     H     3.2856199    8.1552798    6.4993327
| 31>     H     3.8922527    9.8043394    6.4034656
| 32>     H     1.0412939    9.1514976    8.3141628
| 33>     H     2.3112797   10.4541380   11.8805639
| 34>     H     4.5469937   10.4162433   10.9581817
| 35>     H     2.3968655    7.2688087   10.6738816
| 36>     H     2.7364396    5.2192333   11.9463735
| 37>     H     4.7290884    4.9077324   13.5336055
| 38>     H     7.0272797    7.7295093   13.8141925
| 39>     H     5.9909745    8.9464296   12.5535757
| 40> *
| 41> 
| 42>                          ****END OF INPUT****
================================================================================

                       ****************************
                       * Single Point Calculation *
                       ****************************

---------------------------------
CARTESIAN COORDINATES (ANGSTROEM)
---------------------------------
  C      7.392404    9.719702    6.642845
  C      7.013924    8.337315    7.283393
  O      5.687259    8.424251    7.837604
  C      5.476900    9.322236    8.878488
  O      6.377359    9.695998    9.631564
  C      4.077153    9.440287    9.238689
  C      3.014873    9.328568    8.361958
  C      3.123820    9.175196    6.869172
  N      1.816357    9.476122    8.879727
  C      1.494838    9.817463   10.137633
  S     -0.050774   10.119580   10.716936
  N      2.562151   10.167873   10.941904
  C      3.854655    9.599997   10.718184
  C      4.056997    8.346892   11.559429
  C      3.252086    7.221673   11.341543
  C      3.455562    6.010347   12.137155
  C      4.607168    5.850028   13.007667
  C      5.383102    7.024271   13.273763
  O      6.512986    6.917531   13.965595
  C      5.226394    8.186564   12.421568
  H      7.749360   10.438841    7.390252
  H      6.561747   10.148070    6.068650
  H      8.268996    9.650217    5.987141
  H      6.974771    7.594430    6.477304
  H      7.750681    7.917712    7.979318
  H      2.196915    9.648850    6.523211
  H      3.285620    8.155280    6.499333
  H      3.892253    9.804339    6.403466
  H      1.041294    9.151498    8.314163
  H      2.311280   10.454138   11.880564
  H      4.546994   10.416243   10.958182
  H      2.396866    7.268809   10.673882
  H      2.736440    5.219233   11.946373
  H      4.729088    4.907732   13.533606
  H      7.027280    7.729509   13.814193
  H      5.990975    8.946430   12.553576

----------------------------
CARTESIAN COORDINATES (A.U.)
----------------------------
  NO LB      ZA    FRAG     MASS         X           Y           Z
   0 C     6.0000    0    12.011   13.969618   18.367575   12.553158
   1 C     6.0000    0    12.011   13.254396   15.755242   13.763619
   2 O     8.0000    0    15.999   10.747361   15.919527   14.810926
   3 C     6.0000    0    12.011   10.349841   17.616472   16.777911
   4 O     8.0000    0    15.999   12.051462   18.322780   18.201018
   5 C     6.0000    0    12.011    7.704702   17.839557   17.458592
   6 C     6.0000    0    12.011    5.697284   17.628438   15.801810
   7 C     6.0000    0    12.011    5.903164   17.338608   12.980853
   8 N     7.0000    0    14.007    3.432417   17.907275   16.780252
   9 C     6.0000    0    12.011    2.824835   18.552316   19.157351
  10 S    16.0000    0    32.060   -0.095949   19.123235   20.252075
  11 N     7.0000    0    14.007    4.841763   19.214495   20.677202
  12 C     6.0000    0    12.011    7.284242   18.141366   20.254432
  13 C     6.0000    0    12.011    7.666614   15.773341   21.844155
  14 C     6.0000    0    12.011    6.145553   13.646984   21.432410
  15 C     6.0000    0    12.011    6.530066   11.357910   22.935899
  16 C     6.0000    0    12.011    8.706286   11.054950   24.580928
  17 C     6.0000    0    12.011   10.172589   13.273948   25.083778
  18 O     8.0000    0    15.999   12.307760   13.072240   26.391149
  19 C     6.0000    0    12.011    9.876454   15.470365   23.473361
  20 H     1.0000    0     1.008   14.644169   19.726551   13.965552
  21 H     1.0000    0     1.008   12.399905   19.177073   11.468086
  22 H     1.0000    0     1.008   15.626138   18.236268   11.314058
  23 H     1.0000    0     1.008   13.180407   14.351394   12.240331
  24 H     1.0000    0     1.008   14.646665   14.962307   15.078727
  25 H     1.0000    0     1.008    4.151567   18.233684   12.327083
  26 H     1.0000    0     1.008    6.208922   15.411245   12.281959
  27 H     1.0000    0     1.008    7.355292   18.527516   12.100796
  28 H     1.0000    0     1.008    1.967760   17.293824   15.711491
  29 H     1.0000    0     1.008    4.367686   19.755458   22.451012
  30 H     1.0000    0     1.008    8.592573   19.683847   20.707962
  31 H     1.0000    0     1.008    4.529419   13.736058   20.170713
  32 H     1.0000    0     1.008    5.171121    9.862922   22.575374
  33 H     1.0000    0     1.008    8.936682    9.274270   25.574808
  34 H     1.0000    0     1.008   13.279634   14.606656   26.105041
  35 H     1.0000    0     1.008   11.321301   16.906302   23.722820

--------------------------------
INTERNAL COORDINATES (ANGSTROEM)
--------------------------------
 C      0   0   0     0.000000000000     0.00000000     0.00000000
 C      1   0   0     1.569886108869     0.00000000     0.00000000
 O      2   1   0     1.440399027523   109.01983181     0.00000000
 C      3   2   1     1.390707269738   117.79220667   296.92239438
 O      4   3   2     1.231928353003   122.87938513   334.90842863
 C      4   3   2     1.450162834195   112.61096088   172.81582077
 C      6   4   3     1.381874649008   125.29794278   327.14927221
 C      7   6   4     1.504593622710   125.59484354   354.82092119
 N      7   6   4     1.313886616228   116.23940257   180.47038174
 C      9   7   6     1.342466583642   128.04467444     5.25934486
 S     10   9   7     1.678029971488   126.14708235   174.45246397
 N     10   9   7     1.381591285057   115.14659938     6.23073046
 C     12  10   9     1.429370416592   120.44260855   330.54414306
 C     13  12  10     1.522795983930   111.13807822   267.66120955
 C     14  13  12     1.400526588485   119.92236680    63.86919114
 C     15  14  13     1.463458865924   120.03449027   179.23295210
 C     16  15  14     1.452476920492   121.83155328   349.94232137
 C     17  16  15     1.432385681046   116.76613356    12.78664837
 O     18  17  16     1.329158061708   119.42955795   185.89734994
 C     18  17  16     1.449731336746   119.30681339   343.61034968
 H      1   2   3     1.096902629906   112.19400223    81.78252578
 H      1   2   3     1.096900176658   112.01822837   317.07893641
 H      1   2   3     1.096899995083   112.38276586   194.64433180
 H      2   1   3     1.096900538713   107.76587924   115.68315504
 H      2   1   3     1.096899989996   115.70798046   230.74761105
 H      8   7   6     1.096900210584   101.98867552   209.26733620
 H      8   7   6     1.096900020150   116.10282853    83.67901133
 H      8   7   6     1.096900988903   114.42447028   318.69820333
 H      9   7   6     1.012900002310   116.22986261   196.11505882
 H     12  10   9     1.012900010485   114.82264373   178.05659390
 H     13  12  10     1.096900019232   103.93707273   144.55321998
 H     15  14  13     1.086000014074   120.88819272   351.74165953
 H     16  15  14     1.085999971972   114.54381908   175.67021858
 H     17  16  15     1.085999985997   118.36134298   183.08739073
 H     19  18  17     0.972999990281   107.53639052   162.83357652
 H     20  18  17     1.086003712980   114.41905795   192.49663216

---------------------------
INTERNAL COORDINATES (A.U.)
---------------------------
 C      0   0   0     0.000000000000     0.00000000     0.00000000
 C      1   0   0     2.966654807210     0.00000000     0.00000000
 O      2   1   0     2.721959685585   109.01983181     0.00000000
 C      3   2   1     2.628055872258   117.79220667   296.92239438
 O      4   3   2     2.328007203789   122.87938513   334.90842863
 C      4   3   2     2.740410606220   112.61096088   172.81582077
 C      6   4   3     2.611364638033   125.29794278   327.14927221
 C      7   6   4     2.843269889767   125.59484354   354.82092119
 N      7   6   4     2.482885875695   116.23940257   180.47038174
 C      9   7   6     2.536894187024   128.04467444     5.25934486
 S     10   9   7     3.171017090624   126.14708235   174.45246397
 N     10   9   7     2.610829157770   115.14659938     6.23073046
 C     12  10   9     2.701118631288   120.44260855   330.54414306
 C     13  12  10     2.877667367462   111.13807822   267.66120955
 C     14  13  12     2.646611695512   119.92236680    63.86919114
 C     15  14  13     2.765536464855   120.03449027   179.23295210
 C     16  15  14     2.744783595570   121.83155328   349.94232137
 C     17  16  15     2.706816655328   116.76613356    12.78664837
 O     18  17  16     2.511744725322   119.42955795   185.89734994
 C     18  17  16     2.739595194214   119.30681339   343.61034968
 H      1   2   3     2.072845566100   112.19400223    81.78252578
 H      1   2   3     2.072840930133   112.01822837   317.07893641
 H      1   2   3     2.072840587007   112.38276586   194.64433180
 H      2   1   3     2.072841614318   107.76587924   115.68315504
 H      2   1   3     2.072840577393   115.70798046   230.74761105
 H      8   7   6     2.072840994245   101.98867552   209.26733620
 H      8   7   6     2.072840634377   116.10282853    83.67901133
 H      8   7   6     2.072842465054   114.42447028   318.69820333
 H      9   7   6     1.914103605414   116.22986261   196.11505882
 H     12  10   9     1.914103620862   114.82264373   178.05659390
 H     13  12  10     2.072840632642   103.93707273   144.55321998
 H     15  14  13     2.052242608035   120.88819272   351.74165953
 H     16  15  14     2.052242528473   114.54381908   175.67021858
 H     17  16  15     2.052242554978   118.36134298   183.08739073
 H     19  18  17     1.838703509939   107.53639052   162.83357652
 H     20  18  17     2.052249597954   114.41905795   192.49663216

---------------------
BASIS SET INFORMATION
---------------------
There are 5 groups of distinct atoms

 Group   1 Type C   : 18s5p2d1f contracted to 4s3p2d1f pattern {8811/311/11/1}
 Group   2 Type O   : 18s5p2d1f contracted to 4s3p2d1f pattern {8811/311/11/1}
 Group   3 Type N   : 18s5p2d1f contracted to 4s3p2d1f pattern {8811/311/11/1}
 Group   4 Type S   : 41s16p2d1f contracted to 5s4p2d1f pattern {13131311/7711/11/1}
 Group   5 Type H   : 5s2p1d contracted to 3s2p1d pattern {311/11/1}

Atom   0C    basis set group =>   1
Atom   1C    basis set group =>   1
Atom   2O    basis set group =>   2
Atom   3C    basis set group =>   1
Atom   4O    basis set group =>   2
Atom   5C    basis set group =>   1
Atom   6C    basis set group =>   1
Atom   7C    basis set group =>   1
Atom   8N    basis set group =>   3
Atom   9C    basis set group =>   1
Atom  10S    basis set group =>   4
Atom  11N    basis set group =>   3
Atom  12C    basis set group =>   1
Atom  13C    basis set group =>   1
Atom  14C    basis set group =>   1
Atom  15C    basis set group =>   1
Atom  16C    basis set group =>   1
Atom  17C    basis set group =>   1
Atom  18O    basis set group =>   2
Atom  19C    basis set group =>   1
Atom  20H    basis set group =>   5
Atom  21H    basis set group =>   5
Atom  22H    basis set group =>   5
Atom  23H    basis set group =>   5
Atom  24H    basis set group =>   5
Atom  25H    basis set group =>   5
Atom  26H    basis set group =>   5
Atom  27H    basis set group =>   5
Atom  28H    basis set group =>   5
Atom  29H    basis set group =>   5
Atom  30H    basis set group =>   5
Atom  31H    basis set group =>   5
Atom  32H    basis set group =>   5
Atom  33H    basis set group =>   5
Atom  34H    basis set group =>   5
Atom  35H    basis set group =>   5
---------------------------------
AUXILIARY/C BASIS SET INFORMATION
---------------------------------
There are 5 groups of distinct atoms

 Group   1 Type C   : 8s6p5d3f1g contracted to 8s6p5d3f1g pattern {11111111/111111/11111/111/1}
 Group   2 Type O   : 8s6p5d3f1g contracted to 8s6p5d3f1g pattern {11111111/111111/11111/111/1}
 Group   3 Type N   : 8s6p5d3f1g contracted to 8s6p5d3f1g pattern {11111111/111111/11111/111/1}
 Group   4 Type S   : 10s8p7d5f2g contracted to 10s8p7d5f2g pattern {1111111111/11111111/1111111/11111/11}
 Group   5 Type H   : 4s3p2d1f contracted to 4s3p2d1f pattern {1111/111/11/1}

Atom   0C    basis set group =>   1
Atom   1C    basis set group =>   1
Atom   2O    basis set group =>   2
Atom   3C    basis set group =>   1
Atom   4O    basis set group =>   2
Atom   5C    basis set group =>   1
Atom   6C    basis set group =>   1
Atom   7C    basis set group =>   1
Atom   8N    basis set group =>   3
Atom   9C    basis set group =>   1
Atom  10S    basis set group =>   4
Atom  11N    basis set group =>   3
Atom  12C    basis set group =>   1
Atom  13C    basis set group =>   1
Atom  14C    basis set group =>   1
Atom  15C    basis set group =>   1
Atom  16C    basis set group =>   1
Atom  17C    basis set group =>   1
Atom  18O    basis set group =>   2
Atom  19C    basis set group =>   1
Atom  20H    basis set group =>   5
Atom  21H    basis set group =>   5
Atom  22H    basis set group =>   5
Atom  23H    basis set group =>   5
Atom  24H    basis set group =>   5
Atom  25H    basis set group =>   5
Atom  26H    basis set group =>   5
Atom  27H    basis set group =>   5
Atom  28H    basis set group =>   5
Atom  29H    basis set group =>   5
Atom  30H    basis set group =>   5
Atom  31H    basis set group =>   5
Atom  32H    basis set group =>   5
Atom  33H    basis set group =>   5
Atom  34H    basis set group =>   5
Atom  35H    basis set group =>   5
------------------------------------------------------------------------------
                           ORCA GTO INTEGRAL CALCULATION
------------------------------------------------------------------------------
------------------------------------------------------------------------------
                   ___                                                        
                  /   \      - P O W E R E D   B Y -                         
                 /     \                                                     
                 |  |  |   _    _      __       _____    __    __             
                 |  |  |  | |  | |    /  \     |  _  \  |  |  /  |          
                  \  \/   | |  | |   /    \    | | | |  |  | /  /          
                 / \  \   | |__| |  /  /\  \   | |_| |  |  |/  /          
                |  |  |   |  __  | /  /__\  \  |    /   |      \           
                |  |  |   | |  | | |   __   |  |    \   |  |\   \          
                \     /   | |  | | |  |  |  |  | |\  \  |  | \   \       
                 \___/    |_|  |_| |__|  |__|  |_| \__\ |__|  \__/        
                                                                              
                      - O R C A' S   B I G   F R I E N D -                    
                                      &                                       
                       - I N T E G R A L  F E E D E R -                       
                                                                              
 v1 FN, 2020, v2 2021                                                         
------------------------------------------------------------------------------


Reading SHARK input file qm_input.vacu.SHARKINP.tmp ... ok
----------------------
SHARK INTEGRAL PACKAGE
----------------------

Number of atoms                             ...     36
Number of basis functions                   ...    828
Number of shells                            ...    298
Maximum angular momentum                    ...      3
Integral batch strategy                     ... SHARK/LIBINT Hybrid
RI-J (if used) integral strategy            ... SPLIT-RIJ (Revised 2003 algorithm where possible)
Printlevel                                  ...      1
Contraction scheme used                     ... SEGMENTED contraction
Coulomb Range Separation                    ... NOT USED
Exchange Range Separation                   ... NOT USED
Finite Nucleus Model                        ... NOT USED
Auxiliary Coulomb fitting basis             ... NOT available
Auxiliary J/K fitting basis                 ... NOT available
Auxiliary Correlation fitting basis         ... AVAILABLE
   # of basis functions in Aux-C            ...   2141
   # of shells in Aux-C                     ...    629
   Maximum angular momentum in Aux-C        ...      4
Auxiliary 'external' fitting basis          ... NOT available
Integral threshold                          ...     2.500000e-11
Primitive cut-off                           ...     2.500000e-12
Primitive pair pre-selection threshold      ...     2.500000e-12

Calculating pre-screening integrals         ... done (  0.6 sec) Dimension = 298
Organizing shell pair data                  ... done (  0.4 sec)
Shell pair information
Total number of shell pairs                 ...     44551
Shell pairs after pre-screening             ...     32458
Total number of primitive shell pairs       ...    234348
Primitive shell pairs kept                  ...     93883
          la=0 lb=0:   6498 shell pairs
          la=1 lb=0:   9039 shell pairs
          la=1 lb=1:   3191 shell pairs
          la=2 lb=0:   5181 shell pairs
          la=2 lb=1:   3547 shell pairs
          la=2 lb=2:   1004 shell pairs
          la=3 lb=0:   1865 shell pairs
          la=3 lb=1:   1280 shell pairs
          la=3 lb=2:    713 shell pairs
          la=3 lb=3:    140 shell pairs

Calculating one electron integrals          ... done (  0.3 sec)
Calculating RI/C V-Matrix + Cholesky decomp.... done (  0.4 sec)
Calculating Nuclear repulsion               ... done (  0.0 sec) ENN=   1691.588513358586 Eh

SHARK setup successfully completed in   2.1 seconds

Maximum memory used throughout the entire GTOINT-calculation: 483.0 MB
-------------------------------------------------------------------------------
                                 ORCA SCF
-------------------------------------------------------------------------------

------------
SCF SETTINGS
------------
Hamiltonian:
 Ab initio Hamiltonian  Method          .... Hartree-Fock(GTOs)


General Settings:
 Integral files         IntName         .... qm_input.vacu
 Hartree-Fock type      HFTyp           .... RHF
 Total Charge           Charge          ....    0
 Multiplicity           Mult            ....    1
 Number of Electrons    NEL             ....  154
 Basis Dimension        Dim             ....  828
 Nuclear Repulsion      ENuc            ....   1691.5885133586 Eh

Convergence Acceleration:
 DIIS                   CNVDIIS         .... on
   Start iteration      DIISMaxIt       ....    12
   Startup error        DIISStart       ....  0.200000
   # of expansion vecs  DIISMaxEq       ....     5
   Bias factor          DIISBfac        ....   1.050
   Max. coefficient     DIISMaxC        ....  10.000
 Trust-Rad. Augm. Hess. CNVTRAH         .... auto
   Auto Start mean grad. ratio tolernc. ....  1.125000
   Auto Start start iteration           ....    20
   Auto Start num. interpolation iter.  ....    10
   Max. Number of Micro iterations      ....    16
   Max. Number of Macro iterations      .... Maxiter - #DIIS iter
   Number of Davidson start vectors     ....     2
   Converg. threshold I  (grad. norm)   ....   1.000e-05
   Converg. threshold II (energy diff.) ....   1.000e-08
   Grad. Scal. Fac. for Micro threshold ....   0.100
   Minimum threshold for Micro iter.    ....   0.010
   NR start threshold (gradient norm)   ....   0.001
   Initial trust radius                 ....   0.400
   Minimum AH scaling param. (alpha)    ....   1.000
   Maximum AH scaling param. (alpha)    .... 1000.000
   Orbital update algorithm             .... Taylor
   White noise on init. David. guess    .... on
   Maximum white noise                  ....   0.010
   Quad. conv. algorithm                .... NR
 SOSCF                  CNVSOSCF        .... on
   Start iteration      SOSCFMaxIt      ....   150
   Startup grad/error   SOSCFStart      ....  0.003300
 Level Shifting         CNVShift        .... on
   Level shift para.    LevelShift      ....    0.2500
   Turn off err/grad.   ShiftErr        ....    0.0010
 Zerner damping         CNVZerner       .... off
 Static damping         CNVDamp         .... on
   Fraction old density DampFac         ....    0.7000
   Max. Damping (<1)    DampMax         ....    0.9800
   Min. Damping (>=0)   DampMin         ....    0.0000
   Turn off err/grad.   DampErr         ....    0.1000
 Fernandez-Rico         CNVRico         .... off

SCF Procedure:
 Maximum # iterations   MaxIter         ....   125
 SCF integral mode      SCFMode         .... Direct
   Integral package                     .... SHARK and LIBINT hybrid scheme
 Reset frequency        DirectResetFreq ....    20
 Integral Threshold     Thresh          ....  2.500e-11 Eh
 Primitive CutOff       TCut            ....  2.500e-12 Eh

Convergence Tolerance:
 Convergence Check Mode ConvCheckMode   .... Total+1el-Energy
 Convergence forced     ConvForced      .... 1
 Energy Change          TolE            ....  1.000e-08 Eh
 1-El. energy change                    ....  1.000e-05 Eh
 Orbital Gradient       TolG            ....  1.000e-05
 Orbital Rotation angle TolX            ....  1.000e-05
 DIIS Error             TolErr          ....  5.000e-07


Diagonalization of the overlap matrix:
Smallest eigenvalue                        ... 4.668e-05
Time for diagonalization                   ...    0.133 sec
Threshold for overlap eigenvalues          ... 1.000e-08
Number of eigenvalues below threshold      ... 0
Time for construction of square roots      ...    0.072 sec
Total time needed                          ...    0.208 sec

Time for model grid setup =    1.362 sec

------------------------------
INITIAL GUESS: MODEL POTENTIAL
------------------------------
Loading Hartree-Fock densities                     ... done
Calculating cut-offs                               ... done
Initializing the effective Hamiltonian             ... done
Setting up the integral package (SHARK)            ... done
Starting the Coulomb interaction                   ... done (   4.0 sec)
Reading the grid                                   ... done
Mapping shells                                     ... done
Starting the XC term evaluation                    ... done (   1.4 sec)
Transforming the Hamiltonian                       ... done (   0.0 sec)
Diagonalizing the Hamiltonian                      ... done (   0.1 sec)
Back transforming the eigenvectors                 ... done (   0.0 sec)
Now organizing SCF variables                       ... done
                      ------------------
                      INITIAL GUESS DONE (   6.9 sec)
                      ------------------
--------------
SCF ITERATIONS
--------------
ITER       Energy         Delta-E        Max-DP      RMS-DP      [F,P]     Damp
               ***  Starting incremental Fock matrix formation  ***
  0  -1269.9643410356   0.000000000000 0.04945961  0.00044346  0.3113138 0.7000
  1  -1270.2272942314  -0.262953195770 0.03613531  0.00036132  0.1833094 0.7000
                               ***Turning on DIIS***
  2  -1270.3916558475  -0.164361616099 0.02584181  0.00024319  0.1097688 0.7000
  3  -1272.5330053755  -2.141349527988 0.06302224  0.00053194  0.0829495 0.0000
  4  -1270.6992252539   1.833780121535 0.00805925  0.00010948  0.0083123 0.0000
  5  -1270.7576914891  -0.058466235203 0.00462794  0.00005636  0.0050972 0.0000
                      *** Initiating the SOSCF procedure ***
                           *** Shutting down DIIS ***
                      *** Re-Reading the Fockian *** 
                      *** Removing any level shift *** 
ITER      Energy       Delta-E        Grad      Rot      Max-DP    RMS-DP
  6  -1270.73522538   0.0224661097  0.001615  0.001615  0.001985  0.000029
               *** Restarting incremental Fock matrix formation ***
  7  -1270.74992827  -0.0147028916  0.000927  0.002455  0.001531  0.000018
  8  -1270.74999228  -0.0000640069  0.000467  0.003224  0.001734  0.000022
  9  -1270.75001960  -0.0000273181  0.000205  0.000358  0.000377  0.000005
 10  -1270.75002313  -0.0000035324  0.000067  0.000193  0.000147  0.000002
 11  -1270.75002352  -0.0000003964  0.000022  0.000142  0.000115  0.000001
 12  -1270.75002364  -0.0000001147  0.000010  0.000043  0.000039  0.000000
 13  -1270.75002365  -0.0000000079  0.000004  0.000011  0.000010  0.000000
                  ***Gradient check signals convergence***
              ***Rediagonalizing the Fockian in SOSCF/NRSCF***

               *****************************************************
               *                     SUCCESS                       *
               *           SCF CONVERGED AFTER  14 CYCLES          *
               *****************************************************


----------------
TOTAL SCF ENERGY
----------------

Total Energy       :        -1270.75002364 Eh          -34578.86610 eV

Components:
Nuclear Repulsion  :         1691.58851336 Eh           46030.46359 eV
Electronic Energy  :        -2962.33853700 Eh          -80609.32969 eV
One Electron Energy:        -5104.18842695 Eh         -138892.02823 eV
Two Electron Energy:         2141.84988995 Eh           58282.69854 eV

Virial components:
Potential Energy   :        -2539.55846112 Eh          -69104.89895 eV
Kinetic Energy     :         1268.80843747 Eh           34526.03285 eV
Virial Ratio       :            2.00153024


---------------
SCF CONVERGENCE
---------------

  Last Energy change         ...    4.6398e-09  Tolerance :   1.0000e-08
  Last MAX-Density change    ...    4.1683e-06  Tolerance :   1.0000e-07
  Last RMS-Density change    ...    4.8648e-08  Tolerance :   5.0000e-09
  Last Orbital Gradient      ...    1.4474e-06  Tolerance :   1.0000e-05
  Last Orbital Rotation      ...    5.2248e-06  Tolerance :   1.0000e-05

             **** THE GBW FILE WAS UPDATED (qm_input.vacu.gbw) ****
             **** DENSITY qm_input.vacu.scfp WAS UPDATED ****
             **** ENERGY FILE WAS UPDATED (qm_input.vacu.en.tmp) ****
             **** THE GBW FILE WAS UPDATED (qm_input.vacu.gbw) ****
             **** DENSITY qm_input.vacu.scfp WAS UPDATED ****
----------------
ORBITAL ENERGIES
----------------

  NO   OCC          E(Eh)            E(eV) 
   0   2.0000     -91.896074     -2500.6193 
   1   2.0000     -20.602890      -560.6331 
   2   2.0000     -20.594494      -560.4047 
   3   2.0000     -20.545579      -559.0736 
   4   2.0000     -15.641208      -425.6189 
   5   2.0000     -15.602488      -424.5653 
   6   2.0000     -11.390834      -309.9603 
   7   2.0000     -11.388290      -309.8911 
   8   2.0000     -11.334260      -308.4209 
   9   2.0000     -11.317597      -307.9675 
  10   2.0000     -11.301405      -307.5269 
  11   2.0000     -11.292280      -307.2786 
  12   2.0000     -11.265869      -306.5599 
  13   2.0000     -11.262938      -306.4801 
  14   2.0000     -11.260376      -306.4104 
  15   2.0000     -11.248725      -306.0934 
  16   2.0000     -11.247135      -306.0501 
  17   2.0000     -11.247117      -306.0496 
  18   2.0000     -11.240335      -305.8651 
  19   2.0000     -11.233176      -305.6703 
  20   2.0000      -8.900054      -242.1828 
  21   2.0000      -6.581482      -179.0912 
  22   2.0000      -6.579622      -179.0406 
  23   2.0000      -6.578990      -179.0234 
  24   2.0000      -1.443186       -39.2711 
  25   2.0000      -1.424545       -38.7638 
  26   2.0000      -1.375276       -37.4232 
  27   2.0000      -1.351653       -36.7803 
  28   2.0000      -1.258930       -34.2572 
  29   2.0000      -1.141333       -31.0572 
  30   2.0000      -1.114329       -30.3224 
  31   2.0000      -1.037504       -28.2319 
  32   2.0000      -1.033102       -28.1121 
  33   2.0000      -1.002117       -27.2690 
  34   2.0000      -0.990077       -26.9414 
  35   2.0000      -0.987747       -26.8780 
  36   2.0000      -0.923294       -25.1241 
  37   2.0000      -0.898664       -24.4539 
  38   2.0000      -0.871727       -23.7209 
  39   2.0000      -0.849461       -23.1150 
  40   2.0000      -0.830331       -22.5945 
  41   2.0000      -0.805491       -21.9185 
  42   2.0000      -0.750924       -20.4337 
  43   2.0000      -0.737575       -20.0704 
  44   2.0000      -0.731517       -19.9056 
  45   2.0000      -0.704826       -19.1793 
  46   2.0000      -0.686016       -18.6674 
  47   2.0000      -0.676360       -18.4047 
  48   2.0000      -0.666847       -18.1458 
  49   2.0000      -0.662376       -18.0242 
  50   2.0000      -0.652162       -17.7462 
  51   2.0000      -0.643206       -17.5025 
  52   2.0000      -0.641395       -17.4532 
  53   2.0000      -0.616570       -16.7777 
  54   2.0000      -0.605947       -16.4887 
  55   2.0000      -0.598569       -16.2879 
  56   2.0000      -0.590773       -16.0757 
  57   2.0000      -0.583822       -15.8866 
  58   2.0000      -0.577159       -15.7053 
  59   2.0000      -0.565964       -15.4007 
  60   2.0000      -0.556989       -15.1564 
  61   2.0000      -0.542900       -14.7731 
  62   2.0000      -0.531488       -14.4625 
  63   2.0000      -0.526566       -14.3286 
  64   2.0000      -0.520357       -14.1596 
  65   2.0000      -0.509983       -13.8773 
  66   2.0000      -0.498597       -13.5675 
  67   2.0000      -0.496197       -13.5022 
  68   2.0000      -0.472477       -12.8568 
  69   2.0000      -0.459428       -12.5017 
  70   2.0000      -0.455271       -12.3885 
  71   2.0000      -0.450652       -12.2629 
  72   2.0000      -0.351916        -9.5761 
  73   2.0000      -0.336115        -9.1462 
  74   2.0000      -0.329753        -8.9730 
  75   2.0000      -0.316293        -8.6068 
  76   2.0000      -0.305359        -8.3092 
  77   0.0000       0.062229         1.6933 
  78   0.0000       0.108835         2.9616 
  79   0.0000       0.116122         3.1598 
  80   0.0000       0.123897         3.3714 
  81   0.0000       0.137604         3.7444 
  82   0.0000       0.140780         3.8308 
  83   0.0000       0.149692         4.0733 
  84   0.0000       0.159306         4.3349 
  85   0.0000       0.160314         4.3624 
  86   0.0000       0.164935         4.4881 
  87   0.0000       0.171905         4.6778 
  88   0.0000       0.185842         5.0570 
  89   0.0000       0.196577         5.3491 
  90   0.0000       0.199820         5.4374 
  91   0.0000       0.203568         5.5394 
  92   0.0000       0.210740         5.7345 
  93   0.0000       0.217808         5.9269 
  94   0.0000       0.229750         6.2518 
  95   0.0000       0.240958         6.5568 
  96   0.0000       0.242731         6.6051 
  97   0.0000       0.249091         6.7781 
  98   0.0000       0.266859         7.2616 
  99   0.0000       0.275613         7.4998 
 100   0.0000       0.278744         7.5850 
 101   0.0000       0.288709         7.8562 
 102   0.0000       0.314836         8.5671 
 103   0.0000       0.329728         8.9724 
 104   0.0000       0.334986         9.1154 
 105   0.0000       0.337349         9.1797 
 106   0.0000       0.338648         9.2151 
 107   0.0000       0.347935         9.4678 
 108   0.0000       0.365627         9.9492 
 109   0.0000       0.370132        10.0718 
 110   0.0000       0.373977        10.1764 
 111   0.0000       0.378591        10.3020 
 112   0.0000       0.380943        10.3660 
 113   0.0000       0.398210        10.8358 
 114   0.0000       0.399914        10.8822 
 115   0.0000       0.406119        11.0511 
 116   0.0000       0.411279        11.1915 
 117   0.0000       0.417949        11.3730 
 118   0.0000       0.429751        11.6941 
 119   0.0000       0.431180        11.7330 
 120   0.0000       0.436964        11.8904 
 121   0.0000       0.446556        12.1514 
 122   0.0000       0.454568        12.3694 
 123   0.0000       0.458549        12.4777 
 124   0.0000       0.462212        12.5774 
 125   0.0000       0.471155        12.8208 
 126   0.0000       0.477690        12.9986 
 127   0.0000       0.487526        13.2663 
 128   0.0000       0.489692        13.3252 
 129   0.0000       0.497113        13.5271 
 130   0.0000       0.497509        13.5379 
 131   0.0000       0.503195        13.6926 
 132   0.0000       0.509956        13.8766 
 133   0.0000       0.517610        14.0849 
 134   0.0000       0.520879        14.1738 
 135   0.0000       0.528109        14.3706 
 136   0.0000       0.531340        14.4585 
 137   0.0000       0.536693        14.6042 
 138   0.0000       0.543712        14.7952 
 139   0.0000       0.549693        14.9579 
 140   0.0000       0.554768        15.0960 
 141   0.0000       0.561744        15.2858 
 142   0.0000       0.564600        15.3636 
 143   0.0000       0.570868        15.5341 
 144   0.0000       0.572458        15.5774 
 145   0.0000       0.574119        15.6226 
 146   0.0000       0.579993        15.7824 
 147   0.0000       0.586730        15.9657 
 148   0.0000       0.588287        16.0081 
 149   0.0000       0.591456        16.0943 
 150   0.0000       0.594072        16.1655 
 151   0.0000       0.598717        16.2919 
 152   0.0000       0.605425        16.4744 
 153   0.0000       0.607203        16.5228 
 154   0.0000       0.610092        16.6014 
 155   0.0000       0.617545        16.8043 
 156   0.0000       0.624657        16.9978 
 157   0.0000       0.627838        17.0844 
 158   0.0000       0.632536        17.2122 
 159   0.0000       0.638232        17.3672 
 160   0.0000       0.643521        17.5111 
 161   0.0000       0.650001        17.6874 
 162   0.0000       0.653404        17.7800 
 163   0.0000       0.657325        17.8867 
 164   0.0000       0.665929        18.1208 
 165   0.0000       0.669467        18.2171 
 166   0.0000       0.673676        18.3317 
 167   0.0000       0.679714        18.4959 
 168   0.0000       0.681238        18.5374 
 169   0.0000       0.691239        18.8096 
 170   0.0000       0.695594        18.9281 
 171   0.0000       0.702705        19.1216 
 172   0.0000       0.704972        19.1833 
 173   0.0000       0.714194        19.4342 
 174   0.0000       0.720999        19.6194 
 175   0.0000       0.724272        19.7084 
 176   0.0000       0.732772        19.9397 
 177   0.0000       0.738197        20.0873 
 178   0.0000       0.747485        20.3401 
 179   0.0000       0.752316        20.4716 
 180   0.0000       0.760728        20.7005 
 181   0.0000       0.768450        20.9106 
 182   0.0000       0.776725        21.1357 
 183   0.0000       0.784823        21.3561 
 184   0.0000       0.792500        21.5650 
 185   0.0000       0.803931        21.8761 
 186   0.0000       0.814039        22.1511 
 187   0.0000       0.824557        22.4373 
 188   0.0000       0.829367        22.5682 
 189   0.0000       0.831733        22.6326 
 190   0.0000       0.834552        22.7093 
 191   0.0000       0.850694        23.1485 
 192   0.0000       0.852015        23.1845 
 193   0.0000       0.863580        23.4992 
 194   0.0000       0.866914        23.5899 
 195   0.0000       0.870243        23.6805 
 196   0.0000       0.881828        23.9958 
 197   0.0000       0.893995        24.3268 
 198   0.0000       0.903149        24.5759 
 199   0.0000       0.904543        24.6139 
 200   0.0000       0.915156        24.9026 
 201   0.0000       0.925585        25.1865 
 202   0.0000       0.929031        25.2802 
 203   0.0000       0.929942        25.3050 
 204   0.0000       0.936626        25.4869 
 205   0.0000       0.946120        25.7452 
 206   0.0000       0.951970        25.9044 
 207   0.0000       0.954541        25.9744 
 208   0.0000       0.957245        26.0480 
 209   0.0000       0.966438        26.2981 
 210   0.0000       0.975086        26.5334 
 211   0.0000       0.980885        26.6912 
 212   0.0000       0.985360        26.8130 
 213   0.0000       0.995595        27.0915 
 214   0.0000       0.997596        27.1460 
 215   0.0000       1.010955        27.5095 
 216   0.0000       1.024464        27.8771 
 217   0.0000       1.029232        28.0068 
 218   0.0000       1.033231        28.1156 
 219   0.0000       1.037388        28.2288 
 220   0.0000       1.043067        28.3833 
 221   0.0000       1.048337        28.5267 
 222   0.0000       1.070282        29.1238 
 223   0.0000       1.075922        29.2773 
 224   0.0000       1.087286        29.5865 
 225   0.0000       1.089797        29.6549 
 226   0.0000       1.095940        29.8220 
 227   0.0000       1.099109        29.9083 
 228   0.0000       1.107715        30.1424 
 229   0.0000       1.122047        30.5325 
 230   0.0000       1.126637        30.6574 
 231   0.0000       1.140761        31.0417 
 232   0.0000       1.147456        31.2239 
 233   0.0000       1.152431        31.3592 
 234   0.0000       1.158722        31.5304 
 235   0.0000       1.169720        31.8297 
 236   0.0000       1.171984        31.8913 
 237   0.0000       1.177012        32.0281 
 238   0.0000       1.182387        32.1744 
 239   0.0000       1.199658        32.6443 
 240   0.0000       1.201017        32.6813 
 241   0.0000       1.203294        32.7433 
 242   0.0000       1.207687        32.8628 
 243   0.0000       1.217638        33.1336 
 244   0.0000       1.223432        33.2913 
 245   0.0000       1.225187        33.3390 
 246   0.0000       1.234668        33.5970 
 247   0.0000       1.240278        33.7497 
 248   0.0000       1.249194        33.9923 
 249   0.0000       1.257870        34.2284 
 250   0.0000       1.262138        34.3445 
 251   0.0000       1.265459        34.4349 
 252   0.0000       1.268724        34.5237 
 253   0.0000       1.285404        34.9776 
 254   0.0000       1.288756        35.0688 
 255   0.0000       1.298985        35.3472 
 256   0.0000       1.303863        35.4799 
 257   0.0000       1.315464        35.7956 
 258   0.0000       1.321240        35.9528 
 259   0.0000       1.326708        36.1016 
 260   0.0000       1.333645        36.2903 
 261   0.0000       1.336499        36.3680 
 262   0.0000       1.345523        36.6135 
 263   0.0000       1.351985        36.7894 
 264   0.0000       1.367473        37.2108 
 265   0.0000       1.374951        37.4143 
 266   0.0000       1.388954        37.7954 
 267   0.0000       1.394356        37.9424 
 268   0.0000       1.406102        38.2620 
 269   0.0000       1.414531        38.4913 
 270   0.0000       1.420194        38.6454 
 271   0.0000       1.425612        38.7929 
 272   0.0000       1.434904        39.0457 
 273   0.0000       1.437706        39.1220 
 274   0.0000       1.447071        39.3768 
 275   0.0000       1.449720        39.4489 
 276   0.0000       1.460590        39.7447 
 277   0.0000       1.465316        39.8733 
 278   0.0000       1.470124        40.0041 
 279   0.0000       1.480566        40.2882 
 280   0.0000       1.485028        40.4097 
 281   0.0000       1.490179        40.5498 
 282   0.0000       1.497863        40.7589 
 283   0.0000       1.504055        40.9274 
 284   0.0000       1.507289        41.0154 
 285   0.0000       1.522829        41.4383 
 286   0.0000       1.526410        41.5357 
 287   0.0000       1.532415        41.6991 
 288   0.0000       1.544172        42.0191 
 289   0.0000       1.551998        42.2320 
 290   0.0000       1.554613        42.3032 
 291   0.0000       1.561190        42.4821 
 292   0.0000       1.565224        42.5919 
 293   0.0000       1.578390        42.9502 
 294   0.0000       1.586402        43.1682 
 295   0.0000       1.589515        43.2529 
 296   0.0000       1.597024        43.4572 
 297   0.0000       1.610477        43.8233 
 298   0.0000       1.618892        44.0523 
 299   0.0000       1.619728        44.0750 
 300   0.0000       1.639862        44.6229 
 301   0.0000       1.644759        44.7562 
 302   0.0000       1.655903        45.0594 
 303   0.0000       1.659224        45.1498 
 304   0.0000       1.666163        45.3386 
 305   0.0000       1.677515        45.6475 
 306   0.0000       1.689904        45.9846 
 307   0.0000       1.692793        46.0632 
 308   0.0000       1.703281        46.3486 
 309   0.0000       1.709964        46.5305 
 310   0.0000       1.713394        46.6238 
 311   0.0000       1.733175        47.1621 
 312   0.0000       1.735514        47.2257 
 313   0.0000       1.740273        47.3552 
 314   0.0000       1.749583        47.6086 
 315   0.0000       1.762347        47.9559 
 316   0.0000       1.770216        48.1700 
 317   0.0000       1.777256        48.3616 
 318   0.0000       1.784811        48.5672 
 319   0.0000       1.790943        48.7340 
 320   0.0000       1.802155        49.0391 
 321   0.0000       1.823830        49.6289 
 322   0.0000       1.829405        49.7806 
 323   0.0000       1.836804        49.9820 
 324   0.0000       1.840852        50.0921 
 325   0.0000       1.865413        50.7605 
 326   0.0000       1.871205        50.9181 
 327   0.0000       1.881745        51.2049 
 328   0.0000       1.897595        51.6362 
 329   0.0000       1.900682        51.7202 
 330   0.0000       1.914983        52.1093 
 331   0.0000       1.922106        52.3032 
 332   0.0000       1.937219        52.7144 
 333   0.0000       1.947205        52.9861 
 334   0.0000       1.961100        53.3642 
 335   0.0000       1.975783        53.7638 
 336   0.0000       1.978612        53.8408 
 337   0.0000       1.989138        54.1272 
 338   0.0000       1.998914        54.3932 
 339   0.0000       2.017234        54.8917 
 340   0.0000       2.023846        55.0717 
 341   0.0000       2.033056        55.3223 
 342   0.0000       2.041975        55.5650 
 343   0.0000       2.057843        55.9968 
 344   0.0000       2.073066        56.4110 
 345   0.0000       2.088716        56.8369 
 346   0.0000       2.103821        57.2479 
 347   0.0000       2.129663        57.9511 
 348   0.0000       2.142844        58.3097 
 349   0.0000       2.150258        58.5115 
 350   0.0000       2.162209        58.8367 
 351   0.0000       2.187403        59.5223 
 352   0.0000       2.201982        59.9190 
 353   0.0000       2.204968        60.0002 
 354   0.0000       2.226667        60.5907 
 355   0.0000       2.237430        60.8836 
 356   0.0000       2.266783        61.6823 
 357   0.0000       2.281343        62.0785 
 358   0.0000       2.287797        62.2541 
 359   0.0000       2.292987        62.3953 
 360   0.0000       2.312447        62.9249 
 361   0.0000       2.318423        63.0875 
 362   0.0000       2.334036        63.5124 
 363   0.0000       2.350751        63.9672 
 364   0.0000       2.352306        64.0095 
 365   0.0000       2.376487        64.6675 
 366   0.0000       2.390594        65.0514 
 367   0.0000       2.394490        65.1574 
 368   0.0000       2.406493        65.4840 
 369   0.0000       2.416686        65.7614 
 370   0.0000       2.434800        66.2543 
 371   0.0000       2.450710        66.6872 
 372   0.0000       2.459736        66.9328 
 373   0.0000       2.462145        66.9984 
 374   0.0000       2.475313        67.3567 
 375   0.0000       2.506258        68.1987 
 376   0.0000       2.519263        68.5526 
 377   0.0000       2.531130        68.8756 
 378   0.0000       2.547524        69.3217 
 379   0.0000       2.565930        69.8225 
 380   0.0000       2.567282        69.8593 
 381   0.0000       2.576719        70.1161 
 382   0.0000       2.595231        70.6198 
 383   0.0000       2.599759        70.7430 
 384   0.0000       2.624367        71.4126 
 385   0.0000       2.626720        71.4767 
 386   0.0000       2.633552        71.6626 
 387   0.0000       2.643964        71.9459 
 388   0.0000       2.665151        72.5225 
 389   0.0000       2.682945        73.0066 
 390   0.0000       2.687846        73.1400 
 391   0.0000       2.691772        73.2469 
 392   0.0000       2.711310        73.7785 
 393   0.0000       2.715259        73.8860 
 394   0.0000       2.720340        74.0242 
 395   0.0000       2.739418        74.5434 
 396   0.0000       2.744560        74.6833 
 397   0.0000       2.755329        74.9763 
 398   0.0000       2.759978        75.1028 
 399   0.0000       2.765806        75.2614 
 400   0.0000       2.782965        75.7283 
 401   0.0000       2.787648        75.8558 
 402   0.0000       2.794071        76.0305 
 403   0.0000       2.799785        76.1860 
 404   0.0000       2.803656        76.2914 
 405   0.0000       2.825137        76.8759 
 406   0.0000       2.831346        77.0448 
 407   0.0000       2.832979        77.0893 
 408   0.0000       2.850682        77.5710 
 409   0.0000       2.859949        77.8232 
 410   0.0000       2.868132        78.0458 
 411   0.0000       2.872138        78.1549 
 412   0.0000       2.873769        78.1992 
 413   0.0000       2.889738        78.6338 
 414   0.0000       2.894803        78.7716 
 415   0.0000       2.904386        79.0324 
 416   0.0000       2.909496        79.1714 
 417   0.0000       2.918646        79.4204 
 418   0.0000       2.928028        79.6757 
 419   0.0000       2.938574        79.9627 
 420   0.0000       2.948126        80.2226 
 421   0.0000       2.954806        80.4044 
 422   0.0000       2.976434        80.9929 
 423   0.0000       2.983404        81.1826 
 424   0.0000       2.989028        81.3356 
 425   0.0000       3.002549        81.7035 
 426   0.0000       3.017728        82.1166 
 427   0.0000       3.023347        82.2694 
 428   0.0000       3.033408        82.5432 
 429   0.0000       3.036847        82.6368 
 430   0.0000       3.046263        82.8930 
 431   0.0000       3.047738        82.9332 
 432   0.0000       3.063434        83.3603 
 433   0.0000       3.068393        83.4952 
 434   0.0000       3.075952        83.7009 
 435   0.0000       3.089895        84.0803 
 436   0.0000       3.095873        84.2430 
 437   0.0000       3.104742        84.4843 
 438   0.0000       3.111873        84.6784 
 439   0.0000       3.114083        84.7385 
 440   0.0000       3.119408        84.8834 
 441   0.0000       3.128578        85.1329 
 442   0.0000       3.133742        85.2735 
 443   0.0000       3.141361        85.4808 
 444   0.0000       3.148924        85.6866 
 445   0.0000       3.154552        85.8397 
 446   0.0000       3.160465        86.0006 
 447   0.0000       3.177865        86.4741 
 448   0.0000       3.179561        86.5203 
 449   0.0000       3.186972        86.7219 
 450   0.0000       3.198536        87.0366 
 451   0.0000       3.201958        87.1297 
 452   0.0000       3.210300        87.3567 
 453   0.0000       3.221654        87.6657 
 454   0.0000       3.228675        87.8567 
 455   0.0000       3.232756        87.9678 
 456   0.0000       3.239905        88.1623 
 457   0.0000       3.246420        88.3396 
 458   0.0000       3.250464        88.4496 
 459   0.0000       3.254897        88.5702 
 460   0.0000       3.267559        88.9148 
 461   0.0000       3.275196        89.1226 
 462   0.0000       3.279404        89.2371 
 463   0.0000       3.282844        89.3307 
 464   0.0000       3.298400        89.7540 
 465   0.0000       3.303675        89.8976 
 466   0.0000       3.306850        89.9840 
 467   0.0000       3.314965        90.2048 
 468   0.0000       3.318140        90.2912 
 469   0.0000       3.327891        90.5565 
 470   0.0000       3.330662        90.6319 
 471   0.0000       3.338759        90.8522 
 472   0.0000       3.345677        91.0405 
 473   0.0000       3.356711        91.3407 
 474   0.0000       3.358665        91.3939 
 475   0.0000       3.363609        91.5284 
 476   0.0000       3.369642        91.6926 
 477   0.0000       3.375017        91.8389 
 478   0.0000       3.380681        91.9930 
 479   0.0000       3.381632        92.0189 
 480   0.0000       3.384805        92.1052 
 481   0.0000       3.391382        92.2842 
 482   0.0000       3.397250        92.4439 
 483   0.0000       3.412617        92.8620 
 484   0.0000       3.416331        92.9631 
 485   0.0000       3.421611        93.1068 
 486   0.0000       3.427245        93.2601 
 487   0.0000       3.434617        93.4607 
 488   0.0000       3.439813        93.6021 
 489   0.0000       3.445721        93.7628 
 490   0.0000       3.449699        93.8711 
 491   0.0000       3.453092        93.9634 
 492   0.0000       3.454407        93.9992 
 493   0.0000       3.471408        94.4618 
 494   0.0000       3.472942        94.5036 
 495   0.0000       3.479404        94.6794 
 496   0.0000       3.486059        94.8605 
 497   0.0000       3.491308        95.0033 
 498   0.0000       3.501403        95.2780 
 499   0.0000       3.506475        95.4160 
 500   0.0000       3.508835        95.4802 
 501   0.0000       3.512727        95.5862 
 502   0.0000       3.521811        95.8334 
 503   0.0000       3.525788        95.9416 
 504   0.0000       3.527663        95.9926 
 505   0.0000       3.545383        96.4748 
 506   0.0000       3.559230        96.8516 
 507   0.0000       3.563012        96.9545 
 508   0.0000       3.577281        97.3428 
 509   0.0000       3.578054        97.3638 
 510   0.0000       3.580698        97.4357 
 511   0.0000       3.590624        97.7059 
 512   0.0000       3.600552        97.9760 
 513   0.0000       3.604195        98.0751 
 514   0.0000       3.609247        98.2126 
 515   0.0000       3.616473        98.4092 
 516   0.0000       3.626236        98.6749 
 517   0.0000       3.629881        98.7741 
 518   0.0000       3.633858        98.8823 
 519   0.0000       3.641664        99.0947 
 520   0.0000       3.646731        99.2326 
 521   0.0000       3.651507        99.3625 
 522   0.0000       3.662215        99.6539 
 523   0.0000       3.665846        99.7527 
 524   0.0000       3.675541       100.0166 
 525   0.0000       3.684041       100.2479 
 526   0.0000       3.689323       100.3916 
 527   0.0000       3.698884       100.6518 
 528   0.0000       3.700945       100.7078 
 529   0.0000       3.704868       100.8146 
 530   0.0000       3.707747       100.8929 
 531   0.0000       3.712895       101.0330 
 532   0.0000       3.728908       101.4687 
 533   0.0000       3.735119       101.6378 
 534   0.0000       3.739203       101.7489 
 535   0.0000       3.742356       101.8347 
 536   0.0000       3.749671       102.0337 
 537   0.0000       3.758480       102.2734 
 538   0.0000       3.766451       102.4903 
 539   0.0000       3.771544       102.6289 
 540   0.0000       3.780145       102.8630 
 541   0.0000       3.783022       102.9413 
 542   0.0000       3.784009       102.9681 
 543   0.0000       3.793854       103.2360 
 544   0.0000       3.799938       103.4016 
 545   0.0000       3.805873       103.5631 
 546   0.0000       3.813719       103.7766 
 547   0.0000       3.824766       104.0772 
 548   0.0000       3.831033       104.2477 
 549   0.0000       3.840016       104.4922 
 550   0.0000       3.847991       104.7092 
 551   0.0000       3.852338       104.8274 
 552   0.0000       3.868755       105.2742 
 553   0.0000       3.873912       105.4145 
 554   0.0000       3.881835       105.6301 
 555   0.0000       3.889891       105.8493 
 556   0.0000       3.893927       105.9592 
 557   0.0000       3.900562       106.1397 
 558   0.0000       3.907542       106.3296 
 559   0.0000       3.912032       106.4518 
 560   0.0000       3.931603       106.9844 
 561   0.0000       3.939621       107.2025 
 562   0.0000       3.948662       107.4485 
 563   0.0000       3.954902       107.6184 
 564   0.0000       3.968188       107.9799 
 565   0.0000       3.980182       108.3062 
 566   0.0000       3.990173       108.5781 
 567   0.0000       3.993577       108.6708 
 568   0.0000       3.999404       108.8293 
 569   0.0000       4.004747       108.9747 
 570   0.0000       4.008351       109.0728 
 571   0.0000       4.016272       109.2883 
 572   0.0000       4.026226       109.5592 
 573   0.0000       4.027401       109.5912 
 574   0.0000       4.042784       110.0097 
 575   0.0000       4.048296       110.1597 
 576   0.0000       4.064765       110.6079 
 577   0.0000       4.071041       110.7787 
 578   0.0000       4.074475       110.8721 
 579   0.0000       4.076671       110.9319 
 580   0.0000       4.084695       111.1502 
 581   0.0000       4.094920       111.4284 
 582   0.0000       4.107512       111.7711 
 583   0.0000       4.118407       112.0675 
 584   0.0000       4.122136       112.1690 
 585   0.0000       4.127573       112.3170 
 586   0.0000       4.133769       112.4856 
 587   0.0000       4.141112       112.6854 
 588   0.0000       4.152954       113.0076 
 589   0.0000       4.158050       113.1463 
 590   0.0000       4.165399       113.3463 
 591   0.0000       4.172309       113.5343 
 592   0.0000       4.188257       113.9683 
 593   0.0000       4.191668       114.0611 
 594   0.0000       4.199648       114.2782 
 595   0.0000       4.207131       114.4818 
 596   0.0000       4.210042       114.5611 
 597   0.0000       4.221081       114.8615 
 598   0.0000       4.227395       115.0333 
 599   0.0000       4.238560       115.3371 
 600   0.0000       4.242470       115.4435 
 601   0.0000       4.249742       115.6414 
 602   0.0000       4.255981       115.8111 
 603   0.0000       4.275657       116.3466 
 604   0.0000       4.279961       116.4637 
 605   0.0000       4.287973       116.6817 
 606   0.0000       4.295822       116.8952 
 607   0.0000       4.305198       117.1504 
 608   0.0000       4.314655       117.4077 
 609   0.0000       4.320969       117.5795 
 610   0.0000       4.331091       117.8550 
 611   0.0000       4.333661       117.9249 
 612   0.0000       4.343578       118.1948 
 613   0.0000       4.348354       118.3247 
 614   0.0000       4.363517       118.7373 
 615   0.0000       4.374579       119.0383 
 616   0.0000       4.377438       119.1162 
 617   0.0000       4.381797       119.2348 
 618   0.0000       4.390546       119.4728 
 619   0.0000       4.399268       119.7102 
 620   0.0000       4.406705       119.9125 
 621   0.0000       4.416135       120.1691 
 622   0.0000       4.419817       120.2693 
 623   0.0000       4.429347       120.5287 
 624   0.0000       4.440688       120.8373 
 625   0.0000       4.441678       120.8642 
 626   0.0000       4.449524       121.0777 
 627   0.0000       4.456523       121.2681 
 628   0.0000       4.465377       121.5091 
 629   0.0000       4.468788       121.6019 
 630   0.0000       4.477954       121.8513 
 631   0.0000       4.491922       122.2314 
 632   0.0000       4.500945       122.4769 
 633   0.0000       4.506086       122.6168 
 634   0.0000       4.516994       122.9137 
 635   0.0000       4.519525       122.9825 
 636   0.0000       4.530081       123.2698 
 637   0.0000       4.532928       123.3473 
 638   0.0000       4.543592       123.6374 
 639   0.0000       4.553418       123.9048 
 640   0.0000       4.558383       124.0399 
 641   0.0000       4.566409       124.2583 
 642   0.0000       4.574460       124.4774 
 643   0.0000       4.579416       124.6122 
 644   0.0000       4.586850       124.8145 
 645   0.0000       4.606686       125.3543 
 646   0.0000       4.613122       125.5294 
 647   0.0000       4.617546       125.6498 
 648   0.0000       4.625625       125.8697 
 649   0.0000       4.633187       126.0754 
 650   0.0000       4.640078       126.2629 
 651   0.0000       4.653385       126.6251 
 652   0.0000       4.654565       126.6572 
 653   0.0000       4.662136       126.8632 
 654   0.0000       4.681670       127.3947 
 655   0.0000       4.698563       127.8544 
 656   0.0000       4.708030       128.1120 
 657   0.0000       4.714529       128.2888 
 658   0.0000       4.740894       129.0063 
 659   0.0000       4.748591       129.2157 
 660   0.0000       4.762206       129.5862 
 661   0.0000       4.769838       129.7939 
 662   0.0000       4.776474       129.9745 
 663   0.0000       4.780350       130.0799 
 664   0.0000       4.796246       130.5125 
 665   0.0000       4.819209       131.1373 
 666   0.0000       4.827569       131.3648 
 667   0.0000       4.850647       131.9928 
 668   0.0000       4.870134       132.5231 
 669   0.0000       4.892057       133.1196 
 670   0.0000       4.902096       133.3928 
 671   0.0000       4.915749       133.7643 
 672   0.0000       4.935141       134.2920 
 673   0.0000       4.938924       134.3950 
 674   0.0000       4.957117       134.8900 
 675   0.0000       4.977533       135.4455 
 676   0.0000       4.991556       135.8271 
 677   0.0000       4.996152       135.9522 
 678   0.0000       5.011387       136.3668 
 679   0.0000       5.015300       136.4733 
 680   0.0000       5.028340       136.8281 
 681   0.0000       5.039681       137.1367 
 682   0.0000       5.048281       137.3707 
 683   0.0000       5.063139       137.7750 
 684   0.0000       5.079989       138.2335 
 685   0.0000       5.084955       138.3687 
 686   0.0000       5.093871       138.6113 
 687   0.0000       5.111724       139.0971 
 688   0.0000       5.128200       139.5454 
 689   0.0000       5.138636       139.8294 
 690   0.0000       5.150498       140.1522 
 691   0.0000       5.168616       140.6452 
 692   0.0000       5.192263       141.2886 
 693   0.0000       5.194631       141.3531 
 694   0.0000       5.212783       141.8470 
 695   0.0000       5.213027       141.8537 
 696   0.0000       5.218234       141.9954 
 697   0.0000       5.228112       142.2642 
 698   0.0000       5.246938       142.7764 
 699   0.0000       5.250944       142.8855 
 700   0.0000       5.265348       143.2774 
 701   0.0000       5.285276       143.8197 
 702   0.0000       5.294148       144.0611 
 703   0.0000       5.298421       144.1774 
 704   0.0000       5.320470       144.7774 
 705   0.0000       5.340410       145.3199 
 706   0.0000       5.343508       145.4042 
 707   0.0000       5.351609       145.6247 
 708   0.0000       5.361378       145.8905 
 709   0.0000       5.389999       146.6693 
 710   0.0000       5.394789       146.7997 
 711   0.0000       5.430050       147.7592 
 712   0.0000       5.438721       147.9951 
 713   0.0000       5.443910       148.1363 
 714   0.0000       5.454999       148.4381 
 715   0.0000       5.460002       148.5742 
 716   0.0000       5.469099       148.8217 
 717   0.0000       5.492921       149.4700 
 718   0.0000       5.512380       149.9995 
 719   0.0000       5.516867       150.1216 
 720   0.0000       5.538115       150.6998 
 721   0.0000       5.549369       151.0060 
 722   0.0000       5.560250       151.3021 
 723   0.0000       5.568427       151.5246 
 724   0.0000       5.590160       152.1160 
 725   0.0000       5.609284       152.6364 
 726   0.0000       5.620825       152.9504 
 727   0.0000       5.625583       153.0799 
 728   0.0000       5.637195       153.3959 
 729   0.0000       5.647069       153.6645 
 730   0.0000       5.667561       154.2222 
 731   0.0000       5.676863       154.4753 
 732   0.0000       5.689294       154.8136 
 733   0.0000       5.694311       154.9501 
 734   0.0000       5.716596       155.5565 
 735   0.0000       5.720604       155.6656 
 736   0.0000       5.747159       156.3881 
 737   0.0000       5.750122       156.4688 
 738   0.0000       5.759415       156.7216 
 739   0.0000       5.779250       157.2614 
 740   0.0000       5.786797       157.4667 
 741   0.0000       5.791161       157.5855 
 742   0.0000       5.797857       157.7677 
 743   0.0000       5.811042       158.1265 
 744   0.0000       5.816732       158.2813 
 745   0.0000       5.864624       159.5845 
 746   0.0000       5.867556       159.6643 
 747   0.0000       5.881656       160.0480 
 748   0.0000       5.894821       160.4062 
 749   0.0000       5.909666       160.8102 
 750   0.0000       5.937890       161.5782 
 751   0.0000       5.948992       161.8803 
 752   0.0000       5.956099       162.0737 
 753   0.0000       5.987470       162.9273 
 754   0.0000       5.990565       163.0116 
 755   0.0000       5.997154       163.1909 
 756   0.0000       6.029711       164.0768 
 757   0.0000       6.045401       164.5037 
 758   0.0000       6.083211       165.5326 
 759   0.0000       6.113945       166.3689 
 760   0.0000       6.122957       166.6141 
 761   0.0000       6.158962       167.5939 
 762   0.0000       6.206043       168.8750 
 763   0.0000       6.225394       169.4016 
 764   0.0000       6.225929       169.4161 
 765   0.0000       6.237104       169.7202 
 766   0.0000       6.243624       169.8976 
 767   0.0000       6.257140       170.2654 
 768   0.0000       6.303204       171.5189 
 769   0.0000       6.324261       172.0919 
 770   0.0000       6.336409       172.4225 
 771   0.0000       6.350135       172.7960 
 772   0.0000       6.367774       173.2759 
 773   0.0000       6.411487       174.4654 
 774   0.0000       6.450927       175.5386 
 775   0.0000       6.459970       175.7847 
 776   0.0000       6.492737       176.6763 
 777   0.0000       6.516156       177.3136 
 778   0.0000       6.553288       178.3240 
 779   0.0000       6.598344       179.5501 
 780   0.0000       6.655961       181.1179 
 781   0.0000       6.682373       181.8366 
 782   0.0000       6.719709       182.8526 
 783   0.0000       6.758968       183.9209 
 784   0.0000       6.774982       184.3566 
 785   0.0000       6.832817       185.9304 
 786   0.0000       6.853095       186.4822 
 787   0.0000       6.888351       187.4416 
 788   0.0000       6.952078       189.1757 
 789   0.0000       6.958570       189.3523 
 790   0.0000       7.024487       191.1460 
 791   0.0000       7.072502       192.4526 
 792   0.0000       7.089341       192.9108 
 793   0.0000       7.173273       195.1947 
 794   0.0000       7.209042       196.1680 
 795   0.0000       7.221477       196.5064 
 796   0.0000       7.255573       197.4342 
 797   0.0000       7.294289       198.4877 
 798   0.0000       7.309854       198.9112 
 799   0.0000       7.368553       200.5085 
 800   0.0000       7.382891       200.8987 
 801   0.0000       7.495152       203.9534 
 802   0.0000       7.562049       205.7738 
 803   0.0000       7.591696       206.5806 
 804   0.0000       7.684730       209.1121 
 805   0.0000       7.777759       211.6436 
 806   0.0000       7.820302       212.8012 
 807   0.0000       7.926164       215.6819 
 808   0.0000       7.931523       215.8277 
 809   0.0000       9.324752       253.7394 
 810   0.0000       9.711974       264.2763 
 811   0.0000      10.984237       298.8963 
 812   0.0000      11.427061       310.9461 
 813   0.0000      11.768220       320.2296 
 814   0.0000      11.953312       325.2662 
 815   0.0000      12.284746       334.2849 
 816   0.0000      12.740216       346.6789 
 817   0.0000      12.823033       348.9325 
 818   0.0000      13.094253       356.3127 
 819   0.0000      13.267288       361.0213 
 820   0.0000      13.409998       364.9046 
 821   0.0000      13.487744       367.0202 
 822   0.0000      13.809055       375.7635 
 823   0.0000      14.014927       381.3656 
 824   0.0000      14.207498       386.6057 
 825   0.0000      14.568145       396.4194 
 826   0.0000      14.640848       398.3977 
 827   0.0000      15.326456       417.0541 

                    ********************************
                    * MULLIKEN POPULATION ANALYSIS *
                    ********************************

-----------------------
MULLIKEN ATOMIC CHARGES
-----------------------
   0 C :   -0.329922
   1 C :    0.027428
   2 O :   -0.352160
   3 C :    0.420105
   4 O :   -0.448760
   5 C :   -0.104038
   6 C :    0.112407
   7 C :   -0.317789
   8 N :   -0.039448
   9 C :    0.153550
  10 S :   -0.429992
  11 N :   -0.160122
  12 C :    0.007187
  13 C :    0.062846
  14 C :   -0.242258
  15 C :   -0.144846
  16 C :   -0.224583
  17 C :    0.277472
  18 O :   -0.335841
  19 C :   -0.250189
  20 H :    0.123479
  21 H :    0.096774
  22 H :    0.105207
  23 H :    0.103837
  24 H :    0.114686
  25 H :    0.099990
  26 H :    0.143456
  27 H :    0.129538
  28 H :    0.188553
  29 H :    0.179381
  30 H :    0.159072
  31 H :    0.156708
  32 H :    0.163094
  33 H :    0.170229
  34 H :    0.246798
  35 H :    0.138152
Sum of atomic charges:    0.0000000

--------------------------------
MULLIKEN REDUCED ORBITAL CHARGES
--------------------------------
  0 C s       :     3.270179  s :     3.270179
      pz      :     1.013739  p :     2.982620
      px      :     1.019363
      py      :     0.949518
      dz2     :     0.003655  d :     0.072863
      dxz     :     0.018792
      dyz     :     0.023168
      dx2y2   :     0.015782
      dxy     :     0.011467
      f0      :     0.000396  f :     0.004259
      f+1     :     0.000099
      f-1     :     0.000479
      f+2     :     0.001528
      f-2     :     0.000946
      f+3     :     0.000422
      f-3     :     0.000390
  1 C s       :     3.166568  s :     3.166568
      pz      :     0.957589  p :     2.646003
      px      :     0.715713
      py      :     0.972701
      dz2     :     0.015388  d :     0.148770
      dxz     :     0.038398
      dyz     :     0.030361
      dx2y2   :     0.033396
      dxy     :     0.031226
      f0      :     0.000901  f :     0.011232
      f+1     :     0.001994
      f-1     :     0.000757
      f+2     :     0.002588
      f-2     :     0.001405
      f+3     :     0.001557
      f-3     :     0.002029
  2 O s       :     3.729549  s :     3.729549
      pz      :     1.530972  p :     4.585895
      px      :     1.466717
      py      :     1.588206
      dz2     :     0.006212  d :     0.034599
      dxz     :     0.005077
      dyz     :     0.008676
      dx2y2   :     0.010819
      dxy     :     0.003815
      f0      :     0.000260  f :     0.002117
      f+1     :     0.000212
      f-1     :     0.000442
      f+2     :     0.000537
      f-2     :     0.000283
      f+3     :     0.000241
      f-3     :     0.000142
  3 C s       :     3.122271  s :     3.122271
      pz      :     0.655006  p :     2.134076
      px      :     0.840908
[...]
 15 C s       :     2.729116  s :     2.729116
      pz      :     0.895826  p :     2.790587
      px      :     0.934726
      py      :     0.960035
      dz2     :     0.082116  d :     0.380699
      dxz     :     0.052687
      dyz     :     0.069281
      dx2y2   :     0.068479
      dxy     :     0.108136
      f0      :     0.002968  f :     0.034385
      f+1     :     0.004161
      f-1     :     0.004985
      f+2     :     0.005455
      f-2     :     0.006184
      f+3     :     0.005620
      f-3     :     0.005011
 16 C s       :     2.724210  s :     2.724210
      pz      :     0.934564  p :     2.858369
      px      :     0.954595
      py      :     0.969210
      dz2     :     0.045185  d :     0.357909
      dxz     :     0.054866
      dyz     :     0.079995
      dx2y2   :     0.096493
      dxy     :     0.081371
      f0      :     0.004423  f :     0.035253
      f+1     :     0.003889
      f-1     :     0.002555
      f+2     :     0.004754
      f-2     :     0.006243
      f+3     :     0.005901
      f-3     :     0.007488
 17 C s       :     2.722850  s :     2.722850
      pz      :     0.829440  p :     2.681550
      px      :     0.839630
      py      :     1.012479
      dz2     :     0.128306  d :     0.700340
      dxz     :     0.129144
      dyz     :     0.118035
      dx2y2   :     0.161719
      dxy     :     0.163135
      f0      :     0.008359  f :     0.101249
      f+1     :     0.019787
      f-1     :     0.007499
      f+2     :     0.013982
      f-2     :     0.016460
      f+3     :     0.013673
      f-3     :     0.021490
 18 O s       :     3.166577  s :     3.166577
      pz      :     1.572680  p :     4.337088
      px      :     1.308812
      py      :     1.455596
      dz2     :     0.013689  d :     0.081224
      dxz     :     0.019200
      dyz     :     0.004971
      dx2y2   :     0.018262
      dxy     :     0.025102
      f0      :     0.000270  f :     0.005522
      f+1     :     0.000978
      f-1     :     0.000277
      f+2     :     0.001132
      f-2     :     0.001050
      f+3     :     0.000958
      f-3     :     0.000857
 19 C s       :     2.720810  s :     2.720810
      pz      :     0.942569  p :     2.860440
      px      :     0.957335
      py      :     0.960536
      dz2     :     0.070708  d :     0.358386
      dxz     :     0.053751
      dyz     :     0.070575
      dx2y2   :     0.065559
      dxy     :     0.097794
      f0      :     0.002910  f :     0.034414
      f+1     :     0.004369
      f-1     :     0.005154
      f+2     :     0.006118
      f-2     :     0.006019
      f+3     :     0.004664
      f-3     :     0.005180
 20 H s       :     0.841442  s :     0.841442
      pz      :     0.057630  p :     0.156694
      px      :     0.044637
      py      :     0.054426
      dz2     :     0.006542  d :     0.027947
      dxz     :     0.005608
      dyz     :     0.006600
      dx2y2   :     0.004578
      dxy     :     0.004618
 21 H s       :     0.854386  s :     0.854386
      pz      :     0.049726  p :     0.151108
      px      :     0.057013
      py      :     0.044368
      dz2     :     0.005199  d :     0.027536
      dxz     :     0.006681
      dyz     :     0.003764
      dx2y2   :     0.005977
      dxy     :     0.005915
 22 H s       :     0.844696  s :     0.844696
      pz      :     0.054472  p :     0.155174
      px      :     0.060718
      py      :     0.039984
      dz2     :     0.006274  d :     0.027789
      dxz     :     0.007108
      dyz     :     0.003791
      dx2y2   :     0.005264
      dxy     :     0.005352
 23 H s       :     0.853871  s :     0.853871
      pz      :     0.060854  p :     0.147164
      px      :     0.026719
      py      :     0.059592
      dz2     :     0.007748  d :     0.027485
      dxz     :     0.004460
      dyz     :     0.007796
      dx2y2   :     0.004568
      dxy     :     0.002913
 24 H s       :     0.854159  s :     0.854159
      pz      :     0.053169  p :     0.147166
      px      :     0.048520
      py      :     0.045477
      dz2     :     0.005172  d :     0.026951
      dxz     :     0.006846
      dyz     :     0.005047
      dx2y2   :     0.004788
      dxy     :     0.005098
 25 H s       :     0.833749  s :     0.833749
      pz      :     0.043089  p :     0.156150
      px      :     0.066475
      py      :     0.046586
      dz2     :     0.004372  d :     0.028893
      dxz     :     0.007185
      dyz     :     0.002273
      dx2y2   :     0.008119
      dxy     :     0.006944
 26 H s       :     0.831757  s :     0.831757
      pz      :     0.038392  p :     0.149347
      px      :     0.040631
      py      :     0.070324
      dz2     :     0.003895  d :     0.027085
      dxz     :     0.000921
      dyz     :     0.007476
      dx2y2   :     0.006468
      dxy     :     0.008325
 27 H s       :     0.827406  s :     0.827406
      pz      :     0.040536  p :     0.151047
      px      :     0.059176
      py      :     0.051335
      dz2     :     0.004803  d :     0.027909
      dxz     :     0.005126
      dyz     :     0.003731
      dx2y2   :     0.008456
      dxy     :     0.005794
 28 H s       :     0.730249  s :     0.730249
      pz      :     0.067635  p :     0.243564
      px      :     0.087024
      py      :     0.088904
      dz2     :     0.011451  d :     0.059956
      dxz     :     0.014905
      dyz     :     0.007500
      dx2y2   :     0.011583
      dxy     :     0.014517
 29 H s       :     0.749720  s :     0.749720
      pz      :     0.115011  p :     0.250349
      px      :     0.051036
      py      :     0.084302
      dz2     :     0.020425  d :     0.060913
      dxz     :     0.014692
      dyz     :     0.019903
      dx2y2   :     0.003250
      dxy     :     0.002641
 30 H s       :     0.817698  s :     0.817698
      pz      :     0.042273  p :     0.155662
      px      :     0.056163
      py      :     0.057225
      dz2     :     0.004039  d :     0.029702
      dxz     :     0.003872
      dyz     :     0.005657
      dx2y2   :     0.008439
      dxy     :     0.007695
 31 H s       :     0.848621  s :     0.848621
      pz      :     0.057418  p :     0.160102
      px      :     0.068065
      py      :     0.034619
      dz2     :     0.006138  d :     0.027661
      dxz     :     0.007622
      dyz     :     0.003414
      dx2y2   :     0.005154
      dxy     :     0.005332
 32 H s       :     0.848057  s :     0.848057
      pz      :     0.039815  p :     0.157208
      px      :     0.055624
      py      :     0.061769
      dz2     :     0.002872  d :     0.026991
      dxz     :     0.003830
      dyz     :     0.004527
      dx2y2   :     0.007970
      dxy     :     0.007791
 33 H s       :     0.846521  s :     0.846521
      pz      :     0.052603  p :     0.159671
      px      :     0.038367
      py      :     0.068702
      dz2     :     0.004579  d :     0.027385
      dxz     :     0.002070
      dyz     :     0.008011
      dx2y2   :     0.006235
      dxy     :     0.006489
 34 H s       :     0.700973  s :     0.700973
      pz      :     0.096752  p :     0.342828
      px      :     0.089865
      py      :     0.156211
      dz2     :     0.009075  d :     0.098286
      dxz     :     0.011090
      dyz     :     0.023433
      dx2y2   :     0.031593
      dxy     :     0.023095
 35 H s       :     0.850130  s :     0.850130
      pz      :     0.042103  p :     0.163555
      px      :     0.058463
      py      :     0.062988
      dz2     :     0.002731  d :     0.028388
      dxz     :     0.004470
      dyz     :     0.004545
      dx2y2   :     0.008947
      dxy     :     0.007696


                      *****************************
                      * MAYER POPULATION ANALYSIS *
                      *****************************

  NA   - Mulliken gross atomic population
  ZA   - Total nuclear charge
  QA   - Mulliken gross atomic charge
  VA   - Mayer's total valence
  BVA  - Mayer's bonded valence
  FA   - Mayer's free valence

  ATOM       NA         ZA         QA         VA         BVA        FA
  0 C      6.3299     6.0000    -0.3299     3.8699     3.8699     0.0000
  1 C      5.9726     6.0000     0.0274     3.8700     3.8700     0.0000
  2 O      8.3522     8.0000    -0.3522     2.0541     2.0541    -0.0000
  3 C      5.5799     6.0000     0.4201     4.1600     4.1600    -0.0000
  4 O      8.4488     8.0000    -0.4488     2.0621     2.0621     0.0000
  5 C      6.1040     6.0000    -0.1040     3.5419     3.5419     0.0000
  6 C      5.8876     6.0000     0.1124     3.8430     3.8430     0.0000
  7 C      6.3178     6.0000    -0.3178     3.8893     3.8893    -0.0000
  8 N      7.0394     7.0000    -0.0394     3.3550     3.3550     0.0000
  9 C      5.8465     6.0000     0.1535     4.1615     4.1615     0.0000
 10 S     16.4300    16.0000    -0.4300     1.7481     1.7481    -0.0000
 11 N      7.1601     7.0000    -0.1601     3.2151     3.2151     0.0000
 12 C      5.9928     6.0000     0.0072     3.9754     3.9754     0.0000
 13 C      5.9372     6.0000     0.0628     3.7359     3.7359     0.0000
 14 C      6.2423     6.0000    -0.2423     3.8629     3.8629     0.0000
 15 C      6.1448     6.0000    -0.1448     3.8364     3.8364     0.0000
 16 C      6.2246     6.0000    -0.2246     3.8056     3.8056    -0.0000
 17 C      5.7225     6.0000     0.2775     3.9132     3.9132    -0.0000
 18 O      8.3358     8.0000    -0.3358     2.1350     2.1350    -0.0000
 19 C      6.2502     6.0000    -0.2502     3.8215     3.8215    -0.0000
 20 H      0.8765     1.0000     0.1235     0.9835     0.9835    -0.0000
 21 H      0.9032     1.0000     0.0968     0.9810     0.9810    -0.0000
 22 H      0.8948     1.0000     0.1052     0.9806     0.9806    -0.0000
 23 H      0.8962     1.0000     0.1038     0.9743     0.9743     0.0000
 24 H      0.8853     1.0000     0.1147     0.9827     0.9827    -0.0000
 25 H      0.9000     1.0000     0.1000     0.9872     0.9872    -0.0000
 26 H      0.8565     1.0000     0.1435     0.9786     0.9786    -0.0000
 27 H      0.8705     1.0000     0.1295     0.9769     0.9769    -0.0000
 28 H      0.8114     1.0000     0.1886     1.0198     1.0198     0.0000
 29 H      0.8206     1.0000     0.1794     1.0245     1.0245     0.0000
 30 H      0.8409     1.0000     0.1591     1.0002     1.0002    -0.0000
 31 H      0.8433     1.0000     0.1567     0.9869     0.9869     0.0000
 32 H      0.8369     1.0000     0.1631     0.9779     0.9779    -0.0000
 33 H      0.8298     1.0000     0.1702     0.9806     0.9806    -0.0000
 34 H      0.7532     1.0000     0.2468     1.0070     1.0070     0.0000
 35 H      0.8618     1.0000     0.1382     1.0013     1.0013    -0.0000

  Mayer bond orders larger than 0.100000
B(  0-C ,  1-C ) :   0.9608 B(  0-C , 20-H ) :   0.9718 B(  0-C , 21-H ) :   0.9766 
B(  0-C , 22-H ) :   0.9781 B(  1-C ,  2-O ) :   0.9193 B(  1-C , 23-H ) :   0.9849 
B(  1-C , 24-H ) :   0.9788 B(  2-O ,  3-C ) :   1.1450 B(  3-C ,  4-O ) :   1.9387 
B(  3-C ,  5-C ) :   1.0409 B(  5-C ,  6-C ) :   1.6009 B(  5-C , 12-C ) :   0.9719 
B(  6-C ,  7-C ) :   0.9433 B(  6-C ,  8-N ) :   1.2061 B(  7-C , 25-H ) :   0.9882 
B(  7-C , 26-H ) :   0.9624 B(  7-C , 27-H ) :   0.9700 B(  8-N ,  9-C ) :   1.1894 
B(  8-N , 28-H ) :   0.9538 B(  9-C , 10-S ) :   1.6096 B(  9-C , 11-N ) :   1.2806 
B( 11-N , 12-C ) :   0.9675 B( 11-N , 29-H ) :   0.9596 B( 12-C , 13-C ) :   0.9592 
B( 12-C , 30-H ) :   0.9858 B( 13-C , 14-C ) :   1.4061 B( 13-C , 19-C ) :   1.3082 
B( 14-C , 15-C ) :   1.3707 B( 14-C , 31-H ) :   0.9662 B( 15-C , 16-C ) :   1.3997 
B( 15-C , 32-H ) :   0.9720 B( 16-C , 17-C ) :   1.3240 B( 16-C , 33-H ) :   0.9635 
B( 17-C , 18-O ) :   1.1316 B( 17-C , 19-C ) :   1.3754 B( 18-O , 34-H ) :   0.9692 
B( 19-C , 35-H ) :   0.9709 

-------
TIMINGS
-------

Total SCF time: 0 days 1 hours 45 min 51 sec 

Total time                  ....    6351.294 sec
Sum of individual times     ....    6345.406 sec  ( 99.9%)

Fock matrix formation       ....    6331.133 sec  ( 99.7%)
Diagonalization             ....       1.316 sec  (  0.0%)
Density matrix formation    ....       0.200 sec  (  0.0%)
Population analysis         ....       0.452 sec  (  0.0%)
Initial guess               ....       5.563 sec  (  0.1%)
Orbital Transformation      ....       0.000 sec  (  0.0%)
Orbital Orthonormalization  ....       0.000 sec  (  0.0%)
DIIS solution               ....       2.583 sec  (  0.0%)
SOSCF solution              ....       2.796 sec  (  0.0%)

Maximum memory used throughout the entire SCF-calculation: 725.4 MB

------------------------------------------------------------------------------
                                ORCA  MP2 
------------------------------------------------------------------------------

Freezing NCore=48 chemical core electrons

-------------
RI-MP2 ENERGY
-------------
Dimension of the basis                    ...  828
Memory devoted to MP2                     ...  256 MB   
Data format for buffers                   ... DOUBLE
Compression type for matrix containers    ... UNCOMPRESSED
Overall scaling of the MP2 energy         ...   1.000e+00
Calculating two index integrals           ... done (    0.043 sec)
Cholesky decomposition of V**-1           ... done (    0.549 sec)

-----------------
RI-TRANSFORMATION (AUX index driven)
-----------------

Dimension of the orbital-basis         ... 828
Dimension of the aux-basis             ... 2141
Transformation of internal/external MOs...   24-  76 to   77- 827
Number Format for Storage              ... Double (8 Byte)
Integral mode                          ... Direct

First Phase: integral generation and transformation of MO indices
  Aux angular momentum 0               ... done (    4.617 sec)
  Aux angular momentum 1               ... done (    7.775 sec)
  Aux angular momentum 2               ... done (    9.812 sec)
  Aux angular momentum 3               ... done (    7.911 sec)
  Aux angular momentum 4               ... done (    2.782 sec)
Closing buffer VIA ( 0.63 GB; CompressionRatio= 1.00)
  Phase 1 completed in    33.321 sec
Second Phase: sorting and transformation of aux index

IA-Transformation
Memory available                       ... 158 MB 
Max. # MO pairs treated in a batch     ... 11    
# of internal orbitals                 ... 53
# batches for internal orbitals        ... 5
Closing buffer IAV ( 0.63 GB; CompressionRatio= 1.00)
(ia|v) transformation done in    24.821 sec

  Phase 2 completed in    24.839 sec
RI-Integral transformation completed in    58.170 sec
Opening buffers                              ... done

Starting loop over batches of integrals:

Operator 0  - window                       ... ( 24- 76)x( 77-827)
Operator 0  - Memory available             ...   256 MB
Operator 0  - Memory needed per MO         ...  12.3 MB
Operator 0  - Number of orbitals per batch ... 13
Operator 0  - Number of batches            ... 5

OPERATOR  0   PASS   0:  MOs    24 ...   36
  Reading integrals       ... ok
  Internal MO  26
  Internal MO  29
  Internal MO  32
  Internal MO  35
OPERATOR  0   PASS   1:  MOs    37 ...   49
  Reading integrals       ... ok
  Internal MO  38
  Internal MO  41
  Internal MO  44
  Internal MO  47
OPERATOR  0   PASS   2:  MOs    50 ...   62
  Reading integrals       ... ok
  Internal MO  50
  Internal MO  53
  Internal MO  56
  Internal MO  59
  Internal MO  62
OPERATOR  0   PASS   3:  MOs    63 ...   75
  Reading integrals       ... ok
  Internal MO  65
  Internal MO  68
  Internal MO  71
  Internal MO  74
OPERATOR  0   PASS   4:  MOs    76 ...   76
  Reading integrals       ... ok
Time spent in pair loops =    89.917 sec
Deleting buffer (Ka|jb)[aa] ...done

-----------------------------------------------
 RI-MP2 CORRELATION ENERGY:     -3.547107386 Eh
-----------------------------------------------


-------
TIMINGS
-------

Total time                :  148.887 sec
Integral trafo            :   58.195 sec ( 39.1%)
I/O of integrals          :    4.033 sec (  2.7%)
K(i,j) Operators          :   57.907 sec ( 38.9%)
T(i,j) pair energies      :    8.532 sec (  5.7%)
V-calculation             :    0.043 sec (  0.0%)
V**(-1/2)                 :    0.549 sec (  0.4%)
Gamma(ia|P)               :    0.000 sec (  0.0%)
Gamma-Trafo               :    0.000 sec (  0.0%)
D(virtual)                :    0.000 sec (  0.0%)
D(internal)               :    0.000 sec (  0.0%)
W(virtual)                :    0.000 sec (  0.0%)
W(internal)               :    0.000 sec (  0.0%)
L(virtual)                :    0.000 sec (  0.0%)
L(internal)               :    0.000 sec (  0.0%)
G(D)                      :    0.000 sec (  0.0%)
G(Z)                      :    0.000 sec (  0.0%)
Z-Vector Solution         :    0.000 sec (  0.0%)
3-Index Derivative        :    0.000 sec (  0.0%)
2-Index Derivative        :    0.000 sec (  0.0%)
Separable Gradient        :    0.000 sec (  0.0%)


---------------------------------------
MP2 TOTAL ENERGY:    -1274.297131029 Eh
---------------------------------------

Maximum memory used throughout the entire MP2-calculation: 303.3 MB

-------------------------   --------------------
FINAL SINGLE POINT ENERGY     -1274.297131028910
-------------------------   --------------------


                            ***************************************
                            *     ORCA property calculations      *
                            ***************************************


  WARNING: The energy has been calculated at the MP2 level but the densities
           used in the property calculations are still SCF densities
           MP2 response densities have not been calculated 
           use %mp2 Density relaxed end
           or  %mp2 Density unrelaxed end

                                    ---------------------
                                    Active property flags
                                    ---------------------
   (+) Dipole Moment


------------------------------------------------------------------------------
                       ORCA ELECTRIC PROPERTIES CALCULATION
------------------------------------------------------------------------------

Dipole Moment Calculation                       ... on
Quadrupole Moment Calculation                   ... off
Polarizability Calculation                      ... off
GBWName                                         ... qm_input.vacu.gbw
Electron density file                           ... qm_input.vacu.scfp
The origin for moment calculation is the CENTER OF MASS  = ( 7.581059, 16.473610 19.238675)

-------------
DIPOLE MOMENT
-------------
                                X             Y             Z
Electronic contribution:    -11.48332       1.61483      13.08029
Nuclear contribution   :     12.64669      -1.94754     -14.91056
                        -----------------------------------------
Total Dipole Moment    :      1.16337      -0.33271      -1.83027
                        -----------------------------------------
Magnitude (a.u.)       :      2.19408
Magnitude (Debye)      :      5.57692



--------------------
Rotational spectrum 
--------------------
 
Rotational constants in cm-1:     0.009919     0.009658     0.005611 
Rotational constants in MHz :   297.356638   289.547805   168.226747 

 Dipole components along the rotational axes: 
x,y,z [a.u.] :     1.587499     1.347818    -0.690822 
x,y,z [Debye]:     4.035102     3.425881    -1.755929 

 

Timings for individual modules:

Sum of individual times         ...     6503.458 sec (= 108.391 min)
GTO integral calculation        ...        2.213 sec (=   0.037 min)   0.0 %
SCF iterations                  ...     6351.537 sec (= 105.859 min)  97.7 %
MP2 module                      ...      149.708 sec (=   2.495 min)   2.3 %
                             ****ORCA TERMINATED NORMALLY****
TOTAL RUN TIME: 0 days 1 hours 48 minutes 25 seconds 211 msec
